 -0.12000000000000000          0.0000000000000000
 -0.11889999999999999          0.0000000000000000
 -0.11780000000000000          0.0000000000000000
 -0.11670000000000000          0.0000000000000000
 -0.11559999999999999          0.0000000000000000
 -0.11449999999999999          0.0000000000000000
 -0.11340000000000000          0.0000000000000000
 -0.11230000000000000          0.0000000000000000
 -0.11119999999999999          0.0000000000000000
 -0.11009999999999999          0.0000000000000000
 -0.10900000000000000          0.0000000000000000
 -0.10790000000000000         -8.3745042289955071E-026
 -0.10679999999999999         -1.0335542181450571E-024
 -0.10569999999999999         -4.9372500583939884E-024
 -0.10460000000000000         -7.0741827427727037E-024
 -0.10349999999999999          3.7271008266389540E-023
 -0.10239999999999999          2.2996365713668698E-022
 -0.10130000000000000          5.1150947736171032E-022
 -0.10020000000000000         -4.9921390001792664E-024
  -9.9099999999999994E-002    -3.3330200729122889E-021
  -9.7999999999999990E-002    -9.8014197900928125E-021
  -9.6899999999999986E-002    -1.0485753419441321E-020
  -9.5799999999999996E-002     1.6676474905777616E-020
  -9.4699999999999993E-002     8.4972160736252446E-020
  -9.3599999999999989E-002     1.4185214342155888E-019
  -9.2499999999999999E-002     3.5444417829258742E-020
  -9.1399999999999995E-002    -3.6498868900050128E-019
  -9.0299999999999991E-002    -8.5655570895995222E-019
  -8.9200000000000002E-002    -7.1654923812954642E-019
  -8.8099999999999984E-002     7.4554010914194008E-019
  -8.6999999999999994E-002     2.8159223624532846E-018
  -8.5899999999999990E-002     2.6938850979608862E-018
  -8.4799999999999986E-002    -1.9948153235479276E-018
  -8.3699999999999997E-002    -7.6238333655062500E-018
  -8.2599999999999993E-002    -2.6145897032851748E-018
  -8.1499999999999989E-002     2.0979854668076346E-017
  -8.0399999999999999E-002     4.3935506329851953E-017
  -7.9299999999999995E-002     1.1734369280426225E-017
  -7.8199999999999992E-002    -1.1847965993948132E-016
  -7.7100000000000002E-002    -2.7854599061118862E-016
  -7.5999999999999984E-002    -2.3603115705722914E-016
  -7.4899999999999994E-002     2.5940087548131409E-016
  -7.3799999999999991E-002     1.1037897035116417E-015
  -7.2699999999999987E-002     1.5374019628371159E-015
  -7.1599999999999997E-002     4.4945871052138524E-016
  -7.0499999999999993E-002    -2.4731579055471600E-015
  -6.9399999999999989E-002    -5.4713657005923694E-015
  -6.8300000000000000E-002    -4.9291837227031544E-015
  -6.7199999999999996E-002     1.7838035295560366E-015
  -6.6099999999999992E-002     1.2163305878178186E-014
  -6.5000000000000002E-002     1.7294220661665319E-014
  -6.3899999999999985E-002     7.4294911517921829E-015
  -6.2799999999999995E-002    -1.7080094120731221E-014
  -6.1699999999999991E-002    -3.8859743873263797E-014
  -6.0599999999999994E-002    -3.1948686860135134E-014
  -5.9499999999999990E-002     1.3697545972902320E-014
  -5.8399999999999994E-002     6.9999710780414837E-014
  -5.7299999999999990E-002     7.8925845622534324E-014
  -5.6199999999999986E-002     1.3043257066861630E-015
  -5.5099999999999996E-002    -1.2530174651765452E-013
  -5.3999999999999992E-002    -1.8213666794393568E-013
  -5.2899999999999989E-002    -5.6856341195451326E-014
  -5.1799999999999985E-002     2.2207843203281286E-013
  -5.0699999999999995E-002     4.3101947792140161E-013
  -4.9599999999999991E-002     2.8644957499740498E-013
  -4.8499999999999988E-002    -2.7278721816126339E-013
  -4.7399999999999998E-002    -8.8854108532682163E-013
  -4.6299999999999994E-002    -9.3631547827544015E-013
  -4.5199999999999990E-002    -4.8773376830346660E-014
  -4.4099999999999986E-002     1.3620430738131573E-012
  -4.2999999999999997E-002     2.1404950294873215E-012
  -4.1899999999999993E-002     1.2136225184533611E-012
  -4.0799999999999989E-002    -1.2836496188911584E-012
  -3.9699999999999985E-002    -3.6101074386840626E-012
  -3.8599999999999995E-002    -3.4682239719030505E-012
  -3.7499999999999992E-002    -4.2125157528882795E-014
  -3.6399999999999988E-002     4.6298329753335921E-012
  -3.5299999999999984E-002     6.5770609444792960E-012
  -3.4199999999999994E-002     3.0535691163124934E-012
  -3.3099999999999991E-002    -4.3865232626782991E-012
  -3.1999999999999987E-002    -9.9526177230191415E-012
  -3.0899999999999997E-002    -7.8211109463821593E-012
  -2.9799999999999993E-002     2.2715865646838473E-012
  -2.8699999999999989E-002     1.3057970503493888E-011
  -2.7599999999999986E-002     1.4441009152377227E-011
  -2.6499999999999996E-002     2.3474408181178852E-012
  -2.5399999999999992E-002    -1.5585487761482497E-011
  -2.4299999999999988E-002    -2.3893678702258114E-011
  -2.3199999999999985E-002    -1.1755035313198992E-011
  -2.2099999999999995E-002     1.5449952081580953E-011
  -2.0999999999999991E-002     3.6690553373297519E-011
  -1.9899999999999987E-002     3.0625651320503877E-011
  -1.8799999999999983E-002    -4.8350212722425567E-012
  -1.7699999999999994E-002    -4.5847488999717356E-011
  -1.6599999999999990E-002    -5.7985390794490499E-011
  -1.5499999999999986E-002    -2.4520298985697409E-011
  -1.4399999999999996E-002     3.5261772668437885E-011
  -1.3299999999999992E-002     7.6161035811317390E-011
  -1.2199999999999989E-002     6.1833704823044400E-011
  -1.1099999999999985E-002    -2.4349515459487492E-012
  -9.9999999999999950E-003    -6.8387018270499311E-011
  -8.8999999999999913E-003    -8.0927348156123458E-011
  -7.7999999999999875E-003    -2.5230151301514070E-011
  -6.6999999999999837E-003     5.5349891336931023E-011
  -5.5999999999999939E-003     9.0353141635191037E-011
  -4.4999999999999901E-003     4.1212509099830541E-011
  -3.3999999999999864E-003    -6.0320748396236468E-011
  -2.2999999999999826E-003    -1.3062499693017315E-010
  -1.1999999999999927E-003    -1.0016529272682817E-010
  -9.9999999999988987E-005     2.4851606883480315E-011
   1.0000000000000148E-003     1.5847428924686824E-010
   2.1000000000000185E-003     1.9745839685558764E-010
   3.2000000000000084E-003     1.0317526000225286E-010
   4.3000000000000121E-003    -6.3707414343916469E-011
   5.4000000000000159E-003    -1.8682207170162002E-010
   6.5000000000000058E-003    -1.8347959263032010E-010
   7.6000000000000234E-003    -6.8513979212259102E-011
   8.7000000000000133E-003     5.9381645434175567E-011
   9.8000000000000032E-003     9.8272640025598434E-011
   1.0900000000000021E-002     2.5722476232337144E-011
   1.2000000000000011E-002    -8.2633948295107729E-011
   1.3100000000000001E-002    -1.1323288834352851E-010
   1.4200000000000018E-002    -6.0906418797301853E-012
   1.5300000000000008E-002     1.9243993898410139E-010
   1.6400000000000026E-002     3.5427005773414066E-010
   1.7500000000000016E-002     3.5261008002329675E-010
   1.8600000000000005E-002     1.4575557427676245E-010
   1.9700000000000023E-002    -1.9150128705014424E-010
   2.0800000000000013E-002    -5.0453891065060930E-010
   2.1900000000000003E-002    -6.3909294523156746E-010
   2.3000000000000020E-002    -5.2053428234444254E-010
   2.4100000000000010E-002    -1.9232469783414530E-010
   2.5200000000000000E-002     2.0553451995919403E-010
   2.6300000000000018E-002     5.0890031078054676E-010
   2.7400000000000008E-002     6.1551513885760301E-010
   2.8500000000000025E-002     5.3319926252015648E-010
   2.9600000000000015E-002     3.5483102567290814E-010
   3.0700000000000005E-002     1.7302576038602524E-010
   3.1800000000000023E-002    -3.3734213339409180E-013
   3.2900000000000013E-002    -2.3488117006920106E-010
   3.4000000000000002E-002    -5.8498450528077228E-010
   3.5100000000000020E-002    -9.6868080223799780E-010
   3.6200000000000010E-002    -1.1427704338373701E-009
   3.7300000000000028E-002    -8.3977480525021519E-010
   3.8400000000000017E-002     1.4790668689812492E-012
   3.9500000000000007E-002     1.0877692080413226E-009
   4.0600000000000025E-002     1.8584842553792669E-009
   4.1700000000000015E-002     1.7980175126552922E-009
   4.2800000000000005E-002     7.7916600949023973E-010
   4.3900000000000022E-002    -8.0882911479562836E-010
   4.5000000000000012E-002    -2.2526134291211974E-009
   4.6100000000000002E-002    -2.8963396125902818E-009
   4.7200000000000020E-002    -2.4381372476511842E-009
   4.8300000000000010E-002    -9.3734531247946506E-010
   4.9400000000000027E-002     1.4403699344356369E-009
   5.0500000000000017E-002     4.7094306232509098E-009
   5.1600000000000007E-002     9.1429743775961470E-009
   5.2700000000000025E-002     1.5094311578423003E-008
   5.3800000000000014E-002     2.2738676719313844E-008
   5.4900000000000004E-002     3.1987447357550991E-008
   5.6000000000000022E-002     4.2692221313700429E-008
   5.7100000000000012E-002     5.5026998069251931E-008
   5.8200000000000002E-002     6.9798126389741810E-008
   5.9300000000000019E-002     8.8483602667110972E-008
   6.0400000000000009E-002     1.1299177771206814E-007
   6.1500000000000027E-002     1.4530724001815543E-007
   6.2600000000000017E-002     1.8724227857092046E-007
   6.3700000000000007E-002     2.4042691393333371E-007
   6.4800000000000024E-002     3.0652796567665064E-007
   6.5900000000000014E-002     3.8757676179557166E-007
   6.7000000000000004E-002     4.8625429371895734E-007
   6.8100000000000022E-002     6.0603275642279186E-007
   6.9200000000000012E-002     7.5117930009582778E-007
   7.0300000000000029E-002     9.2673923290931270E-007
   7.1400000000000019E-002     1.1386694040993461E-006
   7.2500000000000009E-002     1.3942124041932402E-006
   7.3600000000000027E-002     1.7024124190356815E-006
   7.4700000000000016E-002     2.0745042093039956E-006
   7.5800000000000006E-002     2.5238971375074470E-006
   7.6900000000000024E-002     3.0657474781037308E-006
   7.8000000000000014E-002     3.7164541026868392E-006
   7.9100000000000004E-002     4.4935923142475076E-006
   8.0200000000000021E-002     5.4166025620361324E-006
   8.1300000000000011E-002     6.5080553213192616E-006
   8.2400000000000029E-002     7.7949162005097605E-006
   8.3500000000000019E-002     9.3092394308769144E-006
   8.4600000000000009E-002     1.1088163773820270E-005
   8.5700000000000026E-002     1.3173647857911419E-005
   8.6800000000000016E-002     1.5612533388775773E-005
   8.7900000000000006E-002     1.8457229089108296E-005
   8.9000000000000024E-002     2.1766683858004399E-005
   9.0100000000000013E-002     2.5607096176827326E-005
   9.1200000000000003E-002     3.0052005968173034E-005
   9.2300000000000021E-002     3.5181994462618604E-005
   9.3400000000000011E-002     4.1084585973294452E-005
   9.4500000000000028E-002     4.7854849981376901E-005
   9.5600000000000018E-002     5.5596607126062736E-005
   9.6700000000000008E-002     6.4423700678162277E-005
   9.7800000000000026E-002     7.4460731411818415E-005
   9.8900000000000016E-002     8.5842941189184785E-005
  0.10000000000000001          9.8715732747223228E-005
  0.10110000000000002          1.1323405487928540E-004
  0.10220000000000001          1.2956191494595259E-004
  0.10330000000000003          1.4787200780119747E-004
  0.10440000000000002          1.6834522830322385E-004
  0.10550000000000001          1.9116977637168020E-004
  0.10660000000000003          2.1654031297657639E-004
  0.10770000000000002          2.4465660681016743E-004
  0.10880000000000001          2.7572209364734590E-004
  0.10990000000000003          3.0994214466772974E-004
  0.11100000000000002          3.4752188366837800E-004
  0.11210000000000001          3.8866413524374366E-004
  0.11320000000000002          4.3356730020605028E-004
  0.11430000000000001          4.8242293996736407E-004
  0.11540000000000003          5.3541263332590461E-004
  0.11650000000000002          5.9270375641062856E-004
  0.11760000000000001          6.5444532083347440E-004
  0.11870000000000003          7.2076363721862435E-004
  0.11980000000000002          7.9175893915817142E-004
  0.12090000000000001          8.6750276386737823E-004
  0.12200000000000003          9.4803504180163145E-004
  0.12310000000000001          1.0333601385354996E-003
  0.12420000000000003          1.1234418489038944E-003
  0.12530000000000002          1.2181992642581463E-003
  0.12640000000000001          1.3175026979297400E-003
  0.12750000000000003          1.4211719390004873E-003
  0.12860000000000002          1.5289745060727000E-003
  0.12970000000000001          1.6406244831159711E-003
  0.13080000000000003          1.7557794926688075E-003
  0.13190000000000002          1.8740390660241246E-003
  0.13300000000000001          1.9949439447373152E-003
  0.13410000000000000          2.1179772447794676E-003
  0.13520000000000004          2.2425677161663771E-003
  0.13630000000000003          2.3680911399424076E-003
  0.13740000000000002          2.4938753340393305E-003
  0.13850000000000001          2.6192008517682552E-003
  0.13960000000000000          2.7433072682470083E-003
  0.14070000000000005          2.8653973713517189E-003
  0.14180000000000004          2.9846462421119213E-003
  0.14290000000000003          3.1002075411379337E-003
  0.14400000000000002          3.2112228218466043E-003
  0.14510000000000001          3.3168275840580463E-003
  0.14620000000000000          3.4161612857133150E-003
  0.14730000000000004          3.5083773545920849E-003
  0.14840000000000003          3.5926543641835451E-003
  0.14950000000000002          3.6682058125734329E-003
  0.15060000000000001          3.7342885043472052E-003
  0.15170000000000000          3.7902132607996464E-003
  0.15280000000000005          3.8353523705154657E-003
  0.15390000000000004          3.8691493682563305E-003
  0.15500000000000003          3.8911288138478994E-003
  0.15610000000000002          3.9009025786072016E-003
  0.15720000000000001          3.8981761317700148E-003
  0.15830000000000000          3.8827506359666586E-003
  0.15940000000000004          3.8545285351574421E-003
  0.16050000000000003          3.8135170470923185E-003
  0.16160000000000002          3.7598316557705402E-003
  0.16270000000000001          3.6936970427632332E-003
  0.16380000000000000          3.6154424306005239E-003
  0.16490000000000005          3.5254971589893103E-003
  0.16600000000000004          3.4243857953697443E-003
  0.16710000000000003          3.3127244096249342E-003
  0.16820000000000002          3.1912166159600019E-003
  0.16930000000000001          3.0606449581682682E-003
  0.17040000000000000          2.9218613635748625E-003
  0.17150000000000004          2.7757741045206785E-003
  0.17260000000000003          2.6233380194753408E-003
  0.17370000000000002          2.4655431043356657E-003
  0.17480000000000001          2.3034054320305586E-003
  0.17590000000000000          2.1379548124969006E-003
  0.17700000000000005          1.9702222198247910E-003
  0.17810000000000004          1.8012253567576408E-003
  0.17920000000000003          1.6319545684382319E-003
  0.18030000000000002          1.4633637620136142E-003
  0.18140000000000001          1.2963615590706468E-003
  0.18250000000000000          1.1318011675029993E-003
  0.18360000000000004          9.7046920564025640E-004
  0.18470000000000003          8.1307283835485578E-004
  0.18580000000000002          6.6023087128996849E-004
  0.18690000000000001          5.1246758084744215E-004
  0.18800000000000000          3.7020913441665471E-004
  0.18910000000000005          2.3377807519864291E-004
  0.19020000000000004          1.0338606080040336E-004
  0.19130000000000003         -2.0873943867627531E-005
  0.19240000000000002         -1.3903315993957222E-004
  0.19350000000000001         -2.5124920648522675E-004
  0.19460000000000005         -3.5780662437900901E-004
  0.19570000000000004         -4.5911909546703100E-004
  0.19680000000000003         -5.5573397548869252E-004
  0.19790000000000002         -6.4833776559680700E-004
  0.19900000000000001         -7.3775980854406953E-004
  0.20010000000000000         -8.2497287075966597E-004
  0.20120000000000005         -9.1109261848032475E-004
  0.20230000000000004         -9.9737977143377066E-004
  0.20340000000000003         -1.0852447012439370E-003
  0.20450000000000002         -1.1762535432353616E-003
  0.20560000000000000         -1.2721315724775195E-003
  0.20670000000000005         -1.3747629709541798E-003
  0.20780000000000004         -1.4861893141642213E-003
  0.20890000000000003         -1.6086085233837366E-003
