 -0.12000000000000000          0.0000000000000000
 -0.11889999999999999          0.0000000000000000
 -0.11780000000000000          0.0000000000000000
 -0.11670000000000000          2.1259796700867639E-010
 -0.11559999999999999          7.8417417004317258E-010
 -0.11449999999999999          1.0115694948353848E-009
 -0.11340000000000000         -6.0733307272187176E-010
 -0.11230000000000000         -4.5266106418750951E-009
 -0.11119999999999999         -8.0650179867802763E-009
 -0.11009999999999999         -6.2745857398738281E-009
 -0.10900000000000000          3.3560603185378568E-009
 -0.10790000000000000          1.6323504326010152E-008
 -0.10679999999999999          2.2413422229305979E-008
 -0.10569999999999999          1.3856826797109534E-008
 -0.10460000000000000         -6.3452496590343799E-009
 -0.10349999999999999         -2.4795001607458289E-008
 -0.10239999999999999         -2.8368317472882154E-008
 -0.10130000000000000         -1.6144618086855189E-008
 -0.10020000000000000         -6.7584660090602711E-010
  -9.9099999999999994E-002     3.9865568624009029E-009
  -9.7999999999999990E-002    -3.2710218977882732E-009
  -9.6899999999999986E-002    -8.2548483604227840E-009
  -9.5799999999999996E-002     5.1429931424706865E-009
  -9.4699999999999993E-002     3.7684440457042001E-008
  -9.3599999999999989E-002     7.0330081314295967E-008
  -9.2499999999999999E-002     7.7732089209803235E-008
  -9.1399999999999995E-002     4.7757971799455845E-008
  -9.0299999999999991E-002    -1.0804312999823651E-008
  -8.9200000000000002E-002    -7.9161353028212034E-008
  -8.8099999999999984E-002    -1.4769638312372990E-007
  -8.6999999999999994E-002    -2.2639959240677854E-007
  -8.5899999999999990E-002    -3.3909856256286730E-007
  -8.4799999999999986E-002    -5.0953235586348455E-007
  -8.3699999999999997E-002    -7.5336834015615750E-007
  -8.2599999999999993E-002    -1.0820049283211119E-006
  -8.1499999999999989E-002    -1.5110520052985521E-006
  -8.0399999999999999E-002    -2.0622733245545533E-006
  -7.9299999999999995E-002    -2.7561175102164270E-006
  -7.8199999999999992E-002    -3.6036401525052497E-006
  -7.7100000000000002E-002    -4.6096292862785049E-006
  -7.5999999999999984E-002    -5.7899492276192177E-006
  -7.4899999999999994E-002    -7.1933945946511813E-006
  -7.3799999999999991E-002    -8.9126833699992858E-006
  -7.2699999999999987E-002    -1.1075261681980919E-005
  -7.1599999999999997E-002    -1.3817923900205642E-005
  -7.0499999999999993E-002    -1.7261005268665031E-005
  -6.9399999999999989E-002    -2.1500425646081567E-005
  -6.8300000000000000E-002    -2.6626712497090921E-005
  -6.7199999999999996E-002    -3.2763506169430912E-005
  -6.6099999999999992E-002    -4.0103925130097196E-005
  -6.5000000000000002E-002    -4.8922483983915299E-005
  -6.3899999999999985E-002    -5.9556947235250846E-005
  -6.2799999999999995E-002    -7.2377602919004858E-005
  -6.1699999999999991E-002    -8.7772896222304553E-005
  -6.0599999999999994E-002    -1.0616720101097599E-004
  -5.9499999999999990E-002    -1.2805852747987956E-004
  -5.8399999999999994E-002    -1.5404564328491688E-004
  -5.7299999999999990E-002    -1.8482473387848586E-004
  -5.6199999999999986E-002    -2.2116788022685796E-004
  -5.5099999999999996E-002    -2.6391667779535055E-004
  -5.3999999999999992E-002    -3.1401379965245724E-004
  -5.2899999999999989E-002    -3.7255688221193850E-004
  -5.1799999999999985E-002    -4.4083505054004490E-004
  -5.0699999999999995E-002    -5.2031961968168616E-004
  -4.9599999999999991E-002    -6.1262457165867090E-004
  -4.8499999999999988E-002    -7.1947887772694230E-004
  -4.7399999999999998E-002    -8.4274396067485213E-004
  -4.6299999999999994E-002    -9.8446162883192301E-004
  -4.5199999999999990E-002    -1.1468918528407812E-003
  -4.4099999999999986E-002    -1.3325124746188521E-003
  -4.2999999999999997E-002    -1.5439953422173858E-003
  -4.1899999999999993E-002    -1.7841961234807968E-003
  -4.0799999999999989E-002    -2.0561721175909042E-003
  -3.9699999999999985E-002    -2.3632037919014692E-003
  -3.8599999999999995E-002    -2.7087735943496227E-003
  -3.7499999999999992E-002    -3.0965090263634920E-003
  -3.6399999999999988E-002    -3.5301228053867817E-003
  -3.5299999999999984E-002    -4.0134014561772346E-003
  -3.4199999999999994E-002    -4.5502241700887680E-003
  -3.3099999999999991E-002    -5.1445621065795422E-003
  -3.1999999999999987E-002    -5.8003989979624748E-003
  -3.0899999999999997E-002    -6.5216040238738060E-003
  -2.9799999999999993E-002    -7.3118312284350395E-003
  -2.8699999999999989E-002    -8.1745050847530365E-003
  -2.7599999999999986E-002    -9.1128451749682426E-003
  -2.6499999999999996E-002    -1.0129841975867748E-002
  -2.5399999999999992E-002    -1.1228090152144432E-002
  -2.4299999999999988E-002    -1.2409550137817860E-002
  -2.3199999999999985E-002    -1.3675368390977383E-002
  -2.2099999999999995E-002    -1.5025836415588856E-002
  -2.0999999999999991E-002    -1.6460452228784561E-002
  -1.9899999999999987E-002    -1.7977908253669739E-002
  -1.8799999999999983E-002    -1.9575927406549454E-002
  -1.7699999999999994E-002    -2.1250998601317406E-002
  -1.6599999999999990E-002    -2.2998180240392685E-002
  -1.5499999999999986E-002    -2.4811066687107086E-002
  -1.4399999999999996E-002    -2.6681907474994659E-002
  -1.3299999999999992E-002    -2.8601650148630142E-002
  -1.2199999999999989E-002    -3.0559830367565155E-002
  -1.1099999999999985E-002    -3.2544333487749100E-002
  -9.9999999999999950E-003    -3.4541312605142593E-002
  -8.8999999999999913E-003    -3.6535244435071945E-002
  -7.7999999999999875E-003    -3.8509156554937363E-002
  -6.6999999999999837E-003    -4.0444832295179367E-002
  -5.5999999999999939E-003    -4.2322833091020584E-002
  -4.4999999999999901E-003    -4.4122450053691864E-002
  -3.3999999999999864E-003    -4.5821789652109146E-002
  -2.2999999999999826E-003    -4.7398068010807037E-002
  -1.1999999999999927E-003    -4.8827983438968658E-002
  -9.9999999999988987E-005    -5.0088014453649521E-002
   1.0000000000000148E-003    -5.1154583692550659E-002
   2.1000000000000185E-003    -5.2004184573888779E-002
   3.2000000000000084E-003    -5.2613660693168640E-002
   4.3000000000000121E-003    -5.2960660308599472E-002
   5.4000000000000159E-003    -5.3024150431156158E-002
   6.5000000000000058E-003    -5.2784778177738190E-002
   7.6000000000000234E-003    -5.2225027233362198E-002
   8.7000000000000133E-003    -5.1329411566257477E-002
   9.8000000000000032E-003    -5.0084836781024933E-002
   1.0900000000000021E-002    -4.8481125384569168E-002
   1.2000000000000011E-002    -4.6511445194482803E-002
   1.3100000000000001E-002    -4.4172514230012894E-002
   1.4200000000000018E-002    -4.1464533656835556E-002
   1.5300000000000008E-002    -3.8391176611185074E-002
   1.6400000000000026E-002    -3.4959796816110611E-002
   1.7500000000000016E-002    -3.1181754544377327E-002
   1.8600000000000005E-002    -2.7072655037045479E-002
   1.9700000000000023E-002    -2.2652244195342064E-002
   2.0800000000000013E-002    -1.7943991348147392E-002
   2.1900000000000003E-002    -1.2974712997674942E-002
   2.3000000000000020E-002    -7.7744331210851669E-003
   2.4100000000000010E-002    -2.3764600045979023E-003
   2.5200000000000000E-002     3.1827061902731657E-003
   2.6300000000000018E-002     8.8638570159673691E-003
   2.7400000000000008E-002     1.4625836163759232E-002
   2.8500000000000025E-002     2.0426232367753983E-002
   2.9600000000000015E-002     2.6221761479973793E-002
   3.0700000000000005E-002     3.1968422234058380E-002
   3.1800000000000023E-002     3.7621803581714630E-002
   3.2900000000000013E-002     4.3137714266777039E-002
   3.4000000000000002E-002     4.8473037779331207E-002
   3.5100000000000020E-002     5.3586456924676895E-002
   3.6200000000000010E-002     5.8438792824745178E-002
   3.7300000000000028E-002     6.2993183732032776E-002
   3.8400000000000017E-002     6.7215323448181152E-002
   3.9500000000000007E-002     7.1074023842811584E-002
   4.0600000000000025E-002     7.4541859328746796E-002
   4.1700000000000015E-002     7.7595606446266174E-002
   4.2800000000000005E-002     8.0216251313686371E-002
   4.3900000000000022E-002     8.2388907670974731E-002
   4.5000000000000012E-002     8.4102876484394073E-002
   4.6100000000000002E-002     8.5351891815662384E-002
   4.7200000000000020E-002     8.6134411394596100E-002
   4.8300000000000010E-002     8.6453542113304138E-002
   4.9400000000000027E-002     8.6316600441932678E-002
   5.0500000000000017E-002     8.5734695196151733E-002
   5.1600000000000007E-002     8.4722504019737244E-002
   5.2700000000000025E-002     8.3298355340957642E-002
   5.3800000000000014E-002     8.1484191119670868E-002
   5.4900000000000004E-002     7.9305112361907959E-002
   5.6000000000000022E-002     7.6788626611232758E-002
   5.7100000000000012E-002     7.3963999748229980E-002
   5.8200000000000002E-002     7.0861950516700745E-002
   5.9300000000000019E-002     6.7514687776565552E-002
   6.0400000000000009E-002     6.3955768942832947E-002
   6.1500000000000027E-002     6.0219492763280869E-002
   6.2600000000000017E-002     5.6340068578720093E-002
   6.3700000000000007E-002     5.2350927144289017E-002
   6.4800000000000024E-002     4.8284605145454407E-002
   6.5900000000000014E-002     4.4172886759042740E-002
   6.7000000000000004E-002     4.0046785026788712E-002
   6.8100000000000022E-002     3.5936050117015839E-002
   6.9200000000000012E-002     3.1868450343608856E-002
   7.0300000000000029E-002     2.7869326993823051E-002
   7.1400000000000019E-002     2.3961691185832024E-002
   7.2500000000000009E-002     2.0166587084531784E-002
   7.3600000000000027E-002     1.6503242775797844E-002
   7.4700000000000016E-002     1.2988732196390629E-002
   7.5800000000000006E-002     9.6374722197651863E-003
   7.6900000000000024E-002     6.4610335975885391E-003
   7.8000000000000014E-002     3.4684771671891212E-003
   7.9100000000000004E-002     6.6689582308754325E-004
   8.0200000000000021E-002    -1.9383385078981519E-003
   8.1300000000000011E-002    -4.3437960557639599E-003
   8.2400000000000029E-002    -6.5483101643621922E-003
   8.3500000000000019E-002    -8.5529331117868423E-003
   8.4600000000000009E-002    -1.0360416024923325E-002
   8.5700000000000026E-002    -1.1974619701504707E-002
   8.6800000000000016E-002    -1.3400320895016193E-002
   8.7900000000000006E-002    -1.4643466100096703E-002
   8.9000000000000024E-002    -1.5711426734924316E-002
   9.0100000000000013E-002    -1.6612807288765907E-002
   9.1200000000000003E-002    -1.7356839030981064E-002
   9.2300000000000021E-002    -1.7952825874090195E-002
   9.3400000000000011E-002    -1.8410088494420052E-002
   9.4500000000000028E-002    -1.8738325685262680E-002
   9.5600000000000018E-002    -1.8947867676615715E-002
   9.6700000000000008E-002    -1.9049394875764847E-002
   9.7800000000000026E-002    -1.9053310155868530E-002
   9.8900000000000016E-002    -1.8969267606735229E-002
  0.10000000000000001         -1.8806312233209610E-002
  0.10110000000000002         -1.8573388457298279E-002
  0.10220000000000001         -1.8279630690813065E-002
  0.10330000000000003         -1.7934070900082588E-002
  0.10440000000000002         -1.7544982954859734E-002
  0.10550000000000001         -1.7119521275162697E-002
  0.10660000000000003         -1.6663996502757072E-002
  0.10770000000000002         -1.6184486448764801E-002
  0.10880000000000001         -1.5687139704823494E-002
  0.10990000000000003         -1.5177848748862743E-002
  0.11100000000000002         -1.4661630615592003E-002
  0.11210000000000001         -1.4142374508082867E-002
  0.11320000000000002         -1.3623224571347237E-002
  0.11430000000000001         -1.3107226230204105E-002
  0.11540000000000003         -1.2597585096955299E-002
  0.11650000000000002         -1.2097292579710484E-002
  0.11760000000000001         -1.1608552187681198E-002
  0.11870000000000003         -1.1132626794278622E-002
  0.11980000000000002         -1.0670303367078304E-002
  0.12090000000000001         -1.0222508572041988E-002
  0.12200000000000003         -9.7904605790972710E-003
  0.12310000000000001         -9.3752415850758553E-003
  0.12420000000000003         -8.9772613719105721E-003
  0.12530000000000002         -8.5962200537323952E-003
  0.12640000000000001         -8.2316203042864799E-003
  0.12750000000000003         -7.8833224251866341E-003
  0.12860000000000002         -7.5515629723668098E-003
  0.12970000000000001         -7.2364518418908119E-003
  0.13080000000000003         -6.9374917075037956E-003
  0.13190000000000002         -6.6536604426801205E-003
  0.13300000000000001         -6.3839801587164402E-003
  0.13410000000000000         -6.1279898509383202E-003
  0.13520000000000004         -5.8856271207332611E-003
  0.13630000000000003         -5.6566549465060234E-003
  0.13740000000000002         -5.4402444511651993E-003
  0.13850000000000001         -5.2351672202348709E-003
  0.13960000000000000         -5.0404081121087074E-003
  0.14070000000000005         -4.8555573448538780E-003
  0.14180000000000004         -4.6805744059383869E-003
  0.14290000000000003         -4.5151752419769764E-003
  0.14400000000000002         -4.3584872037172318E-003
  0.14510000000000001         -4.2093442752957344E-003
  0.14620000000000000         -4.0669143199920654E-003
  0.14730000000000004         -3.9310040883719921E-003
  0.14840000000000003         -3.8017246406525373E-003
  0.14950000000000002         -3.6788759753108025E-003
  0.15060000000000001         -3.5616967361420393E-003
  0.15170000000000000         -3.4492455888539553E-003
  0.15280000000000005         -3.3410072792321444E-003
  0.15390000000000004         -3.2370851840823889E-003
  0.15500000000000003         -3.1377777922898531E-003
  0.15610000000000002         -3.0429835896939039E-003
  0.15720000000000001         -2.9520592652261257E-003
  0.15830000000000000         -2.8642765246331692E-003
  0.15940000000000004         -2.7793929912149906E-003
  0.16050000000000003         -2.6977304369211197E-003
  0.16160000000000002         -2.6196781545877457E-003
  0.16270000000000001         -2.5451432447880507E-003
  0.16380000000000000         -2.4735282640904188E-003
  0.16490000000000005         -2.4042534641921520E-003
  0.16600000000000004         -2.3372715804725885E-003
  0.16710000000000003         -2.2730294149369001E-003
  0.16820000000000002         -2.2119120694696903E-003
  0.16930000000000001         -2.1537553984671831E-003
  0.17040000000000000         -2.0979361142963171E-003
  0.17150000000000004         -2.0439426880329847E-003
  0.17260000000000003         -1.9918258767575026E-003
  0.17370000000000002         -1.9420540193095803E-003
  0.17480000000000001         -1.8949250224977732E-003
  0.17590000000000000         -1.8501568119972944E-003
  0.17700000000000005         -1.8070859368890524E-003
  0.17810000000000004         -1.7652686219662428E-003
  0.17920000000000003         -1.7248557414859533E-003
  0.18030000000000002         -1.6863534692674875E-003
  0.18140000000000001         -1.6500215278938413E-003
  0.18250000000000000         -1.6155377961695194E-003
  0.18360000000000004         -1.5822723507881165E-003
  0.18470000000000003         -1.5498779248446226E-003
  0.18580000000000002         -1.5185752417892218E-003
  0.18690000000000001         -1.4888409059494734E-003
  0.18800000000000000         -1.4608304481953382E-003
  0.18910000000000005         -1.4341411879286170E-003
  0.19020000000000004         -1.4081594999879599E-003
  0.19130000000000003         -1.3826203066855669E-003
  0.19240000000000002         -1.3577963691204786E-003
  0.19350000000000001         -1.3341258745640516E-003
  0.19460000000000005         -1.3116770423948765E-003
  0.19570000000000004         -1.2900091242045164E-003
  0.19680000000000003         -1.2685637921094894E-003
  0.19790000000000002         -1.2471661902964115E-003
  0.19900000000000001         -1.2261068914085627E-003
  0.20010000000000000         -1.2057295534759760E-003
  0.20120000000000005         -1.1859666556119919E-003
  0.20230000000000004         -1.1663155164569616E-003
  0.20340000000000003         -1.1462769471108913E-003
  0.20450000000000002         -1.1257929727435112E-003
  0.20560000000000000         -1.1052299523726106E-003
  0.20670000000000005         -1.0849356185644865E-003
  0.20780000000000004         -1.0648426832631230E-003
  0.20890000000000003         -1.0445342632010579E-003
