 -0.12000000000000000          0.0000000000000000
 -0.11889999999999999          0.0000000000000000
 -0.11780000000000000          0.0000000000000000
 -0.11670000000000000          0.0000000000000000
 -0.11559999999999999          0.0000000000000000
 -0.11449999999999999          0.0000000000000000
 -0.11340000000000000          0.0000000000000000
 -0.11230000000000000          0.0000000000000000
 -0.11119999999999999          0.0000000000000000
 -0.11009999999999999          0.0000000000000000
 -0.10900000000000000          0.0000000000000000
 -0.10790000000000000          1.9595432523687732E-030
 -0.10679999999999999         -4.4594181876975378E-030
 -0.10569999999999999         -3.0723210863374017E-029
 -0.10460000000000000          6.4258791020694877E-029
 -0.10349999999999999          2.9027127417081031E-028
 -0.10239999999999999         -4.6664724032818852E-028
 -0.10130000000000000         -2.0752632781941167E-027
 -0.10020000000000000          2.0507569752097557E-027
  -9.9099999999999994E-002     1.1726666186259155E-026
  -9.7999999999999990E-002    -4.6992101308485572E-027
  -9.6899999999999986E-002    -5.2944288720343411E-026
  -9.5799999999999996E-002    -4.7411025738128795E-027
  -9.4699999999999993E-002     1.9614042797379261E-025
  -9.3599999999999989E-002     9.7820003331497338E-026
  -9.2499999999999999E-002    -6.3135752853026350E-025
  -9.1399999999999995E-002    -5.6938229853719173E-025
  -9.0299999999999991E-002     1.8606507184040656E-024
  -8.9200000000000002E-002     2.6774718123345046E-024
  -8.8099999999999984E-002    -4.7387919817325597E-024
  -8.6999999999999994E-002    -1.1244349978956117E-023
  -8.5899999999999990E-002     7.5621799873514738E-024
  -8.4799999999999986E-002     3.8791121142645083E-023
  -8.3699999999999997E-002     7.0800037473923295E-024
  -8.2599999999999993E-002    -9.9121679094679179E-023
  -8.1499999999999989E-002    -9.3908772637008382E-023
  -8.0399999999999999E-002     1.6725507167497690E-022
  -7.9299999999999995E-002     3.3376212650696152E-022
  -7.8199999999999992E-002    -1.3471329715716181E-022
  -7.7100000000000002E-002    -7.7046179114667556E-022
  -7.5999999999999984E-002    -1.3724235997575141E-022
  -7.4899999999999994E-002     1.5122246963436659E-021
  -7.3799999999999991E-002     9.2446399961393947E-022
  -7.2699999999999987E-002    -3.0605327235292568E-021
  -7.1599999999999997E-002    -3.8644614021545182E-021
  -7.0499999999999993E-002     5.0086840260690691E-021
  -6.9399999999999989E-002     1.3157958772706743E-020
  -6.8300000000000000E-002    -6.3024952763494809E-022
  -6.7199999999999996E-002    -2.9442954297722300E-020
  -6.6099999999999992E-002    -2.4788622248388087E-020
  -6.5000000000000002E-002     3.5229496272837005E-020
  -6.3899999999999985E-002     7.4170816910489404E-020
  -6.2799999999999995E-002    -1.9730610308153441E-021
  -6.1699999999999991E-002    -1.1983148399144917E-019
  -6.0599999999999994E-002    -6.7403800953209402E-020
  -5.9499999999999990E-002     1.5570118897783381E-019
  -5.8399999999999994E-002     1.7527953302589535E-019
  -5.7299999999999990E-002    -2.2764542954978653E-019
  -5.6199999999999986E-002    -4.9464475222360761E-019
  -5.5099999999999996E-002     1.4486326179701090E-019
  -5.3999999999999992E-002     1.1741691276413391E-018
  -5.2899999999999989E-002     7.8316566007483337E-019
  -5.1799999999999985E-002    -1.4747749374468114E-018
  -5.0699999999999995E-002    -2.7674036700336805E-018
  -4.9599999999999991E-002    -1.2248502769773100E-019
  -4.8499999999999988E-002     4.1183267155193054E-018
  -4.7399999999999998E-002     3.5007044529407680E-018
  -4.6299999999999994E-002    -3.0220295081170506E-018
  -4.5199999999999990E-002    -6.4422199225446633E-018
  -4.4099999999999986E-002     6.6808746607584361E-019
  -4.2999999999999997E-002     9.3955549759213289E-018
  -4.1899999999999993E-002     2.9376182081478517E-018
  -4.0799999999999989E-002    -1.5047738831319658E-017
  -3.9699999999999985E-002    -1.5277898528040088E-017
  -3.8599999999999995E-002     1.5952793535460878E-017
  -3.7499999999999992E-002     4.0582208770790584E-017
  -3.6399999999999988E-002     8.1812050330373436E-018
  -3.5299999999999984E-002    -5.9322614205444967E-017
  -3.4199999999999994E-002    -6.6171113812012400E-017
  -3.3099999999999991E-002     3.0271442139986497E-017
  -3.1999999999999987E-002     1.2269113422300930E-016
  -3.0899999999999997E-002     6.5905648392386982E-017
  -2.9799999999999993E-002    -1.0320134285805128E-016
  -2.8699999999999989E-002    -1.6215386983999512E-016
  -2.7599999999999986E-002    -6.8428753987875323E-019
  -2.6499999999999996E-002     1.6911662625021328E-016
  -2.5399999999999992E-002     7.0322012004921900E-017
  -2.4299999999999988E-002    -1.8748461512076159E-016
  -2.3199999999999985E-002    -1.6164578242054055E-016
  -2.2099999999999995E-002     2.7199191436313086E-016
  -2.0999999999999991E-002     5.5430608985885784E-016
  -1.9899999999999987E-002     9.0503438858537561E-017
  -1.8799999999999983E-002    -7.8513860867209331E-016
  -1.7699999999999994E-002    -9.7992013470076487E-016
  -1.6599999999999990E-002    -4.5197036173334125E-017
  -1.5499999999999986E-002     1.0112073083108522E-015
  -1.4399999999999996E-002     8.9486129789572485E-016
  -1.3299999999999992E-002    -1.5427773397995101E-016
  -1.2199999999999989E-002    -5.3295905964303655E-016
  -1.1099999999999985E-002     4.2855144922386654E-016
  -9.9999999999999950E-003     1.1796141871257154E-015
  -8.8999999999999913E-003    -8.5306554237442507E-017
  -7.7999999999999875E-003    -2.5300340503729181E-015
  -6.6999999999999837E-003    -3.1040369385081090E-015
  -5.5999999999999939E-003    -3.7265812731471942E-016
  -4.4999999999999901E-003     3.1979059767557778E-015
  -3.3999999999999864E-003     3.9515459182787663E-015
  -2.2999999999999826E-003     1.4800024575290730E-015
  -1.1999999999999927E-003    -1.1470930982697154E-015
  -9.9999999999988987E-005    -1.6260526428549878E-015
   1.0000000000000148E-003    -1.1434734088487425E-015
   2.1000000000000185E-003    -1.7974606652810914E-015
   3.2000000000000084E-003    -2.7310425920528889E-015
   4.3000000000000121E-003    -1.0012893995314516E-015
   5.4000000000000159E-003     3.7816095097193986E-015
   6.5000000000000058E-003     7.7397889665245870E-015
   7.6000000000000234E-003     6.4906216218471504E-015
   8.7000000000000133E-003    -5.3485138418676186E-016
   9.8000000000000032E-003    -1.0282010126942600E-014
   1.0900000000000021E-002    -1.8453564820967647E-014
   1.2000000000000011E-002    -2.0097842118836640E-014
   1.3100000000000001E-002    -9.9513809803772509E-015
   1.4200000000000018E-002     1.2976794626655321E-014
   1.5300000000000008E-002     3.9885290708217835E-014
   1.6400000000000026E-002     5.4849140772869967E-014
   1.7500000000000016E-002     4.6524097779571810E-014
   1.8600000000000005E-002     1.6281816389920878E-014
   1.9700000000000023E-002    -2.6351225482267385E-014
   2.0800000000000013E-002    -7.2508378424693265E-014
   2.1900000000000003E-002    -1.1171301378528828E-013
   2.3000000000000020E-002    -1.2293132820289515E-013
   2.4100000000000010E-002    -8.0424118157219199E-014
   2.5200000000000000E-002     1.9550941743914745E-014
   2.6300000000000018E-002     1.3898317175950470E-013
   2.7400000000000008E-002     2.1456832621433164E-013
   2.8500000000000025E-002     2.0287825510268559E-013
   2.9600000000000015E-002     1.0849712106389756E-013
   3.0700000000000005E-002    -2.6235722375513894E-014
   3.1800000000000023E-002    -1.4885538819359861E-013
   3.2900000000000013E-002    -2.1301915038764857E-013
   3.4000000000000002E-002    -1.7899990842860924E-013
   3.5100000000000020E-002    -3.2877024805930480E-014
   3.6200000000000010E-002     1.7985829839362033E-013
   3.7300000000000028E-002     3.4089118789056017E-013
   3.8400000000000017E-002     3.1478536140563951E-013
   3.9500000000000007E-002     1.7509353477740755E-014
   4.0600000000000025E-002    -5.1333405842041158E-013
   4.1700000000000015E-002    -1.1335975561022060E-012
   4.2800000000000005E-002    -1.6208072210754931E-012
   4.3900000000000022E-002    -1.7743981197554382E-012
   4.5000000000000012E-002    -1.4495658362881358E-012
   4.6100000000000002E-002    -6.9455785524016878E-013
   4.7200000000000020E-002     2.1139955562986257E-013
   4.8300000000000010E-002     8.6456211113861148E-013
   4.9400000000000027E-002     8.6290019183851707E-013
   5.0500000000000017E-002    -5.0344568737394763E-014
   5.1600000000000007E-002    -1.7989946555010961E-012
   5.2700000000000025E-002    -3.9578965105313557E-012
   5.3800000000000014E-002    -5.8454838192112391E-012
   5.4900000000000004E-002    -6.8885604685708923E-012
   5.6000000000000022E-002    -6.5758024025974748E-012
   5.7100000000000012E-002    -5.5333333401352824E-012
   5.8200000000000002E-002    -4.1710146621298794E-012
   5.9300000000000019E-002    -3.3779769346292676E-012
   6.0400000000000009E-002    -4.1592168077697611E-012
   6.1500000000000027E-002    -7.2953960580934840E-012
   6.2600000000000017E-002    -1.2160344779743593E-011
   6.3700000000000007E-002    -1.9178313451218010E-011
   6.4800000000000024E-002    -2.6845355799443027E-011
   6.5900000000000014E-002    -3.2212600642456124E-011
   6.7000000000000004E-002    -3.3895199147426780E-011
   6.8100000000000022E-002    -3.2371331309954954E-011
   6.9200000000000012E-002    -2.8493773313043036E-011
   7.0300000000000029E-002    -2.9230749765130071E-011
   7.1400000000000019E-002    -3.4418669303537541E-011
   7.2500000000000009E-002    -4.3821769130092392E-011
   7.3600000000000027E-002    -5.9998062074129166E-011
   7.4700000000000016E-002    -8.1154152842266569E-011
   7.5800000000000006E-002    -9.9644181794644737E-011
   7.6900000000000024E-002    -1.2077273903177144E-010
   7.8000000000000014E-002    -1.3390995257100968E-010
   7.9100000000000004E-002    -1.3576054169739393E-010
   8.0200000000000021E-002    -1.3197416770527326E-010
   8.1300000000000011E-002    -1.2977298402550019E-010
   8.2400000000000029E-002    -1.3128065301515335E-010
   8.3500000000000019E-002    -1.5234837003053059E-010
   8.4600000000000009E-002    -1.9909762727365887E-010
   8.5700000000000026E-002    -2.5510427104080691E-010
   8.6800000000000016E-002    -2.9130858836268203E-010
   8.7900000000000006E-002    -3.0011848561883880E-010
   8.9000000000000024E-002    -3.2290764506726077E-010
   9.0100000000000013E-002    -3.6248998247501163E-010
   9.1200000000000003E-002    -3.7768360661161182E-010
   9.2300000000000021E-002    -3.8826625248233881E-010
   9.3400000000000011E-002    -3.6849692741647289E-010
   9.4500000000000028E-002    -3.8751787889701461E-010
   9.5600000000000018E-002    -3.6920733137435491E-010
   9.6700000000000008E-002    -3.3718641767599422E-010
   9.7800000000000026E-002    -4.4266257326341929E-010
   9.8900000000000016E-002    -5.0411741447931036E-010
  0.10000000000000001         -5.7470550540728027E-010
  0.10110000000000002         -5.2468684952344802E-010
  0.10220000000000001         -5.2410448203588089E-010
  0.10330000000000003         -5.2002152584051942E-010
  0.10440000000000002         -5.2945758888256478E-010
  0.10550000000000001         -4.4249148789532455E-010
  0.10660000000000003         -3.9629888259895552E-010
  0.10770000000000002         -2.4976720691682885E-010
  0.10880000000000001         -2.4781082741398563E-010
  0.10990000000000003         -1.9664818384779181E-010
  0.11100000000000002         -2.8082555725283953E-010
  0.11210000000000001         -1.0862375582343375E-010
  0.11320000000000002          1.4369959389082254E-010
  0.11430000000000001         -2.3533612125009595E-012
  0.11540000000000003          2.8763813553212003E-010
  0.11650000000000002          4.9019133196992470E-010
  0.11760000000000001          3.5048500213186173E-010
  0.11870000000000003          5.7266924535781527E-010
  0.11980000000000002          1.1667962152017708E-009
  0.12090000000000001          1.3466809889450815E-009
  0.12200000000000003          1.5773986561384845E-009
  0.12310000000000001          1.5476603332231775E-009
  0.12420000000000003          1.0330870603425524E-009
  0.12530000000000002          1.3315063496222024E-009
  0.12640000000000001          9.5008201306256979E-010
  0.12750000000000003          1.7914629779625102E-009
  0.12860000000000002          2.3506550039797958E-009
  0.12970000000000001          1.8702384085855783E-009
  0.13080000000000003          1.9474093448934582E-009
  0.13190000000000002          2.1787249782079243E-009
  0.13300000000000001          2.2743016359072499E-009
  0.13410000000000000          2.4425241829106881E-009
  0.13520000000000004          2.5191544406055755E-009
  0.13630000000000003          1.9042700749594133E-009
  0.13740000000000002          1.4859451447080119E-009
  0.13850000000000001          1.6448241657585072E-009
  0.13960000000000000          1.9933275030581399E-009
  0.14070000000000005          1.7038473965058643E-009
  0.14180000000000004          1.0238041525667541E-009
  0.14290000000000003          8.7423629446803375E-010
  0.14400000000000002          6.0086235986744896E-010
  0.14510000000000001          1.0603087297056391E-009
  0.14620000000000000          7.2605155221339146E-010
  0.14730000000000004          4.8132237084885787E-010
  0.14840000000000003         -5.2886178769639969E-010
  0.14950000000000002         -1.6567913707632442E-009
  0.15060000000000001         -1.8364855192132268E-009
  0.15170000000000000         -1.5735892588963907E-009
  0.15280000000000005         -1.4910049861427410E-009
  0.15390000000000004         -1.6503640676290843E-009
  0.15500000000000003         -2.2529078602673280E-009
  0.15610000000000002         -3.1006801570754305E-009
  0.15720000000000001         -3.3044209590826767E-009
  0.15830000000000000         -2.8248949845988136E-009
  0.15940000000000004         -2.2867476801025077E-009
  0.16050000000000003         -2.6345783332715200E-009
  0.16160000000000002         -3.7678389297468584E-009
  0.16270000000000001         -4.6745203263753865E-009
  0.16380000000000000         -4.5099772805201610E-009
  0.16490000000000005         -3.7018570431257558E-009
  0.16600000000000004         -2.8640423366255163E-009
  0.16710000000000003         -2.0884192153403092E-009
  0.16820000000000002         -2.3229924650536304E-009
  0.16930000000000001         -3.3373794838809090E-009
  0.17040000000000000         -3.9945584617839813E-009
  0.17150000000000004         -3.2725306908787388E-009
  0.17260000000000003         -1.6532550883852082E-009
  0.17370000000000002         -4.9819037784004649E-010
  0.17480000000000001         -6.8982025647201795E-010
  0.17590000000000000         -1.3216769900736836E-009
  0.17700000000000005         -1.1765254326334684E-009
  0.17810000000000004         -1.3079066718546528E-009
  0.17920000000000003         -7.2336042711285131E-010
  0.18030000000000002          4.4784759234417493E-010
  0.18140000000000001          9.3582031013283995E-010
  0.18250000000000000          1.2216627709449313E-009
  0.18360000000000004          1.4167358397543239E-009
  0.18470000000000003          2.4284068089741595E-009
  0.18580000000000002          3.2031524099807029E-009
  0.18690000000000001          3.1320117610533771E-009
  0.18800000000000000          1.8832473358543211E-009
  0.18910000000000005          6.6302224821512823E-010
  0.19020000000000004         -1.5966040989301433E-010
  0.19130000000000003          9.5409247169442324E-010
  0.19240000000000002          2.6411133280390686E-009
  0.19350000000000001          3.3467097981798588E-009
  0.19460000000000005          3.8750767039630318E-009
  0.19570000000000004          2.8486013547990297E-009
  0.19680000000000003          1.3558414391212636E-009
  0.19790000000000002          1.0673902872682106E-009
  0.19900000000000001          1.6815225878374918E-009
  0.20010000000000000          2.3292967554766619E-009
  0.20120000000000005          2.2983817071775547E-009
  0.20230000000000004          1.0122660487610347E-009
  0.20340000000000003          1.5083670423798878E-010
  0.20450000000000002          1.6831348814694280E-011
  0.20560000000000000          7.7536899123487046E-010
  0.20670000000000005          1.6346330955485655E-009
  0.20780000000000004          1.6941288372152030E-009
  0.20890000000000003          7.4305406272401342E-010
