 -0.12000000000000000          0.0000000000000000
 -0.11889999999999999          0.0000000000000000
 -0.11780000000000000         -2.8803398555155013E-010
 -0.11670000000000000         -3.7413219744486526E-010
 -0.11559999999999999          3.5014199872840379E-010
 -0.11449999999999999          9.4073016043694224E-010
 -0.11340000000000000          9.4344004830659856E-011
 -0.11230000000000000         -1.0913597803252628E-009
 -0.11119999999999999         -5.3994958504333113E-010
 -0.11009999999999999          4.0800537948193494E-010
 -0.10900000000000000         -1.7057472101456028E-009
 -0.10790000000000000         -5.1608433082606098E-009
 -0.10679999999999999         -2.5409692128164352E-009
 -0.10569999999999999          7.8289570382139573E-009
 -0.10460000000000000          1.4875282339232854E-008
 -0.10349999999999999          7.4609012301607436E-009
 -0.10239999999999999         -7.8669240011208785E-009
 -0.10130000000000000         -1.2319269160343538E-008
 -0.10020000000000000         -5.1220849783817357E-010
  -9.9099999999999994E-002     1.0257104499089564E-008
  -9.7999999999999990E-002     3.9316976341297050E-009
  -9.6899999999999986E-002    -1.0295769570234370E-008
  -9.5799999999999996E-002    -1.0654827242717602E-008
  -9.4699999999999993E-002     4.9943960078735472E-009
  -9.3599999999999989E-002     1.5762271488029000E-008
  -9.2499999999999999E-002     8.8266656206315020E-009
  -9.1399999999999995E-002    -2.6693327548343859E-009
  -9.0299999999999991E-002    -2.5358068977965331E-009
  -8.9200000000000002E-002     1.5049547164025512E-009
  -8.8099999999999984E-002    -9.5547294520770265E-009
  -8.6999999999999994E-002    -3.3973915236629182E-008
  -8.5899999999999990E-002    -5.0857114075597565E-008
  -8.4799999999999986E-002    -5.4564850415772526E-008
  -8.3699999999999997E-002    -6.5483156674872589E-008
  -8.2599999999999993E-002    -9.6674341421021381E-008
  -8.1499999999999989E-002    -1.2998641807371314E-007
  -8.0399999999999999E-002    -1.4490642286091315E-007
  -7.9299999999999995E-002    -1.5748256032566132E-007
  -7.8199999999999992E-002    -2.0287137658669963E-007
  -7.7100000000000002E-002    -2.8165871412966226E-007
  -7.5999999999999984E-002    -3.5502640116646944E-007
  -7.4899999999999994E-002    -4.0535360312787816E-007
  -7.3799999999999991E-002    -4.7339014486169617E-007
  -7.2699999999999987E-002    -6.0896633158336044E-007
  -7.1599999999999997E-002    -8.0216420883516548E-007
  -7.0499999999999993E-002    -9.9893850347143598E-007
  -6.9399999999999989E-002    -1.1834122233267408E-006
  -6.8300000000000000E-002    -1.4076350680625183E-006
  -6.7199999999999996E-002    -1.7256284081668127E-006
  -6.6099999999999992E-002    -2.1305838799889898E-006
  -6.5000000000000002E-002    -2.5860933874355396E-006
  -6.3899999999999985E-002    -3.0978658287494909E-006
  -6.2799999999999995E-002    -3.7148834053368773E-006
  -6.1699999999999991E-002    -4.4658104343398008E-006
  -6.0599999999999994E-002    -5.3392113841255195E-006
  -5.9499999999999990E-002    -6.3407364905287977E-006
  -5.8399999999999994E-002    -7.5280327109794598E-006
  -5.7299999999999990E-002    -8.9556288003223017E-006
  -5.6199999999999986E-002    -1.0613592166919261E-005
  -5.5099999999999996E-002    -1.2469089597288985E-005
  -5.3999999999999992E-002    -1.4562010619556531E-005
  -5.2899999999999989E-002    -1.7006905181915499E-005
  -5.1799999999999985E-002    -1.9883864297298715E-005
  -5.0699999999999995E-002    -2.3173781301011331E-005
  -4.9599999999999991E-002    -2.6839208658202551E-005
  -4.8499999999999988E-002    -3.0936942494008690E-005
  -4.7399999999999998E-002    -3.5597320675151423E-005
  -4.6299999999999994E-002    -4.0901679312810302E-005
  -4.5199999999999990E-002    -4.6839279093546793E-005
  -4.4099999999999986E-002    -5.3402578487293795E-005
  -4.2999999999999997E-002    -6.0669895901810378E-005
  -4.1899999999999993E-002    -6.8749301135540009E-005
  -4.0799999999999989E-002    -7.7678938396275043E-005
  -3.9699999999999985E-002    -8.7439038907177746E-005
  -3.8599999999999995E-002    -9.8054588306695223E-005
  -3.7499999999999992E-002    -1.0961812949972227E-004
  -3.6399999999999988E-002    -1.2218955089338124E-004
  -3.5299999999999984E-002    -1.3573023898061365E-004
  -3.4199999999999994E-002    -1.5017796249594539E-004
  -3.3099999999999991E-002    -1.6554954345338047E-004
  -3.1999999999999987E-002    -1.8190105038229376E-004
  -3.0899999999999997E-002    -1.9920022168662399E-004
  -2.9799999999999993E-002    -2.1730444859713316E-004
  -2.8699999999999989E-002    -2.3608304036315531E-004
  -2.7599999999999986E-002    -2.5549545534886420E-004
  -2.6499999999999996E-002    -2.7549968217499554E-004
  -2.5399999999999992E-002    -2.9592090868391097E-004
  -2.4299999999999988E-002    -3.1648448202759027E-004
  -2.3199999999999985E-002    -3.3696304308250546E-004
  -2.2099999999999995E-002    -3.5721459425985813E-004
  -2.0999999999999991E-002    -3.7705618888139725E-004
  -1.9899999999999987E-002    -3.9616250433027744E-004
  -1.8799999999999983E-002    -4.1414241422899067E-004
  -1.7699999999999994E-002    -4.3067528167739511E-004
  -1.6599999999999990E-002    -4.4549690210260451E-004
  -1.5499999999999986E-002    -4.5828154543414712E-004
  -1.4399999999999996E-002    -4.6860022121109068E-004
  -1.3299999999999992E-002    -4.7602364793419838E-004
  -1.2199999999999989E-002    -4.8021972179412842E-004
  -1.1099999999999985E-002    -4.8088253242895007E-004
  -9.9999999999999950E-003    -4.7762415488250554E-004
  -8.8999999999999913E-003    -4.7001498751342297E-004
  -7.7999999999999875E-003    -4.5772135490551591E-004
  -6.6999999999999837E-003    -4.4053656165488064E-004
  -5.5999999999999939E-003    -4.1827061795629561E-004
  -4.4999999999999901E-003    -3.9066385943442583E-004
  -3.3999999999999864E-003    -3.5747891524806619E-004
  -2.2999999999999826E-003    -3.1863345066085458E-004
  -1.1999999999999927E-003    -2.7419862453825772E-004
  -9.9999999999988987E-005    -2.2426752548199147E-004
   1.0000000000000148E-003    -1.6890499682631344E-004
   2.1000000000000185E-003    -1.0825994831975549E-004
   3.2000000000000084E-003    -4.2664847569540143E-005
   4.3000000000000121E-003     2.7418544050306082E-005
   5.4000000000000159E-003     1.0152853792533278E-004
   6.5000000000000058E-003     1.7919660604093224E-004
   7.6000000000000234E-003     2.5982130318880081E-004
   8.7000000000000133E-003     3.4262950066477060E-004
   9.8000000000000032E-003     4.2678421596065164E-004
   1.0900000000000021E-002     5.1148806232959032E-004
   1.2000000000000011E-002     5.9594016056507826E-004
   1.3100000000000001E-002     6.7922868765890598E-004
   1.4200000000000018E-002     7.6034013181924820E-004
   1.5300000000000008E-002     8.3828374044969678E-004
   1.6400000000000026E-002     9.1215228894725442E-004
   1.7500000000000016E-002     9.8105915822088718E-004
   1.8600000000000005E-002     1.0440751211717725E-003
   1.9700000000000023E-002     1.1002920800819993E-003
   2.0800000000000013E-002     1.1489272583276033E-003
   2.1900000000000003E-002     1.1893308255821466E-003
   2.3000000000000020E-002     1.2208960251882672E-003
   2.4100000000000010E-002     1.2430401984602213E-003
   2.5200000000000000E-002     1.2553002452477813E-003
   2.6300000000000018E-002     1.2574172578752041E-003
   2.7400000000000008E-002     1.2493033427745104E-003
   2.8500000000000025E-002     1.2309395242482424E-003
   2.9600000000000015E-002     1.2023748131468892E-003
   3.0700000000000005E-002     1.1637993156909943E-003
   3.1800000000000023E-002     1.1156087275594473E-003
   3.2900000000000013E-002     1.0583390248939395E-003
   3.4000000000000002E-002     9.9260127171874046E-004
   3.5100000000000020E-002     9.1908551985397935E-004
   3.6200000000000010E-002     8.3860743325203657E-004
   3.7300000000000028E-002     7.5210328213870525E-004
   3.8400000000000017E-002     6.6056114155799150E-004
   3.9500000000000007E-002     5.6497927289456129E-004
   4.0600000000000025E-002     4.6639295760542154E-004
   4.1700000000000015E-002     3.6591704702004790E-004
   4.2800000000000005E-002     2.6468854048289359E-004
   4.3900000000000022E-002     1.6379906446672976E-004
   4.5000000000000012E-002     6.4266918343491852E-005
   4.6100000000000002E-002    -3.2914460462052375E-005
   4.7200000000000020E-002    -1.2678571511059999E-004
   4.8300000000000010E-002    -2.1644980006385595E-004
   4.9400000000000027E-002    -3.0109754879958928E-004
   5.0500000000000017E-002    -3.8002265500836074E-004
   5.1600000000000007E-002    -4.5261296327225864E-004
   5.2700000000000025E-002    -5.1836861530318856E-004
   5.3800000000000014E-002    -5.7690439280122519E-004
   5.4900000000000004E-002    -6.2794249970465899E-004
   5.6000000000000022E-002    -6.7130237584933639E-004
   5.7100000000000012E-002    -7.0690084248781204E-004
   5.8200000000000002E-002    -7.3475937824696302E-004
   5.9300000000000019E-002    -7.5500877574086189E-004
   6.0400000000000009E-002    -7.6787441503256559E-004
   6.1500000000000027E-002    -7.7366916229948401E-004
   6.2600000000000017E-002    -7.7278254320845008E-004
   6.3700000000000007E-002    -7.6565064955502748E-004
   6.4800000000000024E-002    -7.5273588299751282E-004
   6.5900000000000014E-002    -7.3454069206491113E-004
   6.7000000000000004E-002    -7.1163341635838151E-004
   6.8100000000000022E-002    -6.8463495699688792E-004
   6.9200000000000012E-002    -6.5415690187364817E-004
   7.0300000000000029E-002    -6.2076241010800004E-004
   7.1400000000000019E-002    -5.8499397709965706E-004
   7.2500000000000009E-002    -5.4741947678849101E-004
   7.3600000000000027E-002    -5.0861894851550460E-004
   7.4700000000000016E-002    -4.6911693061701953E-004
   7.5800000000000006E-002    -4.2936019599437714E-004
   7.6900000000000024E-002    -3.8976548239588737E-004
   7.8000000000000014E-002    -3.5075491177849472E-004
   7.9100000000000004E-002    -3.1271259649656713E-004
   8.0200000000000021E-002    -2.7592538390308619E-004
   8.1300000000000011E-002    -2.4060459691099823E-004
   8.2400000000000029E-002    -2.0696468709502369E-004
   8.3500000000000019E-002    -1.7523369751870632E-004
   8.4600000000000009E-002    -1.4557615213561803E-004
   8.5700000000000026E-002    -1.1804133100667968E-004
   8.6800000000000016E-002    -9.2625050456263125E-005
   8.7900000000000006E-002    -6.9363501097541302E-005
   8.9000000000000024E-002    -4.8314461309928447E-005
   9.0100000000000013E-002    -2.9456710763042793E-005
   9.1200000000000003E-002    -1.2665885151363909E-005
   9.2300000000000021E-002     2.1757482500106562E-006
   9.3400000000000011E-002     1.5109574633243028E-005
   9.4500000000000028E-002     2.6168856493313797E-005
   9.5600000000000018E-002     3.5492757888277993E-005
   9.6700000000000008E-002     4.3292991904309019E-005
   9.7800000000000026E-002     4.9720456445356831E-005
   9.8900000000000016E-002     5.4820884543005377E-005
  0.10000000000000001          5.8653775340644643E-005
  0.10110000000000002          6.1390506743919104E-005
  0.10220000000000001          6.3241313910111785E-005
  0.10330000000000003          6.4318162912968546E-005
  0.10440000000000002          6.4643529185559601E-005
  0.10550000000000001          6.4287763962056488E-005
  0.10660000000000003          6.3420455262530595E-005
  0.10770000000000002          6.2190141761675477E-005
  0.10880000000000001          6.0623573517659679E-005
  0.10990000000000003          5.8704932598629966E-005
  0.11100000000000002          5.6519835197832435E-005
  0.11210000000000001          5.4233045375440270E-005
  0.11320000000000002          5.1925162551924586E-005
  0.11430000000000001          4.9539896281203255E-005
  0.11540000000000003          4.7028730477904901E-005
  0.11650000000000002          4.4480690121417865E-005
  0.11760000000000001          4.2036965169245377E-005
  0.11870000000000003          3.9719412598060444E-005
  0.11980000000000002          3.7433102988870814E-005
  0.12090000000000001          3.5139757528668270E-005
  0.12200000000000003          3.2936663046712056E-005
  0.12310000000000001          3.0917359254090115E-005
  0.12420000000000003          2.9035156330792233E-005
  0.12530000000000002          2.7181660698261112E-005
  0.12640000000000001          2.5363025997648947E-005
  0.12750000000000003          2.3696382413618267E-005
  0.12860000000000002          2.2229498426895589E-005
  0.12970000000000001          2.0859481082879938E-005
  0.13080000000000003          1.9482075003907084E-005
  0.13190000000000002          1.8145270587410778E-005
  0.13300000000000001          1.6971322111203335E-005
  0.13410000000000000          1.5965446436894126E-005
  0.13520000000000004          1.5003868611529469E-005
  0.13630000000000003          1.4018158253747970E-005
  0.13740000000000002          1.3090949323668610E-005
  0.13850000000000001          1.2317564141994808E-005
  0.13960000000000000          1.1648924555629492E-005
  0.14070000000000005          1.0961089174088556E-005
  0.14180000000000004          1.0243405085930135E-005
  0.14290000000000003          9.6123703769990243E-006
  0.14400000000000002          9.1266820163582452E-006
  0.14510000000000001          8.6888258010731079E-006
  0.14620000000000000          8.1865437095984817E-006
  0.14730000000000004          7.6590968092205003E-006
  0.14840000000000003          7.2328234637097921E-006
  0.14950000000000002          6.9252891989890486E-006
  0.15060000000000001          6.6188576965942048E-006
  0.15170000000000000          6.2391750361712184E-006
  0.15280000000000005          5.8637115216697566E-006
  0.15390000000000004          5.5945893109310418E-006
  0.15500000000000003          5.3962417041475419E-006
  0.15610000000000002          5.1493943828972988E-006
  0.15720000000000001          4.8365654947701842E-006
  0.15830000000000000          4.5696251618210226E-006
  0.15940000000000004          4.4158932723803446E-006
  0.16050000000000003          4.2909864532703068E-006
  0.16160000000000002          4.0839781831891742E-006
  0.16270000000000001          3.8233779378060717E-006
  0.16380000000000000          3.6317924241302535E-006
  0.16490000000000005          3.5402720186539227E-006
  0.16600000000000004          3.4455777040420799E-006
  0.16710000000000003          3.2694827041268582E-006
  0.16820000000000002          3.0729327136214124E-006
  0.16930000000000001          2.9542727588705020E-006
  0.17040000000000000          2.8955682864761911E-006
  0.17150000000000004          2.7947460239374777E-006
  0.17260000000000003          2.6278448785888031E-006
  0.17370000000000002          2.4865682917152299E-006
  0.17480000000000001          2.4337325612577843E-006
  0.17590000000000000          2.4029270662140334E-006
  0.17700000000000005          2.2985543637332739E-006
  0.17810000000000004          2.1420332814159337E-006
  0.17920000000000003          2.0397985736053670E-006
  0.18030000000000002          2.0224954369041370E-006
  0.18140000000000001          2.0006727936561219E-006
  0.18250000000000000          1.9009378320333781E-006
  0.18360000000000004          1.7728980310494080E-006
  0.18470000000000003          1.7084875025830115E-006
  0.18580000000000002          1.7030160961439833E-006
  0.18690000000000001          1.6685831951690488E-006
  0.18800000000000000          1.5717167798356968E-006
  0.18910000000000005          1.4807845900577377E-006
  0.19020000000000004          1.4557823533323244E-006
  0.19130000000000003          1.4555163261320558E-006
  0.19240000000000002          1.4035440472071059E-006
  0.19350000000000001          1.3067738109384663E-006
  0.19460000000000005          1.2433522442734102E-006
  0.19570000000000004          1.2423575981301838E-006
  0.19680000000000003          1.2412627938829246E-006
  0.19790000000000002          1.1829843060695566E-006
  0.19900000000000001          1.1004005955328466E-006
  0.20010000000000000          1.0622076160871075E-006
  0.20120000000000005          1.0681403637136100E-006
  0.20230000000000004          1.0538597052800469E-006
  0.20340000000000003          9.9194062386231963E-007
  0.20450000000000002          9.3152124236439704E-007
  0.20560000000000000          9.1942507651765482E-007
  0.20670000000000005          9.2832078735227697E-007
  0.20780000000000004          9.0078606262977701E-007
  0.20890000000000003          8.3744970424959320E-007
