-1.200000e-01 0.000000e+00
-1.190000e-01 0.000000e+00
-1.180000e-01 0.000000e+00
-1.170000e-01 0.000000e+00
-1.160000e-01 0.000000e+00
-1.150000e-01 0.000000e+00
-1.140000e-01 0.000000e+00
-1.130000e-01 0.000000e+00
-1.120000e-01 0.000000e+00
-1.110000e-01 0.000000e+00
-1.100000e-01 0.000000e+00
-1.090000e-01 0.000000e+00
-1.080000e-01 0.000000e+00
-1.070000e-01 0.000000e+00
-1.060000e-01 0.000000e+00
-1.050000e-01 0.000000e+00
-1.040000e-01 0.000000e+00
-1.030000e-01 0.000000e+00
-1.020000e-01 0.000000e+00
-1.010000e-01 2.369596e-42
-1.000000e-01 5.190269e-41
-9.900001e-02 4.893320e-40
-9.800000e-02 2.238780e-39
-9.700000e-02 4.603111e-40
-9.600000e-02 -6.456163e-38
-9.500001e-02 -4.754955e-37
-9.400000e-02 -1.876715e-36
-9.300000e-02 -3.805510e-36
-9.200001e-02 3.337356e-36
-9.100001e-02 5.737233e-35
-9.000000e-02 2.292250e-34
-8.900000e-02 4.892656e-34
-8.800000e-02 1.899282e-34
-8.700000e-02 -2.824817e-33
-8.600000e-02 -1.194213e-32
-8.500001e-02 -2.561263e-32
-8.400001e-02 -1.940015e-32
-8.300000e-02 7.679988e-32
-8.200000e-02 3.574469e-31
-8.100000e-02 7.701496e-31
-8.000000e-02 7.199451e-31
-7.900000e-02 -1.300824e-30
-7.800000e-02 -7.080775e-30
-7.700001e-02 -1.547773e-29
-7.600001e-02 -1.626966e-29
-7.500000e-02 1.401218e-29
-7.400000e-02 1.005960e-28
-7.300000e-02 2.263854e-28
-7.200000e-02 2.596679e-28
-7.100000e-02 -8.035469e-29
-7.000001e-02 -1.075817e-27
-6.900001e-02 -2.542083e-27
-6.800000e-02 -3.150636e-27
-6.700000e-02 -2.080811e-28
-6.600000e-02 8.898406e-27
-6.500000e-02 2.269716e-26
-6.400000e-02 3.037492e-26
-6.300000e-02 1.058230e-26
-6.200000e-02 -5.732638e-26
-6.100000e-02 -1.648623e-25
-6.000000e-02 -2.394958e-25
-5.900000e-02 -1.382674e-25
-5.800000e-02 2.807531e-25
-5.700000e-02 9.870267e-25
-5.600000e-02 1.574451e-24
-5.500000e-02 1.221563e-24
-5.400001e-02 -9.305829e-25
-5.300000e-02 -4.885512e-24
-5.200000e-02 -8.737191e-24
-5.100000e-02 -8.392663e-24
-5.000000e-02 7.542967e-25
-4.900000e-02 1.975825e-23
-4.800000e-02 4.118304e-23
-4.700000e-02 4.724659e-23
-4.600000e-02 1.598789e-23
-4.500000e-02 -6.243850e-23
-4.400000e-02 -1.647385e-22
-4.300000e-02 -2.235267e-22
-4.200000e-02 -1.456000e-22
-4.100000e-02 1.304170e-22
-4.000000e-02 5.525933e-22
-3.900000e-02 8.997423e-22
-3.800000e-02 8.199167e-22
-3.700000e-02 9.642410e-24
-3.600000e-02 -1.498872e-21
-3.500000e-02 -3.089462e-21
-3.400000e-02 -3.582886e-21
-3.300000e-02 -1.719314e-21
-3.200000e-02 2.924069e-21
-3.100000e-02 8.967976e-21
-3.000000e-02 1.292989e-20
-2.900000e-02 1.030550e-20
-2.800000e-02 -1.791418e-21
-2.700000e-02 -2.131862e-20
-2.600000e-02 -3.934526e-20
-2.500000e-02 -4.184220e-20
-2.400000e-02 -1.644326e-20
-2.300000e-02 3.749559e-20
-2.200000e-02 1.007601e-19
-2.100000e-02 1.352327e-19
-2.000000e-02 9.896870e-20
-1.900000e-02 -2.675010e-20
-1.800000e-02 -2.104644e-19
-1.700000e-02 -3.627825e-19
-1.600000e-02 -3.641898e-19
-1.500000e-02 -1.288808e-19
-1.400000e-02 3.197075e-19
-1.300000e-02 8.066649e-19
-1.200000e-02 1.041715e-18
-1.100000e-02 7.481455e-19
-9.999998e-03 -1.553115e-19
-8.999996e-03 -1.411652e-18
-8.000001e-03 -2.428565e-18
-6.999999e-03 -2.486973e-18
-5.999997e-03 -1.113166e-18
-5.000003e-03 1.540612e-18
-4.000001e-03 4.523066e-18
-2.999999e-03 6.292103e-18
-1.999997e-03 5.328362e-18
-1.000002e-03 9.717746e-19
0.000000e+00 -5.874183e-18
1.000002e-03 -1.257784e-17
2.000004e-03 -1.544144e-17
2.999999e-03 -1.118939e-17
4.000001e-03 1.112254e-18
4.999995e-03 1.848590e-17
5.999997e-03 3.380598e-17
6.999999e-03 3.769417e-17
8.000001e-03 2.261232e-17
9.000003e-03 -1.199858e-17
1.000001e-02 -5.595960e-17
1.100001e-02 -8.893731e-17
1.199999e-02 -8.729768e-17
1.300000e-02 -3.628686e-17
1.400000e-02 5.723899e-17
1.500000e-02 1.590498e-16
1.600000e-02 2.154838e-16
1.700000e-02 1.763453e-16
1.800001e-02 2.525559e-17
1.900001e-02 -1.977277e-16
2.000000e-02 -3.976200e-16
2.100000e-02 -4.580228e-16
2.200000e-02 -2.982046e-16
2.300000e-02 7.121647e-17
2.400000e-02 5.256254e-16
2.500001e-02 8.585395e-16
2.600001e-02 8.654820e-16
2.700000e-02 4.479838e-16
2.800000e-02 -3.109446e-16
2.900000e-02 -1.142882e-15
3.000000e-02 -1.676542e-15
3.100000e-02 -1.583574e-15
3.200001e-02 -7.340644e-16
3.300001e-02 7.009796e-16
3.400001e-02 2.248666e-15
3.500000e-02 3.253322e-15
3.600000e-02 3.098615e-15
3.700000e-02 1.480023e-15
3.800000e-02 -1.358476e-15
3.900000e-02 -4.533615e-15
4.000001e-02 -6.682697e-15
4.100001e-02 -6.417639e-15
4.200000e-02 -2.989197e-15
4.300000e-02 3.083134e-15
4.400000e-02 9.768818e-15
4.500000e-02 1.397823e-14
4.600000e-02 1.275842e-14
4.700001e-02 4.875525e-15
4.800001e-02 -7.940232e-15
4.900001e-02 -2.089343e-14
5.000000e-02 -2.761159e-14
5.100000e-02 -2.292712e-14
5.200000e-02 -5.853627e-15
5.300000e-02 1.876071e-14
5.400001e-02 4.110938e-14
5.500001e-02 4.999980e-14
5.600001e-02 3.793139e-14
5.700000e-02 5.485531e-15
5.800000e-02 -3.722792e-14
5.900000e-02 -7.327309e-14
6.000000e-02 -8.517303e-14
6.100000e-02 -6.250295e-14
6.200001e-02 -7.675630e-15
6.300001e-02 6.275847e-14
6.400001e-02 1.224104e-13
6.500000e-02 1.439963e-13
6.600000e-02 1.101542e-13
6.700000e-02 2.238319e-14
6.800000e-02 -9.552074e-14
6.900001e-02 -2.019099e-13
7.000001e-02 -2.497743e-13
7.100001e-02 -2.045661e-13
7.200000e-02 -6.179097e-14
7.300000e-02 1.429594e-13
7.400000e-02 3.381847e-13
7.500000e-02 4.375435e-13
7.600001e-02 3.736764e-13
7.700001e-02 1.332586e-13
7.800001e-02 -2.225980e-13
7.900001e-02 -5.663868e-13
8.000000e-02 -7.448391e-13
8.100000e-02 -6.417139e-13
8.200000e-02 -2.388761e-13
8.300000e-02 3.533181e-13
8.400001e-02 9.174414e-13
8.500001e-02 1.203459e-12
8.600001e-02 1.032866e-12
8.700001e-02 3.908710e-13
8.800000e-02 -5.369723e-13
8.900000e-02 -1.409494e-12
9.000000e-02 -1.849498e-12
9.100001e-02 -1.597859e-12
9.200001e-02 -6.412877e-13
9.300001e-02 7.437527e-13
9.400001e-02 2.060458e-12
9.500000e-02 2.760860e-12
9.600000e-02 2.459463e-12
9.700000e-02 1.112222e-12
9.800000e-02 -9.137710e-13
9.900001e-02 -2.921505e-12
1.000000e-01 -4.105990e-12
1.010000e-01 -3.852752e-12
1.020000e-01 -2.010985e-12
1.030000e-01 9.671051e-13
1.040000e-01 4.097461e-12
1.050000e-01 6.156734e-12
1.060000e-01 6.124083e-12
1.070000e-01 3.626952e-12
1.080000e-01 -7.865300e-13
1.090000e-01 -5.693839e-12
1.100000e-01 -9.208971e-12
1.110000e-01 -9.662528e-12
1.120000e-01 -6.322722e-12
1.130000e-01 1.350617e-13
1.140000e-01 7.653951e-12
1.150000e-01 1.339655e-11
1.160000e-01 1.477117e-11
1.170000e-01 1.052653e-11
1.180000e-01 1.469923e-12
1.190000e-01 -9.547070e-12
1.200000e-01 -1.847677e-11
1.210000e-01 -2.152557e-11
1.220000e-01 -1.669499e-11
1.230000e-01 -4.802506e-12
1.240000e-01 1.048842e-11
1.250000e-01 2.375248e-11
1.260000e-01 2.969438e-11
1.270000e-01 2.519497e-11
1.280000e-01 1.073814e-11
1.290000e-01 -9.385936e-12
1.300000e-01 -2.829363e-11
1.310000e-01 -3.881441e-11
1.320000e-01 -3.613460e-11
1.330000e-01 -1.983158e-11
1.340000e-01 5.510167e-12
1.350000e-01 3.146919e-11
1.360000e-01 4.849782e-11
1.370000e-01 4.934179e-11
1.380000e-01 3.198700e-11
1.390000e-01 9.889910e-13
1.400000e-01 -3.349925e-11
1.410000e-01 -5.891297e-11
1.420000e-01 -6.474406e-11
1.430000e-01 -4.675384e-11
1.440000e-01 -9.289997e-12
1.450000e-01 3.541518e-11
1.460000e-01 7.105996e-11
1.470000e-01 8.309221e-11
1.480000e-01 6.450037e-11
1.490000e-01 1.931318e-11
1.500000e-01 -3.780992e-11
1.510000e-01 -8.615197e-11
1.520000e-01 -1.063140e-10
1.530000e-01 -8.779445e-11
1.540000e-01 -3.385111e-11
1.550000e-01 3.847664e-11
1.560000e-01 1.036023e-10
1.570000e-01 1.363112e-10
1.580000e-01 1.212619e-10
1.590000e-01 5.953602e-11
1.600000e-01 -3.042268e-11
1.610000e-01 -1.182093e-10
1.620000e-01 -1.716327e-10
1.630000e-01 -1.682629e-10
1.640000e-01 -1.042600e-10
1.650000e-01 2.853791e-12
1.660000e-01 1.188422e-10
1.670000e-01 2.036407e-10
1.680000e-01 2.250333e-10
1.690000e-01 1.705003e-10
1.700000e-01 5.298360e-11
1.710000e-01 -9.183994e-11
1.720000e-01 -2.163639e-10
1.730000e-01 -2.767157e-10
1.740000e-01 -2.481503e-10
1.750000e-01 -1.347945e-10
1.760000e-01 3.002410e-11
1.770000e-01 1.935741e-10
1.780000e-01 3.008238e-10
1.790000e-01 3.132784e-10
1.800000e-01 2.230235e-10
1.810000e-01 5.670264e-11
1.820000e-01 -1.323427e-10
1.830000e-01 -2.815886e-10
1.840000e-01 -3.405871e-10
1.850000e-01 -2.885991e-10
1.860000e-01 -1.421990e-10
1.870000e-01 4.983884e-11
1.880000e-01 2.231518e-10
1.890000e-01 3.196660e-10
1.900000e-01 3.075947e-10
1.910000e-01 1.923443e-10
1.920000e-01 1.464602e-11
1.930000e-01 -1.634605e-10
1.940000e-01 -2.803463e-10
1.950000e-01 -2.962136e-10
1.960000e-01 -2.067810e-10
1.970000e-01 -4.501671e-11
1.980000e-01 1.301190e-10
1.990000e-01 2.540246e-10
2.000000e-01 2.801189e-10
2.010000e-01 1.962191e-10
2.020000e-01 3.065945e-11
2.030000e-01 -1.583896e-10
2.040000e-01 -3.007126e-10
2.050000e-01 -3.408173e-10
2.060000e-01 -2.585308e-10
2.070000e-01 -7.666528e-11
2.080000e-01 1.435875e-10
2.090000e-01 3.252052e-10
2.100000e-01 3.972580e-10
2.110000e-01 3.304472e-10
2.120000e-01 1.327054e-10
2.130000e-01 -1.342182e-10
2.140000e-01 -3.879202e-10
2.150000e-01 -5.454655e-10
2.160000e-01 -5.579388e-10
2.170000e-01 -4.127790e-10
2.180000e-01 -1.579039e-10
2.190000e-01 1.357515e-10
2.200000e-01 3.777567e-10
2.210000e-01 4.925281e-10
2.220000e-01 4.427990e-10
2.230000e-01 2.352990e-10
2.240000e-01 -8.876912e-11
2.250000e-01 -4.406947e-10
2.260000e-01 -7.174215e-10
2.270000e-01 -8.361943e-10
2.280000e-01 -7.540415e-10
2.290000e-01 -5.211628e-10
2.300000e-01 -1.972609e-10
2.310000e-01 8.890540e-11
2.320000e-01 2.478386e-10
2.330000e-01 1.983036e-10
2.340000e-01 1.634016e-11
2.350000e-01 -2.257328e-10
2.360000e-01 -4.168620e-10
2.370000e-01 -5.424039e-10
2.380000e-01 -6.545628e-10
2.390000e-01 -6.859560e-10
2.400000e-01 -6.607295e-10
2.410000e-01 -6.610679e-10
2.420000e-01 -6.162161e-10
2.430000e-01 -4.589236e-10
2.440000e-01 -4.218065e-10
2.450000e-01 -5.431305e-10
2.460000e-01 -7.388102e-10
2.470000e-01 -7.662008e-10
2.480000e-01 -7.207981e-10
2.490000e-01 -7.993579e-10
2.500000e-01 -6.579184e-10
2.510000e-01 -5.929570e-10
2.520000e-01 -5.404118e-10
2.530000e-01 -4.559874e-10
2.540000e-01 -6.546346e-10
2.550000e-01 -4.843466e-10
2.560000e-01 -9.164711e-10
2.570000e-01 -1.092139e-09
2.580000e-01 -1.374563e-09
2.590000e-01 -1.399596e-09
2.600000e-01 -1.028977e-09
2.610000e-01 -5.346458e-10
2.620000e-01 6.122103e-11
2.630000e-01 3.385155e-10
2.640000e-01 2.564965e-10
2.650000e-01 1.467151e-10
2.660000e-01 2.581772e-10
2.670000e-01 1.967682e-10
2.680000e-01 5.676848e-11
2.690000e-01 -5.266322e-10
2.700000e-01 -8.826055e-10
2.710000e-01 -7.529944e-10
2.720000e-01 -2.055392e-10
2.730000e-01 6.478241e-10
2.740000e-01 1.701708e-09
2.750000e-01 1.960863e-09
2.760000e-01 1.263006e-09
2.770000e-01 5.780432e-10
2.780000e-01 8.207210e-10
2.790000e-01 1.333316e-09
2.800000e-01 1.964503e-09
2.810000e-01 1.650476e-09
2.820000e-01 8.613719e-10
2.830000e-01 4.068707e-10
2.840000e-01 9.217360e-10
2.850000e-01 2.050361e-09
2.860000e-01 2.916282e-09
2.870000e-01 2.785461e-09
2.880000e-01 1.890543e-09
2.890000e-01 8.442710e-10
2.900000e-01 8.015943e-10
2.910000e-01 2.165886e-09
2.920000e-01 3.780492e-09
2.930000e-01 4.528541e-09
2.940000e-01 3.817836e-09
2.950000e-01 2.007296e-09
2.960000e-01 3.534670e-10
2.970000e-01 -1.366366e-10
2.980000e-01 7.293731e-10
2.990000e-01 1.846249e-09
3.000000e-01 2.018426e-09
3.010000e-01 1.274383e-09
3.020000e-01 5.224588e-10
3.030000e-01 8.893554e-10
3.040000e-01 1.708526e-09
3.050000e-01 2.657054e-09
3.060000e-01 2.416764e-09
3.070000e-01 1.100720e-09
3.080000e-01 -2.245933e-10
3.090000e-01 -1.220997e-09
3.100000e-01 -8.096074e-10
3.110000e-01 8.116066e-10
3.120000e-01 1.366441e-09
3.130000e-01 8.395494e-10
3.140000e-01 -9.761483e-10
3.150000e-01 -1.719173e-09
3.160000e-01 -1.368182e-09
3.170000e-01 -1.568124e-10
3.180000e-01 6.513827e-10
3.190000e-01 7.875173e-10
3.200000e-01 -1.531386e-10
3.210000e-01 -1.156200e-09
3.220000e-01 -2.018493e-09
3.230000e-01 -2.025645e-09
3.240000e-01 -1.044774e-09
3.250000e-01 -1.225696e-09
3.260000e-01 -2.507013e-09
3.270000e-01 -4.652450e-09
3.280000e-01 -6.217337e-09
3.290000e-01 -4.988623e-09
3.300000e-01 -1.729659e-09
3.310000e-01 1.650074e-09
3.320000e-01 2.970131e-09
3.330000e-01 2.000816e-09
3.340000e-01 -1.756659e-10
3.350000e-01 -1.814821e-09
3.360000e-01 -2.118357e-09
3.370000e-01 -1.350942e-09
3.380000e-01 -5.584768e-10
3.390000e-01 -5.217486e-10
3.400000e-01 -1.028701e-09
3.410000e-01 -1.350989e-09
3.420000e-01 -9.622707e-10
3.430000e-01 -4.519285e-11
3.440000e-01 6.806514e-10
3.450000e-01 6.779079e-10
3.460000e-01 -1.322099e-10
3.470000e-01 -1.122356e-09
3.480000e-01 -1.698918e-09
3.490000e-01 -1.616618e-09
3.500000e-01 -1.177210e-09
3.510000e-01 -7.719709e-10
3.520000e-01 -3.423078e-10
3.530000e-01 4.502638e-10
3.540000e-01 1.928033e-09
3.550000e-01 3.328544e-09
3.560000e-01 3.467509e-09
3.570000e-01 1.677721e-09
3.580000e-01 -1.549964e-09
3.590000e-01 -4.519245e-09
3.600000e-01 -5.201417e-09
3.610000e-01 -2.824146e-09
3.620000e-01 1.463077e-09
3.630000e-01 5.108857e-09
3.640000e-01 6.013489e-09
3.650000e-01 3.669415e-09
3.660000e-01 -3.914070e-10
3.670000e-01 -3.890508e-09
3.680000e-01 -5.390122e-09
3.690000e-01 -4.778364e-09
3.700000e-01 -3.207745e-09
3.710000e-01 -1.582620e-09
3.720000e-01 -3.618998e-10
3.730000e-01 7.866721e-10
3.740000e-01 2.057978e-09
3.750000e-01 2.892320e-09
3.760000e-01 2.546776e-09
3.770000e-01 5.782682e-10
3.780000e-01 -2.370221e-09
3.790000e-01 -4.821076e-09
3.800000e-01 -5.431211e-09
3.810000e-01 -3.723100e-09
3.820000e-01 -3.983657e-10
3.830000e-01 3.203805e-09
3.840000e-01 5.829028e-09
3.850000e-01 6.809386e-09
3.860000e-01 6.065317e-09
3.870000e-01 3.752183e-09
3.880000e-01 3.840672e-10
3.890000e-01 -3.306390e-09
3.900000e-01 -5.946886e-09
3.910000e-01 -6.218382e-09
3.920000e-01 -3.403165e-09
3.930000e-01 1.565392e-09
3.940000e-01 6.425357e-09
3.950000e-01 8.616128e-09
3.960000e-01 6.906225e-09
3.970000e-01 2.126482e-09
3.980000e-01 -3.335715e-09
3.990000e-01 -6.932263e-09
4.000000e-01 -7.289683e-09
4.010000e-01 -4.715946e-09
4.020000e-01 -7.517509e-10
4.030000e-01 2.953924e-09
4.040000e-01 5.335641e-09
4.050000e-01 6.054479e-09
4.060000e-01 5.140893e-09
4.070000e-01 2.741799e-09
4.080000e-01 -7.128446e-10
4.090000e-01 -4.248752e-09
4.100000e-01 -6.448772e-09
4.110000e-01 -6.260268e-09
4.120000e-01 -3.642037e-09
4.130000e-01 2.243433e-10
4.140000e-01 3.622423e-09
4.150000e-01 5.209420e-09
4.160000e-01 4.711213e-09
4.170000e-01 2.710720e-09
4.180000e-01 3.881895e-11
4.190000e-01 -2.782798e-09
4.200000e-01 -5.457980e-09
4.210000e-01 -7.490972e-09
4.220001e-01 -7.903665e-09
4.230000e-01 -5.722682e-09
4.240000e-01 -8.170415e-10
4.250000e-01 5.400794e-09
4.260000e-01 1.032176e-08
4.270000e-01 1.150333e-08
4.280000e-01 8.106365e-09
4.290000e-01 1.527860e-09
4.300000e-01 -5.383990e-09
4.310000e-01 -9.833346e-09
4.320000e-01 -1.041819e-08
4.330000e-01 -7.436416e-09
4.340000e-01 -2.303741e-09
4.350000e-01 3.317858e-09
4.360000e-01 7.991967e-09
4.370000e-01 1.055556e-08
4.380000e-01 1.013333e-08
4.390000e-01 6.433825e-09
4.400000e-01 2.620139e-10
4.410000e-01 -6.339997e-09
4.420000e-01 -1.073364e-08
4.430000e-01 -1.093217e-08
4.440000e-01 -6.732446e-09
4.450000e-01 8.391843e-11
4.460000e-01 6.685626e-09
4.470000e-01 1.063472e-08
4.480000e-01 1.089308e-08
4.490000e-01 7.860995e-09
4.500000e-01 2.699510e-09
4.510000e-01 -3.337546e-09
4.520000e-01 -9.029171e-09
4.530000e-01 -1.298584e-08
4.540000e-01 -1.365498e-08
4.550000e-01 -9.995722e-09
4.560000e-01 -2.421884e-09
4.570000e-01 6.722307e-09
4.580000e-01 1.383598e-08
4.590001e-01 1.570911e-08
4.600000e-01 1.123496e-08
4.610000e-01 2.096515e-09
4.620000e-01 -8.038429e-09
4.630000e-01 -1.528384e-08
4.640000e-01 -1.723554e-08
4.650000e-01 -1.371733e-08
4.660000e-01 -6.415706e-09
4.670000e-01 2.103323e-09
4.680000e-01 9.302682e-09
4.690000e-01 1.327364e-08
4.700000e-01 1.307044e-08
4.710000e-01 8.943488e-09
4.720000e-01 2.364987e-09
4.730000e-01 -4.332519e-09
4.740000e-01 -8.767622e-09
4.750000e-01 -9.478688e-09
4.760000e-01 -6.500156e-09
4.770000e-01 -1.177335e-09
4.780000e-01 4.581183e-09
4.790000e-01 9.155329e-09
4.800000e-01 1.159024e-08
4.810000e-01 1.152928e-08
4.820001e-01 8.977043e-09
4.830000e-01 4.292898e-09
4.840000e-01 -1.503994e-09
4.850000e-01 -6.701593e-09
4.860000e-01 -9.245187e-09
4.870000e-01 -7.766504e-09
4.880000e-01 -2.486427e-09
4.890000e-01 4.685983e-09
4.900000e-01 1.072299e-08
4.910000e-01 1.324554e-08
4.920000e-01 1.132697e-08
4.930000e-01 6.022739e-09
4.940000e-01 -6.100452e-10
4.950000e-01 -6.346899e-09
4.960001e-01 -9.645410e-09
4.970000e-01 -9.856943e-09
4.980000e-01 -7.190221e-09
4.990000e-01 -2.529892e-09
5.000000e-01 2.699762e-09
5.010000e-01 6.786325e-09
5.020000e-01 8.153154e-09
5.030000e-01 6.184043e-09
5.040000e-01 1.645939e-09
5.050000e-01 -3.721966e-09
5.060000e-01 -7.909549e-09
5.070000e-01 -9.803776e-09
5.080000e-01 -9.421647e-09
5.090000e-01 -7.547360e-09
5.100001e-01 -4.972330e-09
5.110000e-01 -1.931232e-09
5.120000e-01 1.381690e-09
5.130000e-01 4.400485e-09
5.140000e-01 6.049626e-09
5.150000e-01 5.133041e-09
5.160000e-01 1.363222e-09
5.170000e-01 -4.025329e-09
5.180000e-01 -8.831138e-09
5.190001e-01 -1.079977e-08
5.200000e-01 -9.292801e-09
5.210000e-01 -5.349375e-09
5.220000e-01 -8.716827e-10
5.230000e-01 2.600682e-09
5.240000e-01 4.489324e-09
5.250000e-01 5.068180e-09
5.260000e-01 4.605429e-09
5.270000e-01 2.997749e-09
5.280000e-01 -8.220155e-11
5.290000e-01 -4.309754e-09
5.300000e-01 -8.380978e-09
5.310000e-01 -1.039573e-08
5.320000e-01 -8.989172e-09
5.330001e-01 -4.290265e-09
5.340000e-01 2.055731e-09
5.350000e-01 7.783290e-09
5.360000e-01 1.112906e-08
5.370000e-01 1.144069e-08
5.380000e-01 9.031719e-09
5.390000e-01 4.620945e-09
5.400000e-01 -9.729602e-10
5.410000e-01 -6.694659e-09
5.420001e-01 -1.102997e-08
5.430000e-01 -1.227914e-08
5.440000e-01 -9.338804e-09
5.450000e-01 -2.659230e-09
5.460000e-01 5.626140e-09
5.470001e-01 1.249835e-08
5.480000e-01 1.559993e-08
5.490000e-01 1.431930e-08
5.500000e-01 9.750132e-09
5.510000e-01 3.700763e-09
5.520000e-01 -2.119056e-09
5.530000e-01 -6.639485e-09
5.540000e-01 -8.946561e-09
5.550000e-01 -8.164220e-09
5.560001e-01 -3.889452e-09
5.570000e-01 3.209244e-09
5.580000e-01 1.092985e-08
5.590000e-01 1.610131e-08
5.600000e-01 1.610640e-08
5.610000e-01 1.053393e-08
5.620000e-01 1.534540e-09
5.630000e-01 -7.282003e-09
5.640000e-01 -1.271154e-08
5.650001e-01 -1.353274e-08
5.660000e-01 -1.064326e-08
5.670000e-01 -5.852450e-09
5.680000e-01 -6.979292e-10
5.690000e-01 4.063972e-09
5.700001e-01 7.912162e-09
5.710000e-01 9.919136e-09
5.720000e-01 8.933500e-09
5.730000e-01 4.411149e-09
5.740000e-01 -2.664927e-09
5.750000e-01 -9.810396e-09
5.760000e-01 -1.409373e-08
5.770000e-01 -1.379549e-08
5.780000e-01 -9.168732e-09
5.790001e-01 -2.420300e-09
5.800000e-01 3.926512e-09
5.810000e-01 8.154254e-09
5.820000e-01 9.817695e-09
5.830000e-01 9.245178e-09
5.840001e-01 6.833417e-09
5.850000e-01 2.887086e-09
5.860000e-01 -2.037484e-09
5.870000e-01 -6.724160e-09
5.880000e-01 -9.565016e-09
5.890000e-01 -9.356474e-09
5.900000e-01 -6.096827e-09
5.910000e-01 -1.067974e-09
5.920000e-01 3.893475e-09
5.930001e-01 7.352596e-09
5.940000e-01 8.817286e-09
5.950000e-01 8.473497e-09
5.960000e-01 6.563515e-09
5.970000e-01 3.165903e-09
5.980000e-01 -1.539721e-09
5.990000e-01 -6.634844e-09
6.000000e-01 -1.037296e-08
6.010000e-01 -1.089238e-08
6.020001e-01 -7.456832e-09
6.030000e-01 -1.200124e-09
6.040000e-01 5.276326e-09
6.050000e-01 9.295364e-09
6.060000e-01 9.454455e-09
6.070001e-01 6.127871e-09
6.080000e-01 8.920443e-10
6.090000e-01 -4.569117e-09
6.100000e-01 -9.100401e-09
6.110000e-01 -1.206297e-08
6.120000e-01 -1.290979e-08
6.130000e-01 -1.101420e-08
6.140000e-01 -6.097857e-09
6.150000e-01 1.082684e-09
6.160001e-01 8.523014e-09
6.170000e-01 1.362295e-08
6.180000e-01 1.442802e-08
6.190000e-01 1.071357e-08
6.200000e-01 4.037118e-09
6.210001e-01 -3.107210e-09
6.220000e-01 -8.407903e-09
6.230000e-01 -1.044057e-08
6.240000e-01 -8.801300e-09
6.250001e-01 -3.943247e-09
6.260000e-01 2.988506e-09
6.270000e-01 1.018780e-08
6.280000e-01 1.547435e-08
6.290000e-01 1.693959e-08
6.300001e-01 1.382419e-08
6.310000e-01 7.036386e-09
6.320000e-01 -1.145158e-09
6.330000e-01 -8.049764e-09
6.340000e-01 -1.179508e-08
6.350001e-01 -1.188818e-08
6.360000e-01 -8.946412e-09
6.370000e-01 -4.064860e-09
6.380000e-01 1.630210e-09
6.390001e-01 6.912922e-09
6.400000e-01 1.022358e-08
6.410000e-01 9.938102e-09
6.420000e-01 5.263814e-09
6.430000e-01 -2.834527e-09
6.440001e-01 -1.155527e-08
6.450000e-01 -1.744931e-08
6.460000e-01 -1.820835e-08
6.470000e-01 -1.390522e-08
6.480000e-01 -6.805328e-09
6.490000e-01 9.788037e-11
6.500000e-01 4.765178e-09
6.510000e-01 6.844174e-09
6.520000e-01 7.088611e-09
6.530001e-01 6.174234e-09
6.540000e-01 4.026723e-09
6.550000e-01 2.566544e-10
6.560000e-01 -4.774562e-09
6.570000e-01 -9.385168e-09
6.580001e-01 -1.121969e-08
6.590000e-01 -8.718701e-09
6.600000e-01 -2.272399e-09
6.610000e-01 5.837670e-09
6.620001e-01 1.274784e-08
6.630000e-01 1.648947e-08
6.640000e-01 1.671778e-08
6.650000e-01 1.429010e-08
6.660000e-01 1.033375e-08
6.670001e-01 5.615242e-09
6.680000e-01 6.625291e-10
6.690000e-01 -3.740368e-09
6.700000e-01 -6.375259e-09
6.710000e-01 -6.133131e-09
6.720001e-01 -2.893423e-09
6.730000e-01 2.075109e-09
6.740000e-01 6.657835e-09
6.750000e-01 9.040631e-09
6.760001e-01 8.594334e-09
6.770000e-01 5.817538e-09
6.780000e-01 1.607393e-09
6.790000e-01 -3.420061e-09
6.800000e-01 -8.883636e-09
6.810001e-01 -1.408147e-08
6.820000e-01 -1.759773e-08
6.830000e-01 -1.772377e-08
6.840000e-01 -1.356655e-08
6.850001e-01 -6.057965e-09
6.860000e-01 2.090534e-09
6.870000e-01 7.604735e-09
6.880000e-01 8.374950e-09
6.890000e-01 4.500413e-09
6.900001e-01 -1.996944e-09
6.910000e-01 -8.473946e-09
6.920000e-01 -1.297743e-08
6.930000e-01 -1.468644e-08
6.940000e-01 -1.353219e-08
6.950001e-01 -9.660038e-09
6.960000e-01 -3.396676e-09
6.970000e-01 4.330323e-09
6.980000e-01 1.173588e-08
6.990001e-01 1.662251e-08
7.000000e-01 1.738989e-08
7.010000e-01 1.396220e-08
7.020000e-01 7.923115e-09
7.030000e-01 1.709731e-09
7.040001e-01 -2.569930e-09
7.050000e-01 -3.918470e-09
7.060000e-01 -2.442797e-09
7.070000e-01 1.187412e-09
7.080001e-01 6.193799e-09
7.090001e-01 1.165585e-08
7.100000e-01 1.623350e-08
7.110000e-01 1.825576e-08
7.120000e-01 1.642239e-08
7.130001e-01 1.070895e-08
7.140000e-01 2.686585e-09
7.150000e-01 -5.128635e-09
7.160000e-01 -1.053291e-08
7.170000e-01 -1.262798e-08
7.180001e-01 -1.191166e-08
7.190000e-01 -9.556565e-09
7.200000e-01 -6.564062e-09
7.210000e-01 -3.437586e-09
7.220001e-01 -5.033918e-10
7.230000e-01 1.619827e-09
7.240000e-01 1.968394e-09
7.250000e-01 -1.931934e-10
7.260000e-01 -4.643772e-09
7.270001e-01 -1.004144e-08
7.280000e-01 -1.453998e-08
7.290000e-01 -1.676333e-08
7.300000e-01 -1.635203e-08
7.310000e-01 -1.375846e-08
7.320001e-01 -9.617585e-09
7.330000e-01 -4.406154e-09
7.340000e-01 1.342287e-09
7.350000e-01 6.597864e-09
7.360001e-01 9.843776e-09
7.370000e-01 9.790828e-09
7.380000e-01 6.330267e-09
7.390000e-01 9.486711e-10
7.400000e-01 -3.868872e-09
7.410001e-01 -5.925448e-09
7.420000e-01 -4.442915e-09
7.430000e-01 -2.222666e-10
7.440000e-01 5.172600e-09
7.450001e-01 1.046019e-08
7.460001e-01 1.502605e-08
7.470000e-01 1.845140e-08
7.480000e-01 1.987898e-08
7.490000e-01 1.810107e-08
7.500001e-01 1.252667e-08
7.510000e-01 4.230273e-09
7.520000e-01 -3.999052e-09
7.530000e-01 -8.935222e-09
7.540000e-01 -8.733387e-09
7.550001e-01 -4.006202e-09
7.560000e-01 2.626919e-09
7.570000e-01 8.140377e-09
7.580000e-01 1.069037e-08
7.590001e-01 1.013467e-08
7.600001e-01 7.336657e-09
7.610000e-01 3.076943e-09
7.620000e-01 -2.398017e-09
7.630000e-01 -8.850311e-09
7.640001e-01 -1.524598e-08
7.650000e-01 -1.967907e-08
7.660000e-01 -2.033301e-08
7.670000e-01 -1.676495e-08
7.680001e-01 -1.039955e-08
7.690001e-01 -3.744805e-09
7.700000e-01 1.028273e-09
7.710000e-01 3.054012e-09
7.720000e-01 2.659931e-09
7.730001e-01 5.454244e-10
7.740000e-01 -2.841305e-09
7.750000e-01 -7.144590e-09
7.760000e-01 -1.145245e-08
7.770000e-01 -1.401993e-08
7.780001e-01 -1.295371e-08
7.790000e-01 -7.571995e-09
7.800000e-01 6.783143e-10
7.810000e-01 8.705850e-09
7.820001e-01 1.356012e-08
7.830001e-01 1.421379e-08
7.840000e-01 1.194246e-08
7.850000e-01 9.010646e-09
7.860000e-01 6.803345e-09
7.870001e-01 5.025567e-09
7.880000e-01 2.564784e-09
7.890000e-01 -8.422170e-10
7.900000e-01 -3.755766e-09
7.910001e-01 -3.840909e-09
7.920001e-01 2.323222e-10
7.930000e-01 7.378903e-09
7.940000e-01 1.440977e-08
7.950000e-01 1.795095e-08
7.960001e-01 1.653016e-08
7.970001e-01 1.127595e-08
7.980000e-01 4.772597e-09
7.990000e-01 -8.635329e-10
8.000000e-01 -5.054665e-09
8.010001e-01 -8.222924e-09
8.020000e-01 -1.042745e-08
8.030000e-01 -1.068896e-08
8.040000e-01 -7.779844e-09
8.050001e-01 -1.771170e-09
8.060001e-01 5.187336e-09
8.070000e-01 9.749925e-09
8.080000e-01 9.403099e-09
8.090000e-01 4.082538e-09
8.100001e-01 -3.842585e-09
8.110000e-01 -1.114917e-08
8.120000e-01 -1.565648e-08
8.130000e-01 -1.702801e-08
8.140000e-01 -1.608534e-08
8.150001e-01 -1.351496e-08
8.160000e-01 -9.277973e-09
8.170000e-01 -3.254732e-09
8.180000e-01 3.630824e-09
8.190001e-01 9.145184e-09
8.200001e-01 1.089174e-08
8.210000e-01 8.039345e-09
8.220000e-01 2.091867e-09
8.230000e-01 -4.028088e-09
8.240001e-01 -7.881549e-09
8.250000e-01 -8.822203e-09
8.260000e-01 -7.759184e-09
8.270000e-01 -5.780611e-09
8.280001e-01 -3.029443e-09
8.290001e-01 1.126798e-09
8.300000e-01 6.814726e-09
8.310000e-01 1.257597e-08
8.320000e-01 1.573260e-08
8.330001e-01 1.419698e-08
8.340001e-01 8.322137e-09
8.350000e-01 1.101213e-09
8.360000e-01 -3.723835e-09
8.370000e-01 -4.260620e-09
8.380001e-01 -1.649683e-09
8.390000e-01 1.165875e-09
8.400000e-01 2.020933e-09
8.410000e-01 1.246287e-09
8.420001e-01 1.074512e-09
8.430001e-01 3.327583e-09
8.440000e-01 7.442757e-09
8.450000e-01 1.058493e-08
8.460000e-01 9.804253e-09
8.470001e-01 4.492201e-09
8.480000e-01 -2.897639e-09
8.490000e-01 -8.491101e-09
8.500000e-01 -9.720096e-09
8.510001e-01 -6.970021e-09
8.520001e-01 -2.886067e-09
8.530000e-01 -5.192902e-11
8.540000e-01 9.107836e-10
8.550000e-01 1.266386e-09
8.560001e-01 2.387209e-09
8.570001e-01 4.083012e-09
8.580000e-01 4.620441e-09
8.590000e-01 2.371493e-09
8.600000e-01 -2.480196e-09
8.610001e-01 -7.749497e-09
8.620000e-01 -1.077026e-08
8.630000e-01 -1.031986e-08
8.640000e-01 -7.352491e-09
8.650001e-01 -4.016477e-09
8.660001e-01 -1.874773e-09
8.670000e-01 -8.910038e-10
8.680000e-01 1.785461e-12
8.690000e-01 1.387255e-09
8.700001e-01 2.444723e-09
8.710001e-01 1.630864e-09
8.720000e-01 -1.608786e-09
8.730000e-01 -5.776244e-09
8.740000e-01 -8.116197e-09
8.750001e-01 -6.762066e-09
8.760000e-01 -2.379950e-09
8.770000e-01 2.216497e-09
8.780000e-01 4.243279e-09
8.790001e-01 3.113849e-09
