-1.199999999999999956e-01 0.000000000000000000e+00
-1.189999999999999947e-01 0.000000000000000000e+00
-1.179999999999999938e-01 0.000000000000000000e+00
-1.170000000000000068e-01 0.000000000000000000e+00
-1.160000000000000059e-01 0.000000000000000000e+00
-1.150000000000000050e-01 0.000000000000000000e+00
-1.140000000000000041e-01 0.000000000000000000e+00
-1.130000000000000032e-01 0.000000000000000000e+00
-1.120000000000000023e-01 0.000000000000000000e+00
-1.110000000000000014e-01 0.000000000000000000e+00
-1.100000000000000006e-01 0.000000000000000000e+00
-1.089999999999999997e-01 0.000000000000000000e+00
-1.079999999999999988e-01 0.000000000000000000e+00
-1.069999999999999979e-01 0.000000000000000000e+00
-1.059999999999999970e-01 0.000000000000000000e+00
-1.049999999999999961e-01 0.000000000000000000e+00
-1.039999999999999952e-01 0.000000000000000000e+00
-1.029999999999999943e-01 0.000000000000000000e+00
-1.019999999999999934e-01 0.000000000000000000e+00
-1.010000000000000064e-01 0.000000000000000000e+00
-1.000000000000000056e-01 0.000000000000000000e+00
-9.900000999999999940e-02 0.000000000000000000e+00
-9.800000000000000377e-02 0.000000000000000000e+00
-9.700000000000000289e-02 0.000000000000000000e+00
-9.600000000000000200e-02 0.000000000000000000e+00
-9.500000999999999585e-02 0.000000000000000000e+00
-9.400000000000000022e-02 0.000000000000000000e+00
-9.299999999999999933e-02 0.000000000000000000e+00
-9.200000999999999318e-02 0.000000000000000000e+00
-9.100001000000000617e-02 0.000000000000000000e+00
-8.999999999999999667e-02 0.000000000000000000e+00
-8.899999999999999578e-02 0.000000000000000000e+00
-8.799999999999999489e-02 0.000000000000000000e+00
-8.699999999999999400e-02 0.000000000000000000e+00
-8.599999999999999312e-02 0.000000000000000000e+00
-8.500001000000000084e-02 0.000000000000000000e+00
-8.400000999999999995e-02 0.000000000000000000e+00
-8.300000000000000433e-02 0.000000000000000000e+00
-8.200000000000000344e-02 0.000000000000000000e+00
-8.100000000000000255e-02 0.000000000000000000e+00
-8.000000000000000167e-02 0.000000000000000000e+00
-7.900000000000000078e-02 0.000000000000000000e+00
-7.799999999999999989e-02 0.000000000000000000e+00
-7.700000999999999374e-02 0.000000000000000000e+00
-7.600001000000000673e-02 0.000000000000000000e+00
-7.499999999999999722e-02 0.000000000000000000e+00
-7.399999999999999634e-02 0.000000000000000000e+00
-7.299999999999999545e-02 0.000000000000000000e+00
-7.199999999999999456e-02 0.000000000000000000e+00
-7.099999999999999367e-02 0.000000000000000000e+00
-7.000001000000000140e-02 0.000000000000000000e+00
-6.900001000000000051e-02 0.000000000000000000e+00
-6.800000000000000488e-02 0.000000000000000000e+00
-6.700000000000000400e-02 0.000000000000000000e+00
-6.600000000000000311e-02 0.000000000000000000e+00
-6.500000000000000222e-02 0.000000000000000000e+00
-6.400000000000000133e-02 0.000000000000000000e+00
-6.300000000000000044e-02 0.000000000000000000e+00
-6.199999999999999956e-02 0.000000000000000000e+00
-6.099999999999999867e-02 0.000000000000000000e+00
-5.999999999999999778e-02 0.000000000000000000e+00
-5.899999999999999689e-02 0.000000000000000000e+00
-5.800000000000000294e-02 0.000000000000000000e+00
-5.700000000000000205e-02 0.000000000000000000e+00
-5.600000000000000117e-02 0.000000000000000000e+00
-5.500000000000000028e-02 0.000000000000000000e+00
-5.400001000000000106e-02 0.000000000000000000e+00
-5.299999999999999850e-02 0.000000000000000000e+00
-5.199999999999999761e-02 0.000000000000000000e+00
-5.099999999999999672e-02 0.000000000000000000e+00
-5.000000000000000278e-02 0.000000000000000000e+00
-4.900000000000000189e-02 0.000000000000000000e+00
-4.800000000000000100e-02 0.000000000000000000e+00
-4.700000000000000011e-02 0.000000000000000000e+00
-4.599999999999999922e-02 0.000000000000000000e+00
-4.499999999999999833e-02 0.000000000000000000e+00
-4.399999999999999745e-02 0.000000000000000000e+00
-4.299999999999999656e-02 0.000000000000000000e+00
-4.200000000000000261e-02 0.000000000000000000e+00
-4.100000000000000172e-02 0.000000000000000000e+00
-4.000000000000000083e-02 0.000000000000000000e+00
-3.899999999999999994e-02 0.000000000000000000e+00
-3.799999999999999906e-02 0.000000000000000000e+00
-3.699999999999999817e-02 0.000000000000000000e+00
-3.599999999999999728e-02 0.000000000000000000e+00
-3.500000000000000333e-02 0.000000000000000000e+00
-3.400000000000000244e-02 0.000000000000000000e+00
-3.300000000000000155e-02 0.000000000000000000e+00
-3.200000000000000067e-02 0.000000000000000000e+00
-3.099999999999999978e-02 0.000000000000000000e+00
-2.999999999999999889e-02 0.000000000000000000e+00
-2.900000000000000147e-02 0.000000000000000000e+00
-2.800000000000000058e-02 0.000000000000000000e+00
-2.699999999999999969e-02 0.000000000000000000e+00
-2.599999999999999881e-02 0.000000000000000000e+00
-2.500000000000000139e-02 0.000000000000000000e+00
-2.400000000000000050e-02 0.000000000000000000e+00
-2.299999999999999961e-02 0.000000000000000000e+00
-2.199999999999999872e-02 0.000000000000000000e+00
-2.100000000000000130e-02 0.000000000000000000e+00
-2.000000000000000042e-02 0.000000000000000000e+00
-1.899999999999999953e-02 0.000000000000000000e+00
-1.799999999999999864e-02 0.000000000000000000e+00
-1.700000000000000122e-02 0.000000000000000000e+00
-1.600000000000000033e-02 0.000000000000000000e+00
-1.499999999999999944e-02 0.000000000000000000e+00
-1.400000000000000029e-02 0.000000000000000000e+00
-1.299999999999999940e-02 0.000000000000000000e+00
-1.200000000000000025e-02 0.000000000000000000e+00
-1.099999999999999936e-02 0.000000000000000000e+00
-9.999997999999999526e-03 0.000000000000000000e+00
-8.999995999999999691e-03 0.000000000000000000e+00
-8.000000999999999640e-03 0.000000000000000000e+00
-6.999998999999999805e-03 0.000000000000000000e+00
-5.999996999999999969e-03 0.000000000000000000e+00
-5.000003000000000260e-03 0.000000000000000000e+00
-4.000001000000000424e-03 0.000000000000000000e+00
-2.999999000000000155e-03 0.000000000000000000e+00
-1.999996999999999886e-03 0.000000000000000000e+00
-1.000002000000000052e-03 0.000000000000000000e+00
0.000000000000000000e+00 0.000000000000000000e+00
1.000002000000000052e-03 0.000000000000000000e+00
2.000004000000000105e-03 0.000000000000000000e+00
2.999999000000000155e-03 0.000000000000000000e+00
4.000001000000000424e-03 0.000000000000000000e+00
4.999995000000000134e-03 0.000000000000000000e+00
5.999996999999999969e-03 0.000000000000000000e+00
6.999998999999999805e-03 0.000000000000000000e+00
8.000000999999999640e-03 0.000000000000000000e+00
9.000002999999999476e-03 0.000000000000000000e+00
1.000001000000000015e-02 0.000000000000000000e+00
1.100000999999999930e-02 0.000000000000000000e+00
1.199999000000000031e-02 0.000000000000000000e+00
1.299999999999999940e-02 0.000000000000000000e+00
1.400000000000000029e-02 0.000000000000000000e+00
1.499999999999999944e-02 0.000000000000000000e+00
1.600000000000000033e-02 0.000000000000000000e+00
1.700000000000000122e-02 0.000000000000000000e+00
1.800001000000000032e-02 0.000000000000000000e+00
1.900001000000000120e-02 0.000000000000000000e+00
2.000000000000000042e-02 0.000000000000000000e+00
2.100000000000000130e-02 0.000000000000000000e+00
2.199999999999999872e-02 0.000000000000000000e+00
2.299999999999999961e-02 0.000000000000000000e+00
2.400000000000000050e-02 0.000000000000000000e+00
2.500000999999999959e-02 0.000000000000000000e+00
2.600001000000000048e-02 0.000000000000000000e+00
2.699999999999999969e-02 0.000000000000000000e+00
2.800000000000000058e-02 0.000000000000000000e+00
2.900000000000000147e-02 0.000000000000000000e+00
2.999999999999999889e-02 0.000000000000000000e+00
3.099999999999999978e-02 0.000000000000000000e+00
3.200001000000000234e-02 0.000000000000000000e+00
3.300001000000000323e-02 0.000000000000000000e+00
3.400000999999999718e-02 0.000000000000000000e+00
3.500000000000000333e-02 0.000000000000000000e+00
3.599999999999999728e-02 0.000000000000000000e+00
3.699999999999999817e-02 0.000000000000000000e+00
3.799999999999999906e-02 0.000000000000000000e+00
3.899999999999999994e-02 0.000000000000000000e+00
4.000001000000000251e-02 0.000000000000000000e+00
4.100001000000000340e-02 0.000000000000000000e+00
4.200000000000000261e-02 0.000000000000000000e+00
4.299999999999999656e-02 0.000000000000000000e+00
4.399999999999999745e-02 0.000000000000000000e+00
4.499999999999999833e-02 0.000000000000000000e+00
4.599999999999999922e-02 0.000000000000000000e+00
4.700001000000000179e-02 0.000000000000000000e+00
4.800001000000000267e-02 0.000000000000000000e+00
4.900000999999999662e-02 0.000000000000000000e+00
5.000000000000000278e-02 0.000000000000000000e+00
5.099999999999999672e-02 0.000000000000000000e+00
5.199999999999999761e-02 0.000000000000000000e+00
5.299999999999999850e-02 0.000000000000000000e+00
5.400001000000000106e-02 0.000000000000000000e+00
5.500001000000000195e-02 0.000000000000000000e+00
5.600001000000000284e-02 0.000000000000000000e+00
5.700000000000000205e-02 0.000000000000000000e+00
5.800000000000000294e-02 0.000000000000000000e+00
5.899999999999999689e-02 0.000000000000000000e+00
5.999999999999999778e-02 0.000000000000000000e+00
6.099999999999999867e-02 0.000000000000000000e+00
6.200001000000000123e-02 0.000000000000000000e+00
6.300000999999999518e-02 0.000000000000000000e+00
6.400000999999999607e-02 0.000000000000000000e+00
6.500000000000000222e-02 0.000000000000000000e+00
6.600000000000000311e-02 0.000000000000000000e+00
6.700000000000000400e-02 0.000000000000000000e+00
6.800000000000000488e-02 0.000000000000000000e+00
6.900001000000000051e-02 0.000000000000000000e+00
7.000001000000000140e-02 0.000000000000000000e+00
7.100001000000000229e-02 0.000000000000000000e+00
7.199999999999999456e-02 0.000000000000000000e+00
7.299999999999999545e-02 0.000000000000000000e+00
7.399999999999999634e-02 0.000000000000000000e+00
7.499999999999999722e-02 0.000000000000000000e+00
7.600001000000000673e-02 0.000000000000000000e+00
7.700000999999999374e-02 0.000000000000000000e+00
7.800000999999999463e-02 0.000000000000000000e+00
7.900000999999999551e-02 0.000000000000000000e+00
8.000000000000000167e-02 0.000000000000000000e+00
8.100000000000000255e-02 0.000000000000000000e+00
8.200000000000000344e-02 0.000000000000000000e+00
8.300000000000000433e-02 0.000000000000000000e+00
8.400000999999999995e-02 0.000000000000000000e+00
8.500001000000000084e-02 0.000000000000000000e+00
8.600001000000000173e-02 0.000000000000000000e+00
8.700001000000000262e-02 0.000000000000000000e+00
8.799999999999999489e-02 0.000000000000000000e+00
8.899999999999999578e-02 0.000000000000000000e+00
8.999999999999999667e-02 0.000000000000000000e+00
9.100001000000000617e-02 0.000000000000000000e+00
9.200000999999999318e-02 0.000000000000000000e+00
9.300000999999999407e-02 0.000000000000000000e+00
9.400000999999999496e-02 0.000000000000000000e+00
9.500000000000000111e-02 0.000000000000000000e+00
9.600000000000000200e-02 0.000000000000000000e+00
9.700000000000000289e-02 0.000000000000000000e+00
9.800000000000000377e-02 0.000000000000000000e+00
9.900000999999999940e-02 0.000000000000000000e+00
1.000000000000000056e-01 0.000000000000000000e+00
1.010000000000000064e-01 0.000000000000000000e+00
1.019999999999999934e-01 0.000000000000000000e+00
1.029999999999999943e-01 0.000000000000000000e+00
1.039999999999999952e-01 0.000000000000000000e+00
1.049999999999999961e-01 0.000000000000000000e+00
1.059999999999999970e-01 0.000000000000000000e+00
1.069999999999999979e-01 0.000000000000000000e+00
1.079999999999999988e-01 0.000000000000000000e+00
1.089999999999999997e-01 0.000000000000000000e+00
1.100000000000000006e-01 0.000000000000000000e+00
1.110000000000000014e-01 0.000000000000000000e+00
1.120000000000000023e-01 0.000000000000000000e+00
1.130000000000000032e-01 0.000000000000000000e+00
1.140000000000000041e-01 0.000000000000000000e+00
1.150000000000000050e-01 0.000000000000000000e+00
1.160000000000000059e-01 0.000000000000000000e+00
1.170000000000000068e-01 0.000000000000000000e+00
1.179999999999999938e-01 0.000000000000000000e+00
1.189999999999999947e-01 0.000000000000000000e+00
1.199999999999999956e-01 0.000000000000000000e+00
1.209999999999999964e-01 0.000000000000000000e+00
1.219999999999999973e-01 0.000000000000000000e+00
1.229999999999999982e-01 0.000000000000000000e+00
1.239999999999999991e-01 0.000000000000000000e+00
1.250000000000000000e-01 0.000000000000000000e+00
1.260000000000000009e-01 0.000000000000000000e+00
1.270000000000000018e-01 0.000000000000000000e+00
1.280000000000000027e-01 0.000000000000000000e+00
1.290000000000000036e-01 0.000000000000000000e+00
1.300000000000000044e-01 0.000000000000000000e+00
1.310000000000000053e-01 0.000000000000000000e+00
1.320000000000000062e-01 0.000000000000000000e+00
1.330000000000000071e-01 0.000000000000000000e+00
1.340000000000000080e-01 0.000000000000000000e+00
1.350000000000000089e-01 0.000000000000000000e+00
1.360000000000000098e-01 0.000000000000000000e+00
1.370000000000000107e-01 -0.000000000000000000e+00
1.380000000000000115e-01 -8.407790785948902426e-45
1.390000000000000124e-01 -7.202674106629559745e-43
1.400000000000000133e-01 -3.775238192737489671e-41
1.409999999999999865e-01 -1.507316502240239756e-39
1.419999999999999873e-01 -4.386295127323598162e-38
1.429999999999999882e-01 -5.731571696914497674e-37
1.439999999999999891e-01 3.089264299766058646e-35
1.449999999999999900e-01 2.862191542021010043e-33
1.459999999999999909e-01 1.340733121519636134e-31
1.469999999999999918e-01 4.273363574956732008e-30
1.479999999999999927e-01 8.967078663552822346e-29
1.489999999999999936e-01 7.870001198569934678e-28
1.499999999999999944e-01 -2.061799679731888813e-26
1.509999999999999953e-01 -9.265224579931886073e-25
1.519999999999999962e-01 -1.478895840590831959e-23
1.529999999999999971e-01 -1.945902758659119302e-23
1.539999999999999980e-01 3.351620731481578289e-21
1.549999999999999989e-01 4.972075387070558883e-20
1.559999999999999998e-01 -1.764640718189426254e-20
1.570000000000000007e-01 -6.977868172828889383e-18
1.580000000000000016e-01 -4.463720364348068602e-17
1.590000000000000024e-01 4.033039381650576141e-16
1.600000000000000033e-01 4.636190791083155682e-15
1.610000000000000042e-01 -1.180661352782582177e-14
1.620000000000000051e-01 -2.227907799651901444e-13
1.630000000000000060e-01 2.549044417383961036e-13
1.640000000000000069e-01 5.840407584639661920e-12
1.650000000000000078e-01 -6.930201204569108597e-12
1.660000000000000087e-01 -7.850604194503674194e-11
1.670000000000000095e-01 1.324907267230557295e-10
1.680000000000000104e-01 4.116407492649187816e-10
1.690000000000000113e-01 -9.119205390817342050e-10
1.700000000000000122e-01 -2.516039598887687134e-10
1.710000000000000131e-01 9.291337144112787882e-10
1.719999999999999862e-01 -1.818237366224551010e-10
1.729999999999999871e-01 8.605119949933737189e-10
1.739999999999999880e-01 -4.636565575921736126e-10
1.749999999999999889e-01 2.359468176393875183e-10
1.759999999999999898e-01 -2.571646229299062725e-10
1.769999999999999907e-01 -5.910189004865173956e-10
1.779999999999999916e-01 3.542099114017815964e-10
1.789999999999999925e-01 -9.651701660118305881e-10
1.799999999999999933e-01 4.921648505407105745e-11
1.809999999999999942e-01 -3.674937958109136815e-12
1.819999999999999951e-01 -9.278471324591919256e-10
1.829999999999999960e-01 2.277741328882143534e-10
1.839999999999999969e-01 -7.144367042410948443e-11
1.849999999999999978e-01 -8.824592168110712009e-10
1.859999999999999987e-01 1.565100965494892193e-10
1.869999999999999996e-01 1.452406250823656819e-10
1.880000000000000004e-01 -7.804072388317706555e-10
1.890000000000000013e-01 -5.449181036953909540e-11
1.900000000000000022e-01 5.107953504612794404e-10
1.910000000000000031e-01 -3.560491068643756307e-10
1.920000000000000040e-01 -2.974906709862779053e-10
1.930000000000000049e-01 6.627825510641116580e-10
1.940000000000000058e-01 3.276907911686777197e-10
1.950000000000000067e-01 -3.932859038435765342e-10
1.960000000000000075e-01 1.836024110524192565e-10
1.970000000000000084e-01 6.396899676630596332e-10
1.980000000000000093e-01 -8.900117448584765611e-11
1.990000000000000102e-01 -2.236316687387329694e-10
2.000000000000000111e-01 9.398516409575563557e-10
2.010000000000000120e-01 1.539552818563549863e-09
2.020000000000000129e-01 8.705104415085429537e-10
2.030000000000000138e-01 1.474663863243463879e-10
2.039999999999999869e-01 -2.358634954013894003e-10
2.049999999999999878e-01 -3.169941253933217240e-10
2.059999999999999887e-01 5.666308533491815069e-10
2.069999999999999896e-01 1.266216020923138785e-09
2.079999999999999905e-01 1.201862082078619665e-10
2.089999999999999913e-01 -2.197839549245017565e-10
2.099999999999999922e-01 9.723636340552843649e-10
2.109999999999999931e-01 -4.174720014127331069e-10
2.119999999999999940e-01 -2.666362131087396392e-10
2.129999999999999949e-01 1.592243892289957330e-09
2.139999999999999958e-01 -1.584368969353988632e-09
2.149999999999999967e-01 4.693627708718395297e-10
2.159999999999999976e-01 3.109040802584672747e-10
2.169999999999999984e-01 -6.878271840982108642e-10
2.179999999999999993e-01 1.736988192169164336e-10
2.190000000000000002e-01 -1.453705822385131796e-09
2.200000000000000011e-01 1.478381972397357913e-09
2.210000000000000020e-01 -5.660991675426885195e-10
2.220000000000000029e-01 2.747357064070143906e-10
2.230000000000000038e-01 7.968099513533388745e-10
2.240000000000000047e-01 -1.404527161241730937e-09
2.250000000000000056e-01 2.952640354436653070e-09
2.260000000000000064e-01 -2.959260392287887953e-09
2.270000000000000073e-01 -1.077965383622370155e-09
2.280000000000000082e-01 4.377759932339131410e-09
2.290000000000000091e-01 -2.312112945546118681e-09
2.300000000000000100e-01 -5.111807865887385560e-09
2.310000000000000109e-01 4.173194678713798567e-09
2.320000000000000118e-01 1.031961982533857736e-08
2.330000000000000127e-01 1.893549317344422889e-09
2.340000000000000135e-01 -1.816323980108336400e-08
2.349999999999999867e-01 -4.306591350200505985e-08
2.359999999999999876e-01 -7.052454265021879110e-08
2.369999999999999885e-01 -1.019892863496352220e-07
2.379999999999999893e-01 -1.388063850527032628e-07
2.389999999999999902e-01 -1.817655146396646160e-07
2.399999999999999911e-01 -2.329546617829691968e-07
2.409999999999999920e-01 -2.956277285193209536e-07
2.419999999999999929e-01 -3.721792722899408545e-07
2.429999999999999938e-01 -4.644216176075133262e-07
2.439999999999999947e-01 -5.756306791226961650e-07
2.449999999999999956e-01 -7.106336852302774787e-07
2.459999999999999964e-01 -8.742863428778946400e-07
2.469999999999999973e-01 -1.071098722604801878e-06
2.479999999999999982e-01 -1.307649540649435949e-06
2.489999999999999991e-01 -1.592532385075173806e-06
2.500000000000000000e-01 -1.934763076860690489e-06
2.510000000000000009e-01 -2.343620508327148855e-06
2.520000000000000018e-01 -2.830842049661441706e-06
2.530000000000000027e-01 -3.411695388422231190e-06
2.540000000000000036e-01 -4.102756520296679810e-06
2.550000000000000044e-01 -4.922133939544437453e-06
2.560000000000000053e-01 -5.891035470995120704e-06
2.570000000000000062e-01 -7.034993814158951864e-06
2.580000000000000071e-01 -8.382682608498726040e-06
2.590000000000000080e-01 -9.965932804334443063e-06
2.600000000000000089e-01 -1.182158666779287159e-05
2.610000000000000098e-01 -1.399231678078649566e-05
2.620000000000000107e-01 -1.652579339861404151e-05
2.630000000000000115e-01 -1.947466989804524928e-05
2.640000000000000124e-01 -2.289838630531448871e-05
2.650000000000000133e-01 -2.686525658646132797e-05
2.660000000000000142e-01 -3.145083610434085131e-05
2.670000000000000151e-01 -3.673784158308990300e-05
2.680000000000000160e-01 -4.281815563444979489e-05
2.690000000000000169e-01 -4.979475852451287210e-05
2.700000000000000178e-01 -5.778080594609491527e-05
2.710000000000000187e-01 -6.689886504318565130e-05
2.720000000000000195e-01 -7.728291529929265380e-05
2.730000000000000204e-01 -8.907984010875225067e-05
2.740000000000000213e-01 -1.024488301482051611e-04
2.750000000000000222e-01 -1.175601573777385056e-04
2.760000000000000231e-01 -1.345966593362390995e-04
2.770000000000000240e-01 -1.537544303573668003e-04
2.780000000000000249e-01 -1.752419921103864908e-04
2.790000000000000258e-01 -1.992787438211962581e-04
2.800000000000000266e-01 -2.260951296193525195e-04
2.810000000000000275e-01 -2.559331478551030159e-04
2.819999999999999729e-01 -2.890434407163411379e-04
2.829999999999999738e-01 -3.256833297200500965e-04
2.839999999999999747e-01 -3.661156806629151106e-04
2.849999999999999756e-01 -4.106080741621553898e-04
2.859999999999999765e-01 -4.594294878188520670e-04
2.869999999999999774e-01 -5.128449411131441593e-04
2.879999999999999782e-01 -5.711138946935534477e-04
2.889999999999999791e-01 -6.344877183437347412e-04
2.899999999999999800e-01 -7.032047142274677753e-04
2.909999999999999809e-01 -7.774837431497871876e-04
2.919999999999999818e-01 -8.575200918130576611e-04
2.929999999999999827e-01 -9.434810490347445011e-04
2.939999999999999836e-01 -1.035500667057931423e-03
2.949999999999999845e-01 -1.133671146817505360e-03
2.959999999999999853e-01 -1.238038181327283382e-03
2.969999999999999862e-01 -1.348595484159886837e-03
2.979999999999999871e-01 -1.465277397073805332e-03
2.989999999999999880e-01 -1.587951788678765297e-03
2.999999999999999889e-01 -1.716414582915604115e-03
3.009999999999999898e-01 -1.850384636782109737e-03
3.019999999999999907e-01 -1.989497337490320206e-03
3.029999999999999916e-01 -2.133297501131892204e-03
3.039999999999999925e-01 -2.281237393617630005e-03
3.049999999999999933e-01 -2.432672772556543350e-03
3.059999999999999942e-01 -2.586859511211514473e-03
3.069999999999999951e-01 -2.742950338870286942e-03
3.079999999999999960e-01 -2.899996237829327583e-03
3.089999999999999969e-01 -3.056945744901895523e-03
3.099999999999999978e-01 -3.212649840861558914e-03
3.109999999999999987e-01 -3.365861950442194939e-03
3.119999999999999996e-01 -3.515243297442793846e-03
3.130000000000000004e-01 -3.659374080598354340e-03
3.140000000000000013e-01 -3.796758828684687614e-03
3.150000000000000022e-01 -3.925837576389312744e-03
3.160000000000000031e-01 -4.044997040182352066e-03
3.170000000000000040e-01 -4.152585752308368683e-03
3.180000000000000049e-01 -4.246931523084640503e-03
3.190000000000000058e-01 -4.326356109231710434e-03
3.200000000000000067e-01 -4.389191512018442154e-03
3.210000000000000075e-01 -4.433806054294109344e-03
3.220000000000000084e-01 -4.458618815988302231e-03
3.230000000000000093e-01 -4.462124779820442200e-03
3.240000000000000102e-01 -4.442915320396423340e-03
3.250000000000000111e-01 -4.399700090289115906e-03
3.260000000000000120e-01 -4.331330303102731705e-03
3.270000000000000129e-01 -4.236817825585603714e-03
3.280000000000000138e-01 -4.115357063710689545e-03
3.290000000000000147e-01 -3.966344054788351059e-03
3.300000000000000155e-01 -3.789395792409777641e-03
3.310000000000000164e-01 -3.584361402317881584e-03
3.320000000000000173e-01 -3.351339139044284821e-03
3.330000000000000182e-01 -3.090687328949570656e-03
3.340000000000000191e-01 -2.803031820803880692e-03
3.350000000000000200e-01 -2.489268314093351364e-03
3.360000000000000209e-01 -2.150567015632987022e-03
3.370000000000000218e-01 -1.788369379937648773e-03
3.380000000000000226e-01 -1.404383103363215923e-03
3.390000000000000235e-01 -1.000571064651012421e-03
3.400000000000000244e-01 -5.791386938653886318e-04
3.410000000000000253e-01 -1.425188820576295257e-04
3.420000000000000262e-01 3.066483477596193552e-04
3.430000000000000271e-01 7.655414519831538200e-04
3.439999999999999725e-01 1.231182250194251537e-03
3.449999999999999734e-01 1.700463821180164814e-03
3.459999999999999742e-01 2.170182298868894577e-03
3.469999999999999751e-01 2.637072233483195305e-03
3.479999999999999760e-01 3.097839653491973877e-03
3.489999999999999769e-01 3.549195360392332077e-03
3.499999999999999778e-01 3.987894859164953232e-03
3.509999999999999787e-01 4.410772118717432022e-03
3.519999999999999796e-01 4.814776591956615448e-03
3.529999999999999805e-01 5.197002086788415909e-03
3.539999999999999813e-01 5.554726812988519669e-03
3.549999999999999822e-01 5.885437130928039551e-03
3.559999999999999831e-01 6.186858285218477249e-03
3.569999999999999840e-01 6.456978619098663330e-03
3.579999999999999849e-01 6.694070529192686081e-03
3.589999999999999858e-01 6.896706763654947281e-03
3.599999999999999867e-01 7.063776720315217972e-03
3.609999999999999876e-01 7.194491103291511536e-03
3.619999999999999885e-01 7.288391236215829849e-03
3.629999999999999893e-01 7.345350459218025208e-03
3.639999999999999902e-01 7.365566212683916092e-03
3.649999999999999911e-01 7.349556777626276016e-03
3.659999999999999920e-01 7.298149168491363525e-03
3.669999999999999929e-01 7.212461903691291809e-03
3.679999999999999938e-01 7.093890104442834854e-03
3.689999999999999947e-01 6.944079883396625519e-03
3.699999999999999956e-01 6.764908786863088608e-03
3.709999999999999964e-01 6.558456458151340485e-03
3.719999999999999973e-01 6.326976232230663300e-03
3.729999999999999982e-01 6.072865799069404602e-03
3.739999999999999991e-01 5.798638332635164261e-03
3.750000000000000000e-01 5.506893154233694077e-03
3.760000000000000009e-01 5.200279410928487778e-03
3.770000000000000018e-01 4.881469998508691788e-03
3.780000000000000027e-01 4.553130827844142914e-03
3.790000000000000036e-01 4.217896610498428345e-03
3.800000000000000044e-01 3.878338262438774109e-03
3.810000000000000053e-01 3.536942182108759880e-03
3.820000000000000062e-01 3.196088364347815514e-03
3.830000000000000071e-01 2.858030376955866814e-03
3.840000000000000080e-01 2.524877432733774185e-03
3.850000000000000089e-01 2.198579022660851479e-03
3.860000000000000098e-01 1.880916766822338104e-03
3.870000000000000107e-01 1.573492656461894512e-03
3.880000000000000115e-01 1.277724397368729115e-03
3.890000000000000124e-01 9.948395891115069389e-04
3.900000000000000133e-01 7.258779369294643402e-04
3.910000000000000142e-01 4.716917173936963081e-04
3.920000000000000151e-01 2.329482085769996047e-04
3.930000000000000160e-01 1.013624023471493274e-05
3.940000000000000169e-01 -1.964259572559967637e-04
3.950000000000000178e-01 -3.865812323056161404e-04
3.960000000000000187e-01 -5.603239405900239944e-04
3.970000000000000195e-01 -7.177894585765898228e-04
3.980000000000000204e-01 -8.592398371547460556e-04
3.990000000000000213e-01 -9.850508067756891251e-04
4.000000000000000222e-01 -1.095700659789144993e-03
4.010000000000000231e-01 -1.191755291074514389e-03
4.020000000000000240e-01 -1.273855334147810936e-03
4.030000000000000249e-01 -1.342702074907720089e-03
4.040000000000000258e-01 -1.399046159349381924e-03
4.050000000000000266e-01 -1.443675137124955654e-03
4.060000000000000275e-01 -1.477400655858218670e-03
4.069999999999999729e-01 -1.501048798672854900e-03
4.079999999999999738e-01 -1.515451236627995968e-03
4.089999999999999747e-01 -1.521434634923934937e-03
4.099999999999999756e-01 -1.519812969490885735e-03
4.109999999999999765e-01 -1.511379261501133442e-03
4.119999999999999774e-01 -1.496903481893241405e-03
4.129999999999999782e-01 -1.477123470976948738e-03
4.139999999999999791e-01 -1.452741329558193684e-03
4.149999999999999800e-01 -1.424421090632677078e-03
4.159999999999999809e-01 -1.392786507494747639e-03
4.169999999999999818e-01 -1.358418492600321770e-03
4.179999999999999827e-01 -1.321852789260447025e-03
4.189999999999999836e-01 -1.283581950701773167e-03
4.199999999999999845e-01 -1.244054874405264854e-03
4.209999999999999853e-01 -1.203676685690879822e-03
4.220000999999999891e-01 -1.162809669040143490e-03
4.229999999999999871e-01 -1.121776411309838295e-03
4.239999999999999880e-01 -1.080860965885221958e-03
4.249999999999999889e-01 -1.040309201925992966e-03
4.259999999999999898e-01 -1.000332878902554512e-03
4.269999999999999907e-01 -9.611112182028591633e-04
4.279999999999999916e-01 -9.227944537997245789e-04
4.289999999999999925e-01 -8.855045889504253864e-04
4.299999999999999933e-01 -8.493386558257043362e-04
4.309999999999999942e-01 -8.143711602315306664e-04
4.319999999999999951e-01 -7.806574576534330845e-04
4.329999999999999960e-01 -7.482338696718215942e-04
4.339999999999999969e-01 -7.171208271756768227e-04
4.349999999999999978e-01 -6.873252568766474724e-04
4.359999999999999987e-01 -6.588436663150787354e-04
4.369999999999999996e-01 -6.316611543297767639e-04
4.380000000000000004e-01 -6.057536229491233826e-04
4.390000000000000013e-01 -5.810917937196791172e-04
4.400000000000000022e-01 -5.576408002525568008e-04
4.410000000000000031e-01 -5.353603046387434006e-04
4.420000000000000040e-01 -5.142066511325538158e-04
4.430000000000000049e-01 -4.941346705891191959e-04
4.440000000000000058e-01 -4.750978841912001371e-04
4.450000000000000067e-01 -4.570482415147125721e-04
4.460000000000000075e-01 -4.399371682666242123e-04
4.470000000000000084e-01 -4.237171087879687548e-04
4.480000000000000093e-01 -4.083417297806590796e-04
4.490000000000000102e-01 -3.937645815312862396e-04
4.500000000000000111e-01 -3.799405822064727545e-04
4.510000000000000120e-01 -3.668270073831081390e-04
4.520000000000000129e-01 -3.543830534908920527e-04
4.530000000000000138e-01 -3.425687900744378567e-04
4.540000000000000147e-01 -3.313460038043558598e-04
4.550000000000000155e-01 -3.206791589036583900e-04
4.560000000000000164e-01 -3.105361829511821270e-04
4.570000000000000173e-01 -3.008819476235657930e-04
4.580000000000000182e-01 -2.916906960308551788e-04
4.590001000000000220e-01 -2.829277073033154011e-04
4.600000000000000200e-01 -2.745771489571779966e-04
4.610000000000000209e-01 -2.665992942638695240e-04
4.620000000000000218e-01 -2.589895157143473625e-04
4.630000000000000226e-01 -2.517063985578715801e-04
4.640000000000000235e-01 -2.447484584990888834e-04
4.650000000000000244e-01 -2.380836667725816369e-04
4.660000000000000253e-01 -2.316989994142204523e-04
4.670000000000000262e-01 -2.255824801977723837e-04
4.680000000000000271e-01 -2.197107532992959023e-04
4.689999999999999725e-01 -2.140755677828565240e-04
4.699999999999999734e-01 -2.086658496409654617e-04
4.709999999999999742e-01 -2.034578938037157059e-04