-1.199999999999999956e-01 0.000000000000000000e+00
-1.189999999999999947e-01 0.000000000000000000e+00
-1.179999999999999938e-01 0.000000000000000000e+00
-1.170000000000000068e-01 0.000000000000000000e+00
-1.160000000000000059e-01 0.000000000000000000e+00
-1.150000000000000050e-01 0.000000000000000000e+00
-1.140000000000000041e-01 0.000000000000000000e+00
-1.130000000000000032e-01 0.000000000000000000e+00
-1.120000000000000023e-01 0.000000000000000000e+00
-1.110000000000000014e-01 0.000000000000000000e+00
-1.100000000000000006e-01 0.000000000000000000e+00
-1.089999999999999997e-01 0.000000000000000000e+00
-1.079999999999999988e-01 0.000000000000000000e+00
-1.069999999999999979e-01 0.000000000000000000e+00
-1.059999999999999970e-01 0.000000000000000000e+00
-1.049999999999999961e-01 0.000000000000000000e+00
-1.039999999999999952e-01 0.000000000000000000e+00
-1.029999999999999943e-01 0.000000000000000000e+00
-1.019999999999999934e-01 0.000000000000000000e+00
-1.010000000000000064e-01 0.000000000000000000e+00
-1.000000000000000056e-01 0.000000000000000000e+00
-9.900000999999999940e-02 0.000000000000000000e+00
-9.800000000000000377e-02 0.000000000000000000e+00
-9.700000000000000289e-02 0.000000000000000000e+00
-9.600000000000000200e-02 0.000000000000000000e+00
-9.500000999999999585e-02 0.000000000000000000e+00
-9.400000000000000022e-02 0.000000000000000000e+00
-9.299999999999999933e-02 0.000000000000000000e+00
-9.200000999999999318e-02 0.000000000000000000e+00
-9.100001000000000617e-02 0.000000000000000000e+00
-8.999999999999999667e-02 0.000000000000000000e+00
-8.899999999999999578e-02 0.000000000000000000e+00
-8.799999999999999489e-02 0.000000000000000000e+00
-8.699999999999999400e-02 0.000000000000000000e+00
-8.599999999999999312e-02 0.000000000000000000e+00
-8.500001000000000084e-02 0.000000000000000000e+00
-8.400000999999999995e-02 0.000000000000000000e+00
-8.300000000000000433e-02 0.000000000000000000e+00
-8.200000000000000344e-02 0.000000000000000000e+00
-8.100000000000000255e-02 0.000000000000000000e+00
-8.000000000000000167e-02 0.000000000000000000e+00
-7.900000000000000078e-02 0.000000000000000000e+00
-7.799999999999999989e-02 0.000000000000000000e+00
-7.700000999999999374e-02 0.000000000000000000e+00
-7.600001000000000673e-02 0.000000000000000000e+00
-7.499999999999999722e-02 0.000000000000000000e+00
-7.399999999999999634e-02 0.000000000000000000e+00
-7.299999999999999545e-02 0.000000000000000000e+00
-7.199999999999999456e-02 0.000000000000000000e+00
-7.099999999999999367e-02 0.000000000000000000e+00
-7.000001000000000140e-02 0.000000000000000000e+00
-6.900001000000000051e-02 0.000000000000000000e+00
-6.800000000000000488e-02 0.000000000000000000e+00
-6.700000000000000400e-02 0.000000000000000000e+00
-6.600000000000000311e-02 0.000000000000000000e+00
-6.500000000000000222e-02 0.000000000000000000e+00
-6.400000000000000133e-02 0.000000000000000000e+00
-6.300000000000000044e-02 0.000000000000000000e+00
-6.199999999999999956e-02 0.000000000000000000e+00
-6.099999999999999867e-02 0.000000000000000000e+00
-5.999999999999999778e-02 0.000000000000000000e+00
-5.899999999999999689e-02 0.000000000000000000e+00
-5.800000000000000294e-02 0.000000000000000000e+00
-5.700000000000000205e-02 0.000000000000000000e+00
-5.600000000000000117e-02 0.000000000000000000e+00
-5.500000000000000028e-02 0.000000000000000000e+00
-5.400001000000000106e-02 0.000000000000000000e+00
-5.299999999999999850e-02 0.000000000000000000e+00
-5.199999999999999761e-02 0.000000000000000000e+00
-5.099999999999999672e-02 0.000000000000000000e+00
-5.000000000000000278e-02 0.000000000000000000e+00
-4.900000000000000189e-02 0.000000000000000000e+00
-4.800000000000000100e-02 0.000000000000000000e+00
-4.700000000000000011e-02 0.000000000000000000e+00
-4.599999999999999922e-02 0.000000000000000000e+00
-4.499999999999999833e-02 0.000000000000000000e+00
-4.399999999999999745e-02 0.000000000000000000e+00
-4.299999999999999656e-02 0.000000000000000000e+00
-4.200000000000000261e-02 0.000000000000000000e+00
-4.100000000000000172e-02 0.000000000000000000e+00
-4.000000000000000083e-02 0.000000000000000000e+00
-3.899999999999999994e-02 0.000000000000000000e+00
-3.799999999999999906e-02 0.000000000000000000e+00
-3.699999999999999817e-02 0.000000000000000000e+00
-3.599999999999999728e-02 0.000000000000000000e+00
-3.500000000000000333e-02 0.000000000000000000e+00
-3.400000000000000244e-02 0.000000000000000000e+00
-3.300000000000000155e-02 0.000000000000000000e+00
-3.200000000000000067e-02 0.000000000000000000e+00
-3.099999999999999978e-02 0.000000000000000000e+00
-2.999999999999999889e-02 0.000000000000000000e+00
-2.900000000000000147e-02 0.000000000000000000e+00
-2.800000000000000058e-02 0.000000000000000000e+00
-2.699999999999999969e-02 0.000000000000000000e+00
-2.599999999999999881e-02 0.000000000000000000e+00
-2.500000000000000139e-02 0.000000000000000000e+00
-2.400000000000000050e-02 0.000000000000000000e+00
-2.299999999999999961e-02 0.000000000000000000e+00
-2.199999999999999872e-02 0.000000000000000000e+00
-2.100000000000000130e-02 0.000000000000000000e+00
-2.000000000000000042e-02 0.000000000000000000e+00
-1.899999999999999953e-02 0.000000000000000000e+00
-1.799999999999999864e-02 0.000000000000000000e+00
-1.700000000000000122e-02 0.000000000000000000e+00
-1.600000000000000033e-02 0.000000000000000000e+00
-1.499999999999999944e-02 0.000000000000000000e+00
-1.400000000000000029e-02 0.000000000000000000e+00
-1.299999999999999940e-02 0.000000000000000000e+00
-1.200000000000000025e-02 0.000000000000000000e+00
-1.099999999999999936e-02 0.000000000000000000e+00
-9.999997999999999526e-03 0.000000000000000000e+00
-8.999995999999999691e-03 0.000000000000000000e+00
-8.000000999999999640e-03 0.000000000000000000e+00
-6.999998999999999805e-03 0.000000000000000000e+00
-5.999996999999999969e-03 0.000000000000000000e+00
-5.000003000000000260e-03 0.000000000000000000e+00
-4.000001000000000424e-03 0.000000000000000000e+00
-2.999999000000000155e-03 0.000000000000000000e+00
-1.999996999999999886e-03 0.000000000000000000e+00
-1.000002000000000052e-03 0.000000000000000000e+00
0.000000000000000000e+00 0.000000000000000000e+00
1.000002000000000052e-03 0.000000000000000000e+00
2.000004000000000105e-03 0.000000000000000000e+00
2.999999000000000155e-03 0.000000000000000000e+00
4.000001000000000424e-03 0.000000000000000000e+00
4.999995000000000134e-03 0.000000000000000000e+00
5.999996999999999969e-03 0.000000000000000000e+00
6.999998999999999805e-03 0.000000000000000000e+00
8.000000999999999640e-03 0.000000000000000000e+00
9.000002999999999476e-03 0.000000000000000000e+00
1.000001000000000015e-02 0.000000000000000000e+00
1.100000999999999930e-02 0.000000000000000000e+00
1.199999000000000031e-02 0.000000000000000000e+00
1.299999999999999940e-02 0.000000000000000000e+00
1.400000000000000029e-02 0.000000000000000000e+00
1.499999999999999944e-02 0.000000000000000000e+00
1.600000000000000033e-02 0.000000000000000000e+00
1.700000000000000122e-02 0.000000000000000000e+00
1.800001000000000032e-02 0.000000000000000000e+00
1.900001000000000120e-02 0.000000000000000000e+00
2.000000000000000042e-02 0.000000000000000000e+00
2.100000000000000130e-02 0.000000000000000000e+00
2.199999999999999872e-02 0.000000000000000000e+00
2.299999999999999961e-02 0.000000000000000000e+00
2.400000000000000050e-02 0.000000000000000000e+00
2.500000999999999959e-02 0.000000000000000000e+00
2.600001000000000048e-02 0.000000000000000000e+00
2.699999999999999969e-02 0.000000000000000000e+00
2.800000000000000058e-02 0.000000000000000000e+00
2.900000000000000147e-02 0.000000000000000000e+00
2.999999999999999889e-02 0.000000000000000000e+00
3.099999999999999978e-02 0.000000000000000000e+00
3.200001000000000234e-02 0.000000000000000000e+00
3.300001000000000323e-02 0.000000000000000000e+00
3.400000999999999718e-02 0.000000000000000000e+00
3.500000000000000333e-02 0.000000000000000000e+00
3.599999999999999728e-02 0.000000000000000000e+00
3.699999999999999817e-02 0.000000000000000000e+00
3.799999999999999906e-02 0.000000000000000000e+00
3.899999999999999994e-02 0.000000000000000000e+00
4.000001000000000251e-02 0.000000000000000000e+00
4.100001000000000340e-02 0.000000000000000000e+00
4.200000000000000261e-02 0.000000000000000000e+00
4.299999999999999656e-02 0.000000000000000000e+00
4.399999999999999745e-02 0.000000000000000000e+00
4.499999999999999833e-02 0.000000000000000000e+00
4.599999999999999922e-02 0.000000000000000000e+00
4.700001000000000179e-02 0.000000000000000000e+00
4.800001000000000267e-02 0.000000000000000000e+00
4.900000999999999662e-02 0.000000000000000000e+00
5.000000000000000278e-02 0.000000000000000000e+00
5.099999999999999672e-02 0.000000000000000000e+00
5.199999999999999761e-02 0.000000000000000000e+00
5.299999999999999850e-02 0.000000000000000000e+00
5.400001000000000106e-02 0.000000000000000000e+00
5.500001000000000195e-02 0.000000000000000000e+00
5.600001000000000284e-02 0.000000000000000000e+00
5.700000000000000205e-02 0.000000000000000000e+00
5.800000000000000294e-02 0.000000000000000000e+00
5.899999999999999689e-02 0.000000000000000000e+00
5.999999999999999778e-02 0.000000000000000000e+00
6.099999999999999867e-02 0.000000000000000000e+00
6.200001000000000123e-02 0.000000000000000000e+00
6.300000999999999518e-02 0.000000000000000000e+00
6.400000999999999607e-02 0.000000000000000000e+00
6.500000000000000222e-02 0.000000000000000000e+00
6.600000000000000311e-02 0.000000000000000000e+00
6.700000000000000400e-02 0.000000000000000000e+00
6.800000000000000488e-02 0.000000000000000000e+00
6.900001000000000051e-02 0.000000000000000000e+00
7.000001000000000140e-02 0.000000000000000000e+00
7.100001000000000229e-02 0.000000000000000000e+00
7.199999999999999456e-02 0.000000000000000000e+00
7.299999999999999545e-02 0.000000000000000000e+00
7.399999999999999634e-02 0.000000000000000000e+00
7.499999999999999722e-02 0.000000000000000000e+00
7.600001000000000673e-02 0.000000000000000000e+00
7.700000999999999374e-02 0.000000000000000000e+00
7.800000999999999463e-02 0.000000000000000000e+00
7.900000999999999551e-02 -0.000000000000000000e+00
8.000000000000000167e-02 -0.000000000000000000e+00
8.100000000000000255e-02 0.000000000000000000e+00
8.200000000000000344e-02 -0.000000000000000000e+00
8.300000000000000433e-02 1.821688003622262192e-44
8.400000999999999995e-02 3.180947514017334751e-43
8.500001000000000084e-02 3.241203347983301885e-42
8.600001000000000173e-02 1.347768862987609059e-41
8.700001000000000262e-02 -2.606905598106673438e-40
8.799999999999999489e-02 -7.859571998138818841e-39
8.899999999999999578e-02 -1.303717868670848401e-37
8.999999999999999667e-02 -1.672958085833750789e-36
9.100001000000000617e-02 -1.804813302949712681e-35
9.200000999999999318e-02 -1.689275495712232178e-34
9.300000999999999407e-02 -1.386251671717092491e-33
9.400000999999999496e-02 -9.919333406965038951e-33
9.500000000000000111e-02 -6.009462725040693504e-32
9.600000000000000200e-02 -2.800511377133487298e-31
9.700000000000000289e-02 -5.885945187589904917e-31
9.800000000000000377e-02 6.475478268058365956e-30
9.900000999999999940e-02 1.122228184126640581e-28
1.000000000000000056e-01 1.113367871195114188e-27
1.010000000000000064e-01 8.705023081587511411e-27
1.019999999999999934e-01 5.706033689368123477e-26
1.029999999999999943e-01 3.123355717488051040e-25
1.039999999999999952e-01 1.321537357926850127e-24
1.049999999999999961e-01 2.804503464408828310e-24
1.059999999999999970e-01 -1.938885683134997357e-23
1.069999999999999979e-01 -3.247824912683945295e-22
1.079999999999999988e-01 -2.907910226474337163e-21
1.089999999999999997e-01 -2.050394461322417786e-20
1.100000000000000006e-01 -1.237750675617957270e-19
1.110000000000000014e-01 -6.589376594288765787e-19
1.120000000000000023e-01 -3.128424373635764916e-18
1.130000000000000032e-01 -1.327000609939315648e-17
1.140000000000000041e-01 -5.003586739447947560e-17
1.150000000000000050e-01 -1.654784741579682500e-16
1.160000000000000059e-01 -4.667534292384235405e-16
1.170000000000000068e-01 -1.051261802320613541e-15
1.179999999999999938e-01 -1.504855462992698255e-15
1.189999999999999947e-01 9.368178043885457343e-16
1.199999999999999956e-01 1.595570531709618323e-14
1.209999999999999964e-01 6.746119369507516672e-14
1.219999999999999973e-01 1.965570718340248213e-13
1.229999999999999982e-01 4.385885101279574094e-13
1.239999999999999991e-01 7.448813159165179609e-13
1.250000000000000000e-01 8.612664075847986656e-13
1.260000000000000009e-01 3.021481448286372773e-13
1.270000000000000018e-01 -1.326418141989194055e-12
1.280000000000000027e-01 -3.615366252901486277e-12
1.290000000000000036e-01 -4.951798086155756451e-12
1.300000000000000044e-01 -3.617818935056082985e-12
1.310000000000000053e-01 -2.117745405037438355e-13
1.320000000000000062e-01 1.717769806605651262e-12
1.330000000000000071e-01 -3.209086371202402033e-13
1.340000000000000080e-01 -3.187920413760814142e-12
1.350000000000000089e-01 -1.630023590062923411e-12
1.360000000000000098e-01 2.592770182580084182e-12
1.370000000000000107e-01 2.353561573062434853e-12
1.380000000000000115e-01 -1.447188072503657885e-12
1.390000000000000124e-01 -4.985409871385848568e-13
1.400000000000000133e-01 3.286301352573017809e-12
1.409999999999999865e-01 7.605181133289729001e-13
1.419999999999999873e-01 -3.037932318900038453e-12
1.429999999999999882e-01 3.166198585865392934e-13
1.439999999999999891e-01 1.499014237391071980e-12
1.449999999999999900e-01 -2.960842074989367134e-12
1.459999999999999909e-01 -5.744073294268459140e-13
1.469999999999999918e-01 3.018913461230732231e-12
1.479999999999999927e-01 -1.355223116887571688e-12
1.489999999999999936e-01 -2.332727923586713770e-13
1.499999999999999944e-01 2.974254740065185310e-12
1.509999999999999953e-01 -2.332577056854412412e-12
1.519999999999999962e-01 -8.731698632365170187e-13
1.529999999999999971e-01 1.946742463412864943e-12
1.539999999999999980e-01 -2.808320850172796312e-12
1.549999999999999989e-01 1.229054618495650786e-12
1.559999999999999998e-01 1.874370450516416042e-12
1.570000000000000007e-01 -2.372883356818733525e-12
1.580000000000000016e-01 2.456632336791941817e-12
1.590000000000000024e-01 -1.259166599112959695e-12
1.600000000000000033e-01 -1.623147254624368596e-12
1.610000000000000042e-01 2.430634903419215398e-12
1.620000000000000051e-01 -2.525194896935145650e-12
1.630000000000000060e-01 2.275830565667824601e-12
1.640000000000000069e-01 5.511046737775686377e-14
1.650000000000000078e-01 -1.632898135282834229e-12
1.660000000000000087e-01 2.174241038946367333e-12
1.670000000000000095e-01 -3.142780740511552651e-12
1.680000000000000104e-01 2.397559147743200114e-12
1.690000000000000113e-01 -7.580345314124603551e-13
1.700000000000000122e-01 -5.992610718091352651e-15
1.710000000000000131e-01 1.632168250380316987e-12
1.719999999999999862e-01 -3.341952582724960763e-12
1.729999999999999871e-01 3.907219599946776256e-12
1.739999999999999880e-01 -5.588429025094043823e-12
1.749999999999999889e-01 8.117446818889373361e-12
1.759999999999999898e-01 -9.874856141123267150e-12
1.769999999999999907e-01 8.921600437583609988e-12
1.779999999999999916e-01 2.342695698889785128e-12
1.789999999999999925e-01 -1.934937626790755871e-11
1.799999999999999933e-01 4.588718294229465755e-12
1.809999999999999942e-01 3.199376180651469781e-11
1.819999999999999951e-01 2.428240594709585309e-11
1.829999999999999960e-01 -2.696965741011414508e-11
1.839999999999999969e-01 -3.532686643215043887e-11
1.849999999999999978e-01 -2.426540305494606642e-12
1.859999999999999987e-01 3.953016733393432958e-11
1.869999999999999996e-01 2.008702752742674846e-11
1.880000000000000004e-01 -2.346030834876611237e-11
1.890000000000000013e-01 -3.718275340403032203e-11
1.900000000000000022e-01 4.137784732904936646e-12
1.910000000000000031e-01 3.941731663292813437e-11
1.920000000000000040e-01 1.963582768604865691e-11
1.930000000000000049e-01 -2.705871811337079436e-11
1.940000000000000058e-01 -3.781635074528999496e-11
1.950000000000000067e-01 6.417530569458040901e-12
1.960000000000000075e-01 3.745697155221883179e-11
1.970000000000000084e-01 1.690618131600096774e-11
1.980000000000000093e-01 -3.483262636660988676e-11
1.990000000000000102e-01 -3.848555502061756783e-11
2.000000000000000111e-01 6.232565461991579348e-13
2.010000000000000120e-01 3.272250526098474666e-11
2.020000000000000129e-01 -5.979319144845673950e-13
2.030000000000000138e-01 -4.848953183422821667e-11
2.039999999999999869e-01 -5.756769366760394746e-11
2.049999999999999878e-01 -1.355921798451564797e-11
2.059999999999999887e-01 4.351039493977193473e-12
2.069999999999999896e-01 -3.361642561539035512e-11
2.079999999999999905e-01 -9.495929736980102120e-11
2.089999999999999913e-01 -1.045450809256109892e-10
2.099999999999999922e-01 -7.417241820739661762e-11
2.109999999999999931e-01 -6.924897461013657107e-11
2.119999999999999940e-01 -1.296592416766273459e-10
2.129999999999999949e-01 -2.067260251870095544e-10
2.139999999999999958e-01 -2.335153181931559629e-10
2.149999999999999967e-01 -2.270319904296158597e-10
2.159999999999999976e-01 -2.520476050094089260e-10
2.169999999999999984e-01 -3.529752601316715754e-10
2.179999999999999993e-01 -4.626758420833709806e-10
2.190000000000000002e-01 -5.353242849004402615e-10
2.200000000000000011e-01 -5.699579697093781760e-10
2.210000000000000020e-01 -6.643639527403877310e-10
2.220000000000000029e-01 -8.248350891193467760e-10
2.230000000000000038e-01 -1.015837636231253782e-09
2.240000000000000047e-01 -1.155711415457005842e-09
2.250000000000000056e-01 -1.290280549071098903e-09
2.260000000000000064e-01 -1.482178602074668561e-09
2.270000000000000073e-01 -1.766330415264860676e-09
2.280000000000000082e-01 -2.073282434622569781e-09
2.290000000000000091e-01 -2.349028971337929761e-09
2.300000000000000100e-01 -2.630525575142428352e-09
2.310000000000000109e-01 -2.988082226096366867e-09
2.320000000000000118e-01 -3.453058727842517328e-09
2.330000000000000127e-01 -3.940894721665699763e-09
2.340000000000000135e-01 -4.420220633960525447e-09
2.349999999999999867e-01 -4.908514927848273146e-09
2.359999999999999876e-01 -5.505269129457701638e-09
2.369999999999999885e-01 -6.204186053793137035e-09
2.379999999999999893e-01 -6.944997021918197788e-09
2.389999999999999902e-01 -7.672269930480979383e-09
2.399999999999999911e-01 -8.427019082546394202e-09
2.409999999999999920e-01 -9.299227166081891482e-09
2.419999999999999929e-01 -1.027305618350737859e-08
2.429999999999999938e-01 -1.128722981746932419e-08
2.439999999999999947e-01 -1.227111301460581672e-08
2.449999999999999956e-01 -1.329339394118278506e-08
2.459999999999999964e-01 -1.441426533688172640e-08
2.469999999999999973e-01 -1.562773022101282550e-08
2.479999999999999982e-01 -1.684412609392893501e-08
2.489999999999999991e-01 -1.800734317214391922e-08
2.500000000000000000e-01 -1.918139780343608436e-08
2.510000000000000009e-01 -2.041577751299428201e-08
2.520000000000000018e-01 -2.170428636816268408e-08
2.530000000000000027e-01 -2.292805234560546523e-08
2.540000000000000036e-01 -2.404974530634262919e-08
2.550000000000000044e-01 -2.511757024592498055e-08
2.560000000000000053e-01 -2.618102179496872850e-08
2.570000000000000062e-01 -2.721753666889981105e-08
2.580000000000000071e-01 -2.810253540985740983e-08
2.590000000000000080e-01 -2.880820559880703513e-08
2.600000000000000089e-01 -2.936852538937273494e-08
2.610000000000000098e-01 -2.983856006721907761e-08
2.620000000000000107e-01 -3.017534666582832870e-08
2.630000000000000115e-01 -3.026611494760800269e-08
2.640000000000000124e-01 -3.008424087624916865e-08
2.650000000000000133e-01 -2.966028489481686847e-08
2.660000000000000142e-01 -2.906264207069853001e-08
2.670000000000000151e-01 -2.823889033720661246e-08
2.680000000000000160e-01 -2.708715562960151146e-08
2.690000000000000169e-01 -2.558446077216558479e-08
2.700000000000000178e-01 -2.378377317313606909e-08
2.710000000000000187e-01 -2.176556179733779572e-08
2.720000000000000195e-01 -1.947137384661346005e-08
2.730000000000000204e-01 -1.681780936735322030e-08
2.740000000000000213e-01 -1.380092129465992912e-08
2.750000000000000222e-01 -1.050594189422326963e-08
2.760000000000000231e-01 -7.020712899930003914e-09
2.770000000000000240e-01 -3.292972339252742131e-09
2.780000000000000249e-01 7.332760509903835100e-10
2.790000000000000258e-01 5.037988248801639202e-09
2.800000000000000266e-01 9.511138543416564062e-09
2.810000000000000275e-01 1.405339666860072612e-08
2.819999999999999729e-01 1.870163401918034651e-08
2.829999999999999738e-01 2.348669170260109240e-08
2.839999999999999747e-01 2.837783164011398185e-08
2.849999999999999756e-01 3.323772546082182089e-08
2.859999999999999765e-01 3.795877034917793935e-08
2.869999999999999774e-01 4.257688601683184970e-08
2.879999999999999782e-01 4.710653911388362758e-08
2.889999999999999791e-01 5.150749160520717851e-08
2.899999999999999800e-01 5.564402272284496576e-08
2.909999999999999809e-01 5.940480107824441802e-08
2.919999999999999818e-01 6.282897402343223803e-08
2.929999999999999827e-01 6.594794399461534340e-08
2.939999999999999836e-01 6.872047464412389672e-08
2.949999999999999845e-01 7.101358789896039525e-08
2.959999999999999853e-01 7.273569480048536207e-08
2.969999999999999862e-01 7.397142809395518270e-08
2.979999999999999871e-01 7.476496222125206259e-08
2.989999999999999880e-01 7.505752108727392624e-08
2.999999999999999889e-01 7.477766672536745318e-08
3.009999999999999898e-01 7.386980627188677317e-08
3.019999999999999907e-01 7.243599497996910941e-08
3.029999999999999916e-01 7.053386497091196361e-08
3.039999999999999925e-01 6.816275543997107889e-08
3.049999999999999933e-01 6.524754070369453984e-08
3.059999999999999942e-01 6.178628808584107901e-08
3.069999999999999951e-01 5.791425650158998906e-08
3.079999999999999960e-01 5.373104627892644203e-08
3.089999999999999969e-01 4.921416518754995195e-08
3.099999999999999978e-01 4.432957823041761003e-08
3.109999999999999987e-01 3.910543355800655263e-08
3.119999999999999996e-01 3.372012358227038931e-08
3.130000000000000004e-01 2.827036738040078490e-08
3.140000000000000013e-01 2.270359367173568899e-08
3.150000000000000022e-01 1.702815843884764035e-08
3.160000000000000031e-01 1.130445692609782782e-08
3.170000000000000040e-01 5.664586577580621451e-09
3.180000000000000049e-01 2.097529649969231968e-10
3.190000000000000058e-01 -5.088041543643839759e-09
3.200000000000000067e-01 -1.024053730702689791e-08
3.210000000000000075e-01 -1.520849757241649058e-08
3.220000000000000084e-01 -1.987941189440789458e-08
3.230000000000000093e-01 -2.415669619892923947e-08
3.240000000000000102e-01 -2.808318377844898350e-08
3.250000000000000111e-01 -3.171911444610486797e-08
3.260000000000000120e-01 -3.502777801145384728e-08
3.270000000000000129e-01 -3.791250691165259923e-08
3.280000000000000138e-01 -4.031355160805105697e-08
3.290000000000000147e-01 -4.230635042290487036e-08
3.300000000000000155e-01 -4.396433794795484573e-08
3.310000000000000164e-01 -4.525087504703151353e-08
3.320000000000000173e-01 -4.612524406866214122e-08
3.330000000000000182e-01 -4.655100838135695085e-08
3.340000000000000191e-01 -4.660888208718461101e-08
3.350000000000000200e-01 -4.641241346803326451e-08
3.360000000000000209e-01 -4.592487456989147177e-08
3.370000000000000218e-01 -4.508780904188824934e-08
3.380000000000000226e-01 -4.391219121657741198e-08
3.390000000000000235e-01 -4.252394347759036464e-08
3.400000000000000244e-01 -4.100917294636019506e-08
3.410000000000000253e-01 -3.932851200261211488e-08
3.420000000000000262e-01 -3.741262588619065355e-08
3.430000000000000271e-01 -3.531869197104242630e-08
3.439999999999999725e-01 -3.316232977113031666e-08
3.449999999999999734e-01 -3.101637346958341368e-08
3.459999999999999742e-01 -2.884230809740984114e-08
3.469999999999999751e-01 -2.656186381955194520e-08
3.479999999999999760e-01 -2.422081557540423091e-08
3.489999999999999769e-01 -2.194580694947489974e-08
3.499999999999999778e-01 -1.978125396817631554e-08
3.509999999999999787e-01 -1.771324065202861675e-08
3.519999999999999796e-01 -1.563537566084960417e-08
3.529999999999999805e-01 -1.353049672303541229e-08
3.539999999999999813e-01 -1.158645535070945698e-08
3.549999999999999822e-01 -9.833674319281726639e-09
3.559999999999999831e-01 -8.211826774129349360e-09
3.569999999999999840e-01 -6.612969727370909823e-09
3.579999999999999849e-01 -5.047604112462522608e-09
3.589999999999999858e-01 -3.659304859127132659e-09
3.599999999999999867e-01 -2.477648974874568921e-09
3.609999999999999876e-01 -1.418441253342450636e-09
3.619999999999999885e-01 -3.857833774656427295e-10
3.629999999999999893e-01 5.939805869381586945e-10
3.639999999999999902e-01 1.433495322444855447e-09
3.649999999999999911e-01 2.063181625544530107e-09
3.659999999999999920e-01 2.605190063675877354e-09
3.669999999999999929e-01 3.150909977378546500e-09
3.679999999999999938e-01 3.652622870831123691e-09
3.689999999999999947e-01 4.019117927356319342e-09
3.699999999999999956e-01 4.230732653098812079e-09
3.709999999999999964e-01 4.388151619849622875e-09
3.719999999999999973e-01 4.596161229386552804e-09
3.729999999999999982e-01 4.784892926323891515e-09
3.739999999999999991e-01 4.852206636485334457e-09
3.750000000000000000e-01 4.788162311086807676e-09
3.760000000000000009e-01 4.705080325351218562e-09
3.770000000000000018e-01 4.707896295030877809e-09
3.780000000000000027e-01 4.714103329916952134e-09
3.790000000000000036e-01 4.619176152687032300e-09
3.800000000000000044e-01 4.419531407506838150e-09
3.810000000000000053e-01 4.258183583516483850e-09
3.820000000000000062e-01 4.160989330870279446e-09
3.830000000000000071e-01 4.083283489109135189e-09
3.840000000000000080e-01 3.932566272624171688e-09
3.850000000000000089e-01 3.662770087231592697e-09
3.860000000000000098e-01 3.480718158144213703e-09
3.870000000000000107e-01 3.408022308803992928e-09
3.880000000000000115e-01 3.279811977563440450e-09
3.890000000000000124e-01 3.211815702286457963e-09
3.900000000000000133e-01 3.029059003623046920e-09
3.910000000000000142e-01 2.744418692302019736e-09
3.920000000000000151e-01 3.096303435867753251e-09
3.930000000000000160e-01 3.078762578212490553e-09
3.940000000000000169e-01 3.025126815714429540e-09
3.950000000000000178e-01 4.221705207640980007e-09
3.960000000000000187e-01 3.955177962922107326e-09
3.970000000000000195e-01 5.326742602562717366e-09
3.980000000000000204e-01 8.546154894872870500e-09
3.990000000000000213e-01 8.386813910021828633e-09
4.000000000000000222e-01 1.369857738353630339e-08
4.010000000000000231e-01 1.908686897422740003e-08
4.020000000000000240e-01 2.141633892449590348e-08
4.030000000000000249e-01 3.399398806891440472e-08
4.040000000000000258e-01 4.185298863035313843e-08
4.050000000000000266e-01 5.129768254619193613e-08
4.060000000000000275e-01 7.085322550892669824e-08
4.069999999999999729e-01 8.439022991524325334e-08
4.079999999999999738e-01 1.043596640215582738e-07
4.089999999999999747e-01 1.298344898259529145e-07
4.099999999999999756e-01 1.553534474396656151e-07
4.109999999999999765e-01 1.844722277155597112e-07
4.119999999999999774e-01 2.220339609948496218e-07
4.129999999999999782e-01 2.650956503202905878e-07
4.139999999999999791e-01 3.104895256456075003e-07
4.149999999999999800e-01 3.726960642325138906e-07
4.159999999999999809e-01 4.439138763245864538e-07
4.169999999999999818e-01 5.273166721053712536e-07
4.179999999999999827e-01 6.302316819528641645e-07
4.189999999999999836e-01 7.553794034720340278e-07
4.199999999999999845e-01 8.990802484731830191e-07
4.209999999999999853e-01 1.069309746526414528e-06
4.220000999999999891e-01 1.273616931030119304e-06
4.229999999999999871e-01 1.505893465036933776e-06
4.239999999999999880e-01 1.774782049324130639e-06
4.249999999999999889e-01 2.088108658426790498e-06
4.259999999999999898e-01 2.450840838719159365e-06
4.269999999999999907e-01 2.863134113795240410e-06
4.279999999999999916e-01 3.343383696119417436e-06
4.289999999999999925e-01 3.897482201864477247e-06
4.299999999999999933e-01 4.532395905698649585e-06
4.309999999999999942e-01 5.259034878690727055e-06
4.319999999999999951e-01 6.095815933804260567e-06
4.329999999999999960e-01 7.046395694487728179e-06
4.339999999999999969e-01 8.122646249830722809e-06
4.349999999999999978e-01 9.342148587165866047e-06
4.359999999999999987e-01 1.072036593541270122e-05
4.369999999999999996e-01 1.226584845426259562e-05
4.380000000000000004e-01 1.400007386109791696e-05
4.390000000000000013e-01 1.594548666616901755e-05
4.400000000000000022e-01 1.811803304008208215e-05
4.410000000000000031e-01 2.053453317785169929e-05
4.420000000000000040e-01 2.322154978173784912e-05
4.430000000000000049e-01 2.619866427266970277e-05
4.440000000000000058e-01 2.947994653368368745e-05
4.450000000000000067e-01 3.308551458758302033e-05
4.460000000000000075e-01 3.704024857142940164e-05
4.470000000000000084e-01 4.135896233492530882e-05
4.480000000000000093e-01 4.605673166224732995e-05
4.490000000000000102e-01 5.115480962558649480e-05
4.500000000000000111e-01 5.667251753038726747e-05
4.510000000000000120e-01 6.261641101446002722e-05
4.520000000000000129e-01 6.899556319694966078e-05
4.530000000000000138e-01 7.581863610539585352e-05
4.540000000000000147e-01 8.308597170980647206e-05
4.550000000000000155e-01 9.078560833586379886e-05
4.560000000000000164e-01 9.891110676107928157e-05
4.570000000000000173e-01 1.074496831279247999e-04
4.580000000000000182e-01 1.163779597845859826e-04
4.590001000000000220e-01 1.256612886209040880e-04
4.600000000000000200e-01 1.352686522295698524e-04
4.610000000000000209e-01 1.451537100365385413e-04
4.620000000000000218e-01 1.552565227029845119e-04
4.630000000000000226e-01 1.655058295000344515e-04
4.640000000000000235e-01 1.758309372235089540e-04
4.650000000000000244e-01 1.861431082943454385e-04
4.660000000000000253e-01 1.963418762898072600e-04
4.670000000000000262e-01 2.063198771793395281e-04
4.680000000000000271e-01 2.159668511012569070e-04
4.689999999999999725e-01 2.251537662232294679e-04
4.699999999999999734e-01 2.337401238037273288e-04
4.709999999999999742e-01 2.415823837509378791e-04
4.719999999999999751e-01 2.485299482941627502e-04