-1.199999999999999956e-01 0.000000000000000000e+00
-1.189999999999999947e-01 0.000000000000000000e+00
-1.179999999999999938e-01 0.000000000000000000e+00
-1.170000000000000068e-01 0.000000000000000000e+00
-1.160000000000000059e-01 0.000000000000000000e+00
-1.150000000000000050e-01 0.000000000000000000e+00
-1.140000000000000041e-01 0.000000000000000000e+00
-1.130000000000000032e-01 0.000000000000000000e+00
-1.120000000000000023e-01 0.000000000000000000e+00
-1.110000000000000014e-01 0.000000000000000000e+00
-1.100000000000000006e-01 0.000000000000000000e+00
-1.089999999999999997e-01 0.000000000000000000e+00
-1.079999999999999988e-01 0.000000000000000000e+00
-1.069999999999999979e-01 0.000000000000000000e+00
-1.059999999999999970e-01 0.000000000000000000e+00
-1.049999999999999961e-01 0.000000000000000000e+00
-1.039999999999999952e-01 0.000000000000000000e+00
-1.029999999999999943e-01 0.000000000000000000e+00
-1.019999999999999934e-01 0.000000000000000000e+00
-1.010000000000000064e-01 0.000000000000000000e+00
-1.000000000000000056e-01 0.000000000000000000e+00
-9.900000999999999940e-02 0.000000000000000000e+00
-9.800000000000000377e-02 0.000000000000000000e+00
-9.700000000000000289e-02 0.000000000000000000e+00
-9.600000000000000200e-02 0.000000000000000000e+00
-9.500000999999999585e-02 0.000000000000000000e+00
-9.400000000000000022e-02 0.000000000000000000e+00
-9.299999999999999933e-02 0.000000000000000000e+00
-9.200000999999999318e-02 0.000000000000000000e+00
-9.100001000000000617e-02 0.000000000000000000e+00
-8.999999999999999667e-02 0.000000000000000000e+00
-8.899999999999999578e-02 0.000000000000000000e+00
-8.799999999999999489e-02 0.000000000000000000e+00
-8.699999999999999400e-02 0.000000000000000000e+00
-8.599999999999999312e-02 0.000000000000000000e+00
-8.500001000000000084e-02 0.000000000000000000e+00
-8.400000999999999995e-02 0.000000000000000000e+00
-8.300000000000000433e-02 0.000000000000000000e+00
-8.200000000000000344e-02 0.000000000000000000e+00
-8.100000000000000255e-02 0.000000000000000000e+00
-8.000000000000000167e-02 0.000000000000000000e+00
-7.900000000000000078e-02 0.000000000000000000e+00
-7.799999999999999989e-02 0.000000000000000000e+00
-7.700000999999999374e-02 0.000000000000000000e+00
-7.600001000000000673e-02 0.000000000000000000e+00
-7.499999999999999722e-02 0.000000000000000000e+00
-7.399999999999999634e-02 0.000000000000000000e+00
-7.299999999999999545e-02 0.000000000000000000e+00
-7.199999999999999456e-02 0.000000000000000000e+00
-7.099999999999999367e-02 0.000000000000000000e+00
-7.000001000000000140e-02 0.000000000000000000e+00
-6.900001000000000051e-02 0.000000000000000000e+00
-6.800000000000000488e-02 0.000000000000000000e+00
-6.700000000000000400e-02 0.000000000000000000e+00
-6.600000000000000311e-02 0.000000000000000000e+00
-6.500000000000000222e-02 0.000000000000000000e+00
-6.400000000000000133e-02 0.000000000000000000e+00
-6.300000000000000044e-02 0.000000000000000000e+00
-6.199999999999999956e-02 0.000000000000000000e+00
-6.099999999999999867e-02 0.000000000000000000e+00
-5.999999999999999778e-02 0.000000000000000000e+00
-5.899999999999999689e-02 0.000000000000000000e+00
-5.800000000000000294e-02 0.000000000000000000e+00
-5.700000000000000205e-02 0.000000000000000000e+00
-5.600000000000000117e-02 0.000000000000000000e+00
-5.500000000000000028e-02 0.000000000000000000e+00
-5.400001000000000106e-02 0.000000000000000000e+00
-5.299999999999999850e-02 0.000000000000000000e+00
-5.199999999999999761e-02 0.000000000000000000e+00
-5.099999999999999672e-02 0.000000000000000000e+00
-5.000000000000000278e-02 0.000000000000000000e+00
-4.900000000000000189e-02 0.000000000000000000e+00
-4.800000000000000100e-02 0.000000000000000000e+00
-4.700000000000000011e-02 0.000000000000000000e+00
-4.599999999999999922e-02 0.000000000000000000e+00
-4.499999999999999833e-02 0.000000000000000000e+00
-4.399999999999999745e-02 0.000000000000000000e+00
-4.299999999999999656e-02 0.000000000000000000e+00
-4.200000000000000261e-02 0.000000000000000000e+00
-4.100000000000000172e-02 0.000000000000000000e+00
-4.000000000000000083e-02 0.000000000000000000e+00
-3.899999999999999994e-02 0.000000000000000000e+00
-3.799999999999999906e-02 0.000000000000000000e+00
-3.699999999999999817e-02 0.000000000000000000e+00
-3.599999999999999728e-02 0.000000000000000000e+00
-3.500000000000000333e-02 0.000000000000000000e+00
-3.400000000000000244e-02 0.000000000000000000e+00
-3.300000000000000155e-02 0.000000000000000000e+00
-3.200000000000000067e-02 0.000000000000000000e+00
-3.099999999999999978e-02 0.000000000000000000e+00
-2.999999999999999889e-02 0.000000000000000000e+00
-2.900000000000000147e-02 0.000000000000000000e+00
-2.800000000000000058e-02 0.000000000000000000e+00
-2.699999999999999969e-02 0.000000000000000000e+00
-2.599999999999999881e-02 0.000000000000000000e+00
-2.500000000000000139e-02 0.000000000000000000e+00
-2.400000000000000050e-02 0.000000000000000000e+00
-2.299999999999999961e-02 0.000000000000000000e+00
-2.199999999999999872e-02 0.000000000000000000e+00
-2.100000000000000130e-02 0.000000000000000000e+00
-2.000000000000000042e-02 0.000000000000000000e+00
-1.899999999999999953e-02 0.000000000000000000e+00
-1.799999999999999864e-02 0.000000000000000000e+00
-1.700000000000000122e-02 0.000000000000000000e+00
-1.600000000000000033e-02 0.000000000000000000e+00
-1.499999999999999944e-02 0.000000000000000000e+00
-1.400000000000000029e-02 0.000000000000000000e+00
-1.299999999999999940e-02 0.000000000000000000e+00
-1.200000000000000025e-02 0.000000000000000000e+00
-1.099999999999999936e-02 0.000000000000000000e+00
-9.999997999999999526e-03 0.000000000000000000e+00
-8.999995999999999691e-03 0.000000000000000000e+00
-8.000000999999999640e-03 0.000000000000000000e+00
-6.999998999999999805e-03 0.000000000000000000e+00
-5.999996999999999969e-03 0.000000000000000000e+00
-5.000003000000000260e-03 0.000000000000000000e+00
-4.000001000000000424e-03 0.000000000000000000e+00
-2.999999000000000155e-03 0.000000000000000000e+00
-1.999996999999999886e-03 0.000000000000000000e+00
-1.000002000000000052e-03 0.000000000000000000e+00
0.000000000000000000e+00 0.000000000000000000e+00
1.000002000000000052e-03 0.000000000000000000e+00
2.000004000000000105e-03 0.000000000000000000e+00
2.999999000000000155e-03 0.000000000000000000e+00
4.000001000000000424e-03 0.000000000000000000e+00
4.999995000000000134e-03 0.000000000000000000e+00
5.999996999999999969e-03 0.000000000000000000e+00
6.999998999999999805e-03 0.000000000000000000e+00
8.000000999999999640e-03 0.000000000000000000e+00
9.000002999999999476e-03 0.000000000000000000e+00
1.000001000000000015e-02 0.000000000000000000e+00
1.100000999999999930e-02 0.000000000000000000e+00
1.199999000000000031e-02 0.000000000000000000e+00
1.299999999999999940e-02 0.000000000000000000e+00
1.400000000000000029e-02 0.000000000000000000e+00
1.499999999999999944e-02 0.000000000000000000e+00
1.600000000000000033e-02 0.000000000000000000e+00
1.700000000000000122e-02 0.000000000000000000e+00
1.800001000000000032e-02 0.000000000000000000e+00
1.900001000000000120e-02 0.000000000000000000e+00
2.000000000000000042e-02 0.000000000000000000e+00
2.100000000000000130e-02 0.000000000000000000e+00
2.199999999999999872e-02 0.000000000000000000e+00
2.299999999999999961e-02 0.000000000000000000e+00
2.400000000000000050e-02 0.000000000000000000e+00
2.500000999999999959e-02 0.000000000000000000e+00
2.600001000000000048e-02 0.000000000000000000e+00
2.699999999999999969e-02 0.000000000000000000e+00
2.800000000000000058e-02 0.000000000000000000e+00
2.900000000000000147e-02 0.000000000000000000e+00
2.999999999999999889e-02 0.000000000000000000e+00
3.099999999999999978e-02 0.000000000000000000e+00
3.200001000000000234e-02 0.000000000000000000e+00
3.300001000000000323e-02 0.000000000000000000e+00
3.400000999999999718e-02 0.000000000000000000e+00
3.500000000000000333e-02 0.000000000000000000e+00
3.599999999999999728e-02 0.000000000000000000e+00
3.699999999999999817e-02 0.000000000000000000e+00
3.799999999999999906e-02 0.000000000000000000e+00
3.899999999999999994e-02 0.000000000000000000e+00
4.000001000000000251e-02 0.000000000000000000e+00
4.100001000000000340e-02 0.000000000000000000e+00
4.200000000000000261e-02 0.000000000000000000e+00
4.299999999999999656e-02 0.000000000000000000e+00
4.399999999999999745e-02 0.000000000000000000e+00
4.499999999999999833e-02 0.000000000000000000e+00
4.599999999999999922e-02 0.000000000000000000e+00
4.700001000000000179e-02 0.000000000000000000e+00
4.800001000000000267e-02 0.000000000000000000e+00
4.900000999999999662e-02 0.000000000000000000e+00
5.000000000000000278e-02 0.000000000000000000e+00
5.099999999999999672e-02 0.000000000000000000e+00
5.199999999999999761e-02 0.000000000000000000e+00
5.299999999999999850e-02 0.000000000000000000e+00
5.400001000000000106e-02 0.000000000000000000e+00
5.500001000000000195e-02 0.000000000000000000e+00
5.600001000000000284e-02 0.000000000000000000e+00
5.700000000000000205e-02 0.000000000000000000e+00
5.800000000000000294e-02 0.000000000000000000e+00
5.899999999999999689e-02 0.000000000000000000e+00
5.999999999999999778e-02 0.000000000000000000e+00
6.099999999999999867e-02 0.000000000000000000e+00
6.200001000000000123e-02 0.000000000000000000e+00
6.300000999999999518e-02 0.000000000000000000e+00
6.400000999999999607e-02 0.000000000000000000e+00
6.500000000000000222e-02 0.000000000000000000e+00
6.600000000000000311e-02 0.000000000000000000e+00
6.700000000000000400e-02 0.000000000000000000e+00
6.800000000000000488e-02 0.000000000000000000e+00
6.900001000000000051e-02 0.000000000000000000e+00
7.000001000000000140e-02 0.000000000000000000e+00
7.100001000000000229e-02 0.000000000000000000e+00
7.199999999999999456e-02 0.000000000000000000e+00
7.299999999999999545e-02 0.000000000000000000e+00
7.399999999999999634e-02 -0.000000000000000000e+00
7.499999999999999722e-02 -8.407790785948902426e-45
7.600001000000000673e-02 -1.835700988265510363e-43
7.700000999999999374e-02 -2.139782755023995667e-42
7.800000999999999463e-02 -7.318981879168519561e-42
7.900000999999999551e-02 2.494283240528887890e-40
8.000000000000000167e-02 6.394151517384962466e-39
8.100000000000000255e-02 9.058881696621999480e-38
8.200000000000000344e-02 8.875538383938914773e-37
8.300000000000000433e-02 5.438979142633848401e-36
8.400000999999999995e-02 -2.574697279792390104e-36
8.500001000000000084e-02 -6.387582578603057893e-34
8.600001000000000173e-02 -1.118132504022464596e-32
8.700001000000000262e-02 -1.361189544410385910e-31
8.799999999999999489e-02 -1.359837161669651885e-30
8.899999999999999578e-02 -1.177118225738287449e-29
8.999999999999999667e-02 -9.043462850706542983e-29
9.100001000000000617e-02 -6.233038746003531886e-28
9.200000999999999318e-02 -3.862686696549838991e-27
9.300000999999999407e-02 -2.138818080431121028e-26
9.400000999999999496e-02 -1.037618454180659056e-25
9.500000000000000111e-02 -4.193619084819502177e-25
9.600000000000000200e-02 -1.198291843767134705e-24
9.700000000000000289e-02 -1.645880625248283439e-25
9.800000000000000377e-02 2.893836518784861872e-23
9.900000999999999940e-02 2.589450183993137647e-22
1.000000000000000056e-01 1.515260283594054270e-21
1.010000000000000064e-01 6.354160339252625123e-21
1.019999999999999934e-01 1.381781141021537731e-20
1.029999999999999943e-01 -6.603166987569731873e-20
1.039999999999999952e-01 -1.102184562014524410e-18
1.049999999999999961e-01 -9.065465243759592977e-18
1.059999999999999970e-01 -5.804957662528095665e-17
1.069999999999999979e-01 -3.178969972884756719e-16
1.079999999999999988e-01 -1.541223881374245708e-15
1.089999999999999997e-01 -6.715703686921035628e-15
1.100000000000000006e-01 -2.646572400794543201e-14
1.110000000000000014e-01 -9.443066852554346524e-14
1.120000000000000023e-01 -3.041757384164567313e-13
1.130000000000000032e-01 -8.783360865884104474e-13
1.140000000000000041e-01 -2.244530949990775071e-12
1.150000000000000050e-01 -4.957674461930627885e-12
1.160000000000000059e-01 -9.011848559059565389e-12
1.170000000000000068e-01 -1.174671210996125481e-11
1.179999999999999938e-01 -3.841042935104344025e-12
1.189999999999999947e-01 3.486285912734921055e-11
1.199999999999999956e-01 1.330801441268292251e-10
1.209999999999999964e-01 3.090149525153407239e-10
1.219999999999999973e-01 5.326569185726270916e-10
1.229999999999999982e-01 6.974916200164216207e-10
1.239999999999999991e-01 6.610569314169367772e-10
1.250000000000000000e-01 3.826270134066334094e-10
1.260000000000000009e-01 5.195925634193798714e-11
1.270000000000000018e-01 -9.899577685379412628e-12
1.280000000000000027e-01 2.804506071818479995e-10
1.290000000000000036e-01 5.431577965175904410e-10
1.300000000000000044e-01 3.401543213765734208e-10
1.310000000000000053e-01 -1.491243656337459811e-10
1.320000000000000062e-01 -2.892864003900541547e-10
1.330000000000000071e-01 -1.847872375948522716e-11
1.340000000000000080e-01 -9.980054109515190675e-12
1.350000000000000089e-01 -3.791347791270993639e-10
1.360000000000000098e-01 -3.394116931954016536e-10
1.370000000000000107e-01 1.826463980059145342e-10
1.380000000000000115e-01 2.681743993537821780e-10
1.390000000000000124e-01 -1.895908950666491677e-11
1.400000000000000133e-01 1.671489197052622444e-10
1.409999999999999865e-01 3.176034713003872412e-10
1.419999999999999873e-01 -1.826717804798150269e-10
1.429999999999999882e-01 -3.272869475434703190e-10
1.439999999999999891e-01 2.771099669174326152e-11
1.449999999999999900e-01 -1.231877377882995006e-10
1.459999999999999909e-01 -1.147893238795383297e-10
1.469999999999999918e-01 3.737513354362675955e-10
1.479999999999999927e-01 1.497342250189603874e-10
1.489999999999999936e-01 -1.218888601162149143e-10
1.499999999999999944e-01 9.387952915052011349e-11
1.509999999999999953e-01 -2.437888224626760802e-10
1.519999999999999962e-01 -2.362902651320553105e-10
1.529999999999999971e-01 2.374920260450608112e-10
1.539999999999999980e-01 1.537544223884079742e-11
1.549999999999999989e-01 1.406453009611396965e-10
1.559999999999999998e-01 1.700414392624693960e-10
1.570000000000000007e-01 -3.216744925982339964e-10
1.580000000000000016e-01 -3.159369293959102265e-11
1.590000000000000024e-01 -5.167228103730714395e-11
1.600000000000000033e-01 -2.204238007397218979e-11
1.610000000000000042e-01 3.455085939574331633e-10
1.620000000000000051e-01 -9.718748028575419085e-11
1.630000000000000060e-01 -1.328466850414322664e-11
1.640000000000000069e-01 -1.205284760885660944e-10
1.650000000000000078e-01 -1.962256884757707098e-10
1.660000000000000087e-01 2.654627073717108487e-10
1.670000000000000095e-01 -1.428765699501566289e-11
1.680000000000000104e-01 1.651580955330800293e-10
1.690000000000000113e-01 -1.222887624496848957e-10
1.700000000000000122e-01 -2.073279881109613143e-10
1.710000000000000131e-01 8.981845822653156119e-11
1.719999999999999862e-01 -5.581362455542304701e-11
1.729999999999999871e-01 2.972104506948625158e-10
1.739999999999999880e-01 -1.314607589453231640e-10
1.749999999999999889e-01 -3.621355298966122405e-11
1.759999999999999898e-01 -1.357579881844372949e-10
1.769999999999999907e-01 -9.583459514243136690e-14
1.779999999999999916e-01 2.266759696611941877e-10
1.789999999999999925e-01 -5.181364712281144591e-11
1.799999999999999933e-01 7.894334491664878328e-11
1.809999999999999942e-01 -2.884053551532872461e-10
1.819999999999999951e-01 1.291222545551917733e-10
1.829999999999999960e-01 -1.584504229212857496e-11
1.839999999999999969e-01 2.230199636077401237e-10
1.849999999999999978e-01 -9.274395140757007994e-11
1.859999999999999987e-01 -8.015534763705645105e-11
1.869999999999999996e-01 -5.338714539893096855e-11
1.880000000000000004e-01 7.903508403295234075e-11
1.890000000000000013e-01 1.984918618358477715e-10
1.900000000000000022e-01 -5.237053846141037639e-11
1.910000000000000031e-01 1.407589496349448410e-11
1.920000000000000040e-01 -1.391682880047540039e-10
1.930000000000000049e-01 2.510901486729721910e-10
1.940000000000000058e-01 5.398899730058026591e-11
1.950000000000000067e-01 2.216078293093559637e-10
1.960000000000000075e-01 -1.607206312481679333e-10
1.970000000000000084e-01 1.750564138092158828e-10
1.980000000000000093e-01 5.684635054348241567e-11
1.990000000000000102e-01 4.188311086839036079e-10
2.000000000000000111e-01 6.404951569116690280e-11
2.010000000000000120e-01 2.619981454010655852e-10
2.020000000000000129e-01 6.669542002013528759e-11
2.030000000000000138e-01 5.201246655595070933e-10
2.039999999999999869e-01 3.408125448522980605e-10
2.049999999999999878e-01 5.534706581933335201e-10
2.059999999999999887e-01 2.686252331685068384e-10
2.069999999999999896e-01 7.086607967110580830e-10
2.079999999999999905e-01 6.812440611625447673e-10
2.089999999999999913e-01 1.044510034020618150e-09
2.099999999999999922e-01 7.931515444425940586e-10
2.109999999999999931e-01 1.158479756568908670e-09
2.119999999999999940e-01 1.157369422521981051e-09
2.129999999999999949e-01 1.716724429279281594e-09
2.139999999999999958e-01 1.673593486017921350e-09
2.149999999999999967e-01 2.030263512864394215e-09
2.159999999999999976e-01 2.050898784133892150e-09
2.169999999999999984e-01 2.701958434769835549e-09
2.179999999999999993e-01 2.965659051668012580e-09
2.190000000000000002e-01 3.439525775306151445e-09
2.200000000000000011e-01 3.627326217170434575e-09
2.210000000000000020e-01 4.259866681621815587e-09
2.220000000000000029e-01 4.899921801637674434e-09
2.230000000000000038e-01 5.531884728071645441e-09
2.240000000000000047e-01 6.107650829534350123e-09
2.250000000000000056e-01 6.706226685082583572e-09
2.260000000000000064e-01 7.709334504113485309e-09
2.270000000000000073e-01 8.517637262173138879e-09
2.280000000000000082e-01 9.602326045410336519e-09
2.290000000000000091e-01 1.027215468241138296e-08
2.300000000000000100e-01 1.159673423956064653e-08
2.310000000000000109e-01 1.266546689748793142e-08
2.320000000000000118e-01 1.421084050434728852e-08
2.330000000000000127e-01 1.525387993694948818e-08
2.340000000000000135e-01 1.673503824406452622e-08
2.349999999999999867e-01 1.819362438482130528e-08
2.359999999999999876e-01 1.994160214735529735e-08
2.369999999999999885e-01 2.157458922624755360e-08
2.379999999999999893e-01 2.306574842236841505e-08
2.389999999999999902e-01 2.495830564441803290e-08
2.399999999999999911e-01 2.672903498535106337e-08
2.409999999999999920e-01 2.887162686704414227e-08
2.419999999999999929e-01 3.043526675128305214e-08
2.429999999999999938e-01 3.242285373517006519e-08
2.439999999999999947e-01 3.428945660743920598e-08
2.449999999999999956e-01 3.639394563492714951e-08
2.459999999999999964e-01 3.815245364080510626e-08
2.469999999999999973e-01 3.975458184868330136e-08
2.479999999999999982e-01 4.163601374784775544e-08
2.489999999999999991e-01 4.323005242667932180e-08
2.500000000000000000e-01 4.490390281830514141e-08
2.510000000000000009e-01 4.592082802901131799e-08
2.520000000000000018e-01 4.724417124180035898e-08
2.530000000000000027e-01 4.816488541337093920e-08
2.540000000000000036e-01 4.903393246991072374e-08
2.550000000000000044e-01 4.950859278096686467e-08
2.560000000000000053e-01 4.943079190411481250e-08
2.570000000000000062e-01 4.952935128699209599e-08
2.580000000000000071e-01 4.893808380757036502e-08
2.590000000000000080e-01 4.827749222613419988e-08
2.600000000000000089e-01 4.670299702524971508e-08
2.610000000000000098e-01 4.502534167727390013e-08
2.620000000000000107e-01 4.307647927248581254e-08
2.630000000000000115e-01 4.042937717940731090e-08
2.640000000000000124e-01 3.744493426438566530e-08
2.650000000000000133e-01 3.376515422814918566e-08
2.660000000000000142e-01 3.000074855208367808e-08
2.670000000000000151e-01 2.546003052827927604e-08
2.680000000000000160e-01 2.066789228649668075e-08
2.690000000000000169e-01 1.524346693315692391e-08
2.700000000000000178e-01 9.422508995271527965e-09
2.710000000000000187e-01 3.549759153287368463e-09
2.720000000000000195e-01 -3.251989566521729103e-09
2.730000000000000204e-01 -1.008788341749777828e-08
2.740000000000000213e-01 -1.726058229678528733e-08
2.750000000000000222e-01 -2.460142134452780738e-08
2.760000000000000231e-01 -3.206738341532400227e-08
2.770000000000000240e-01 -3.997546471623536490e-08
2.780000000000000249e-01 -4.769717776298421086e-08
2.790000000000000258e-01 -5.563263627550441015e-08
2.800000000000000266e-01 -6.320760093103672261e-08
2.810000000000000275e-01 -7.088097220275813015e-08
2.819999999999999729e-01 -7.864943540880631190e-08
2.829999999999999738e-01 -8.554207653332923655e-08
2.839999999999999747e-01 -9.249282584278262220e-08
2.849999999999999756e-01 -9.899084574271910242e-08
2.859999999999999765e-01 -1.051566869136877358e-07
2.869999999999999774e-01 -1.107400322553075966e-07
2.879999999999999782e-01 -1.154131084035725507e-07
2.889999999999999791e-01 -1.199234418436390115e-07
2.899999999999999800e-01 -1.235015218981061480e-07
2.909999999999999809e-01 -1.265012201656645630e-07
2.919999999999999818e-01 -1.284713135873971623e-07
2.929999999999999827e-01 -1.297525642485197750e-07
2.939999999999999836e-01 -1.306078019069900620e-07
2.949999999999999845e-01 -1.304106973520902102e-07
2.959999999999999853e-01 -1.293249738409940619e-07
2.969999999999999862e-01 -1.275968060099330614e-07
2.979999999999999871e-01 -1.248065757408767240e-07
2.989999999999999880e-01 -1.217633212036162149e-07
2.999999999999999889e-01 -1.174987289687123848e-07
3.009999999999999898e-01 -1.128056581478631415e-07
3.019999999999999907e-01 -1.075516919968322327e-07
3.029999999999999916e-01 -1.015909916191048978e-07
3.039999999999999925e-01 -9.508555365300708218e-08
3.049999999999999933e-01 -8.796868655736034270e-08
3.059999999999999942e-01 -8.079066304844673141e-08
3.069999999999999951e-01 -7.345196451069568866e-08
3.079999999999999960e-01 -6.535380947525482043e-08
3.089999999999999969e-01 -5.747580189563450404e-08
3.099999999999999978e-01 -4.942905107441220025e-08
3.109999999999999987e-01 -4.146685128603166959e-08
3.119999999999999996e-01 -3.355374644797848305e-08
3.130000000000000004e-01 -2.551909972225985257e-08
3.140000000000000013e-01 -1.814470351746422239e-08
3.150000000000000022e-01 -1.083207568086663741e-08
3.160000000000000031e-01 -3.707655293894163151e-09
3.170000000000000040e-01 2.849367852775230858e-09
3.180000000000000049e-01 9.175304072073231509e-09
3.190000000000000058e-01 1.466385413095849799e-08
3.200000000000000067e-01 2.004210841732856352e-08
3.210000000000000075e-01 2.480339489352445526e-08
3.220000000000000084e-01 2.897912843025096663e-08
3.230000000000000093e-01 3.257513725429816986e-08
3.240000000000000102e-01 3.559261685381898133e-08
3.250000000000000111e-01 3.812701265815121587e-08
3.260000000000000120e-01 4.006514586762932595e-08
3.270000000000000129e-01 4.106970408201959799e-08
3.280000000000000138e-01 4.200939685006233049e-08
3.290000000000000147e-01 4.238068029849273444e-08
3.300000000000000155e-01 4.209235271446232218e-08
3.310000000000000164e-01 4.145868359728410724e-08
3.320000000000000173e-01 4.012623833204997936e-08
3.330000000000000182e-01 3.894107436508420506e-08
3.340000000000000191e-01 3.708065321461617714e-08
3.350000000000000200e-01 3.477142485053263954e-08
3.360000000000000209e-01 3.251700775308563607e-08
3.370000000000000218e-01 2.994664072275554645e-08
3.380000000000000226e-01 2.687372635534757137e-08
3.390000000000000235e-01 2.408916266460892075e-08
3.400000000000000244e-01 2.067417526063763944e-08
3.410000000000000253e-01 1.760983181497977057e-08
3.420000000000000262e-01 1.444966546415571429e-08
3.430000000000000271e-01 1.091166801359122474e-08
3.439999999999999725e-01 7.717424033160114050e-09
3.449999999999999734e-01 4.525120278486838288e-09
3.459999999999999742e-01 1.276077910006279126e-09
3.469999999999999751e-01 -1.757266998581030748e-09
3.479999999999999760e-01 -4.904443073883157922e-09
3.489999999999999769e-01 -7.800446510941583256e-09
3.499999999999999778e-01 -1.020937112627962051e-08
3.509999999999999787e-01 -1.339920530085692008e-08
3.519999999999999796e-01 -1.584160180811977625e-08
3.529999999999999805e-01 -1.816502859242064005e-08
3.539999999999999813e-01 -2.045231184411022696e-08
3.549999999999999822e-01 -2.252112807354933466e-08
3.559999999999999831e-01 -2.461486481308838847e-08
3.569999999999999840e-01 -2.621773020905493468e-08
3.579999999999999849e-01 -2.765518125613652956e-08
3.589999999999999858e-01 -2.947588306767556787e-08
3.599999999999999867e-01 -3.090022460128238890e-08
3.609999999999999876e-01 -3.192851139033336949e-08
3.619999999999999885e-01 -3.326084296872977575e-08
3.629999999999999893e-01 -3.418168148527911399e-08
3.639999999999999902e-01 -3.516950997095591447e-08
3.649999999999999911e-01 -3.591039288153297093e-08
3.659999999999999920e-01 -3.632722922475295491e-08
3.669999999999999929e-01 -3.728208497477680794e-08
3.679999999999999938e-01 -3.785442714843156864e-08
3.689999999999999947e-01 -3.813548588027515507e-08
3.699999999999999956e-01 -3.864967013100795157e-08
3.709999999999999964e-01 -3.907202383857111272e-08
3.719999999999999973e-01 -3.927937797243430396e-08
3.729999999999999982e-01 -3.957828553780018410e-08
3.739999999999999991e-01 -3.985011787221992563e-08
3.750000000000000000e-01 -4.011710785789546208e-08
3.760000000000000009e-01 -4.040243339886728791e-08
3.770000000000000018e-01 -4.030849609648612386e-08
3.780000000000000027e-01 -4.041134005206004076e-08
3.790000000000000036e-01 -4.071775094871554757e-08
3.800000000000000044e-01 -4.080979110199223214e-08
3.810000000000000053e-01 -4.100465389456076082e-08
3.820000000000000062e-01 -4.120461483125836821e-08
3.830000000000000071e-01 -4.139191744911840942e-08
3.840000000000000080e-01 -4.162831501730579475e-08
3.850000000000000089e-01 -4.167996436876819644e-08
3.860000000000000098e-01 -4.190508562373906898e-08
3.870000000000000107e-01 -4.204894565873473766e-08
3.880000000000000115e-01 -4.225410776825810899e-08
3.890000000000000124e-01 -4.240821382950343832e-08
3.900000000000000133e-01 -4.263749531219218625e-08
3.910000000000000142e-01 -4.266600939217823907e-08
3.920000000000000151e-01 -4.304987299974527559e-08
3.930000000000000160e-01 -4.335174352831927536e-08
3.940000000000000169e-01 -4.342793147316115210e-08
3.950000000000000178e-01 -4.389812602312304080e-08
3.960000000000000187e-01 -4.426858524197996303e-08
3.970000000000000195e-01 -4.431127464954442985e-08
3.980000000000000204e-01 -4.484479276811725867e-08
3.990000000000000213e-01 -4.507792539243382635e-08
4.000000000000000222e-01 -4.520832774801419873e-08
4.010000000000000231e-01 -4.541868747764965519e-08
4.020000000000000240e-01 -4.558107136176658969e-08
4.030000000000000249e-01 -4.601718117669406638e-08
4.040000000000000258e-01 -4.642125617237979895e-08
4.050000000000000266e-01 -4.647327145335111709e-08
4.060000000000000275e-01 -4.663795749593191431e-08
4.069999999999999729e-01 -4.684531873522246315e-08
4.079999999999999738e-01 -4.701470857071399223e-08
4.089999999999999747e-01 -4.727247215896568378e-08
4.099999999999999756e-01 -4.734244640758333844e-08
4.109999999999999765e-01 -4.761254501772782532e-08
4.119999999999999774e-01 -4.770868855530352448e-08
4.129999999999999782e-01 -4.779649032116140006e-08
4.139999999999999791e-01 -4.766325290006534487e-08
4.149999999999999800e-01 -4.795139929569813830e-08
4.159999999999999809e-01 -4.769499639678542735e-08
4.169999999999999818e-01 -4.739079884075181326e-08
4.179999999999999827e-01 -4.717986712421406992e-08
4.189999999999999836e-01 -4.668681086172910000e-08
4.199999999999999845e-01 -4.578918932907072303e-08
4.209999999999999853e-01 -4.506820872052230698e-08
4.220000999999999891e-01 -4.405988818234618520e-08
4.229999999999999871e-01 -4.275227283301319403e-08
4.239999999999999880e-01 -4.134662390242738184e-08
4.249999999999999889e-01 -3.953413951762740908e-08
4.259999999999999898e-01 -3.761637401566986227e-08
4.269999999999999907e-01 -3.530407610696784104e-08
4.279999999999999916e-01 -3.229247269587176561e-08
4.289999999999999925e-01 -2.870363857709889999e-08
4.299999999999999933e-01 -2.497866979922491737e-08
4.309999999999999942e-01 -2.061841897216254438e-08
4.319999999999999951e-01 -1.549730832550721971e-08
4.329999999999999960e-01 -9.637982856247617747e-09
4.339999999999999969e-01 -2.893898454203736037e-09
4.349999999999999978e-01 4.623214699961408769e-09
4.359999999999999987e-01 1.315289033243516315e-08
4.369999999999999996e-01 2.303903556821751408e-08
4.380000000000000004e-01 3.362158196296149981e-08
4.390000000000000013e-01 4.572306622208088811e-08
4.400000000000000022e-01 5.933881297437437752e-08
4.410000000000000031e-01 7.426719150771532441e-08
4.420000000000000040e-01 9.069506745618127752e-08
4.430000000000000049e-01 1.088749712607750553e-07
4.440000000000000058e-01 1.288368736140910187e-07
4.450000000000000067e-01 1.506439701870476711e-07
4.460000000000000075e-01 1.746091413679096149e-07
4.470000000000000084e-01 2.005952239869657205e-07
4.480000000000000093e-01 2.287920466415016563e-07
4.490000000000000102e-01 2.595329533505719155e-07
4.500000000000000111e-01 2.921431416780251311e-07
4.510000000000000120e-01 3.273676725257246289e-07
4.520000000000000129e-01 3.649803375083138235e-07
4.530000000000000138e-01 4.047665527195931645e-07
4.540000000000000147e-01 4.471059185107151279e-07
4.550000000000000155e-01 4.919465936836786568e-07
4.560000000000000164e-01 5.389107400333159603e-07
4.570000000000000173e-01 5.879700779587437864e-07
4.580000000000000182e-01 6.392159548340714537e-07
4.590001000000000220e-01 6.919971724528295454e-07
4.600000000000000200e-01 7.467687055395799689e-07
4.610000000000000209e-01 8.027503213270392735e-07
4.620000000000000218e-01 8.596714451414300129e-07
4.630000000000000226e-01 9.170107091449608561e-07
4.640000000000000235e-01 9.747659532877150923e-07
4.650000000000000244e-01 1.032003979162254836e-06
4.660000000000000253e-01 1.088504973267845344e-06
4.670000000000000262e-01 1.144021894106117543e-06
4.680000000000000271e-01 1.197361825688858517e-06
4.689999999999999725e-01 1.248031367140356451e-06
4.699999999999999734e-01 1.295427182412822731e-06
4.709999999999999742e-01 1.339038590231211856e-06
4.719999999999999751e-01 1.377757484988251235e-06