-1.199999999999999956e-01 0.000000000000000000e+00
-1.189999999999999947e-01 0.000000000000000000e+00
-1.179999999999999938e-01 0.000000000000000000e+00
-1.170000000000000068e-01 0.000000000000000000e+00
-1.160000000000000059e-01 0.000000000000000000e+00
-1.150000000000000050e-01 0.000000000000000000e+00
-1.140000000000000041e-01 0.000000000000000000e+00
-1.130000000000000032e-01 0.000000000000000000e+00
-1.120000000000000023e-01 0.000000000000000000e+00
-1.110000000000000014e-01 0.000000000000000000e+00
-1.100000000000000006e-01 0.000000000000000000e+00
-1.089999999999999997e-01 0.000000000000000000e+00
-1.079999999999999988e-01 0.000000000000000000e+00
-1.069999999999999979e-01 0.000000000000000000e+00
-1.059999999999999970e-01 0.000000000000000000e+00
-1.049999999999999961e-01 0.000000000000000000e+00
-1.039999999999999952e-01 0.000000000000000000e+00
-1.029999999999999943e-01 0.000000000000000000e+00
-1.019999999999999934e-01 0.000000000000000000e+00
-1.010000000000000064e-01 0.000000000000000000e+00
-1.000000000000000056e-01 0.000000000000000000e+00
-9.900000999999999940e-02 0.000000000000000000e+00
-9.800000000000000377e-02 0.000000000000000000e+00
-9.700000000000000289e-02 0.000000000000000000e+00
-9.600000000000000200e-02 0.000000000000000000e+00
-9.500000999999999585e-02 0.000000000000000000e+00
-9.400000000000000022e-02 0.000000000000000000e+00
-9.299999999999999933e-02 0.000000000000000000e+00
-9.200000999999999318e-02 0.000000000000000000e+00
-9.100001000000000617e-02 0.000000000000000000e+00
-8.999999999999999667e-02 0.000000000000000000e+00
-8.899999999999999578e-02 0.000000000000000000e+00
-8.799999999999999489e-02 0.000000000000000000e+00
-8.699999999999999400e-02 0.000000000000000000e+00
-8.599999999999999312e-02 0.000000000000000000e+00
-8.500001000000000084e-02 0.000000000000000000e+00
-8.400000999999999995e-02 0.000000000000000000e+00
-8.300000000000000433e-02 0.000000000000000000e+00
-8.200000000000000344e-02 0.000000000000000000e+00
-8.100000000000000255e-02 0.000000000000000000e+00
-8.000000000000000167e-02 0.000000000000000000e+00
-7.900000000000000078e-02 0.000000000000000000e+00
-7.799999999999999989e-02 0.000000000000000000e+00
-7.700000999999999374e-02 0.000000000000000000e+00
-7.600001000000000673e-02 0.000000000000000000e+00
-7.499999999999999722e-02 0.000000000000000000e+00
-7.399999999999999634e-02 0.000000000000000000e+00
-7.299999999999999545e-02 0.000000000000000000e+00
-7.199999999999999456e-02 0.000000000000000000e+00
-7.099999999999999367e-02 0.000000000000000000e+00
-7.000001000000000140e-02 0.000000000000000000e+00
-6.900001000000000051e-02 0.000000000000000000e+00
-6.800000000000000488e-02 0.000000000000000000e+00
-6.700000000000000400e-02 0.000000000000000000e+00
-6.600000000000000311e-02 0.000000000000000000e+00
-6.500000000000000222e-02 0.000000000000000000e+00
-6.400000000000000133e-02 0.000000000000000000e+00
-6.300000000000000044e-02 0.000000000000000000e+00
-6.199999999999999956e-02 0.000000000000000000e+00
-6.099999999999999867e-02 0.000000000000000000e+00
-5.999999999999999778e-02 0.000000000000000000e+00
-5.899999999999999689e-02 0.000000000000000000e+00
-5.800000000000000294e-02 0.000000000000000000e+00
-5.700000000000000205e-02 0.000000000000000000e+00
-5.600000000000000117e-02 0.000000000000000000e+00
-5.500000000000000028e-02 0.000000000000000000e+00
-5.400001000000000106e-02 0.000000000000000000e+00
-5.299999999999999850e-02 0.000000000000000000e+00
-5.199999999999999761e-02 0.000000000000000000e+00
-5.099999999999999672e-02 0.000000000000000000e+00
-5.000000000000000278e-02 0.000000000000000000e+00
-4.900000000000000189e-02 0.000000000000000000e+00
-4.800000000000000100e-02 0.000000000000000000e+00
-4.700000000000000011e-02 0.000000000000000000e+00
-4.599999999999999922e-02 0.000000000000000000e+00
-4.499999999999999833e-02 0.000000000000000000e+00
-4.399999999999999745e-02 0.000000000000000000e+00
-4.299999999999999656e-02 0.000000000000000000e+00
-4.200000000000000261e-02 0.000000000000000000e+00
-4.100000000000000172e-02 0.000000000000000000e+00
-4.000000000000000083e-02 0.000000000000000000e+00
-3.899999999999999994e-02 0.000000000000000000e+00
-3.799999999999999906e-02 0.000000000000000000e+00
-3.699999999999999817e-02 0.000000000000000000e+00
-3.599999999999999728e-02 0.000000000000000000e+00
-3.500000000000000333e-02 0.000000000000000000e+00
-3.400000000000000244e-02 0.000000000000000000e+00
-3.300000000000000155e-02 0.000000000000000000e+00
-3.200000000000000067e-02 0.000000000000000000e+00
-3.099999999999999978e-02 0.000000000000000000e+00
-2.999999999999999889e-02 0.000000000000000000e+00
-2.900000000000000147e-02 0.000000000000000000e+00
-2.800000000000000058e-02 0.000000000000000000e+00
-2.699999999999999969e-02 0.000000000000000000e+00
-2.599999999999999881e-02 0.000000000000000000e+00
-2.500000000000000139e-02 0.000000000000000000e+00
-2.400000000000000050e-02 0.000000000000000000e+00
-2.299999999999999961e-02 0.000000000000000000e+00
-2.199999999999999872e-02 0.000000000000000000e+00
-2.100000000000000130e-02 0.000000000000000000e+00
-2.000000000000000042e-02 0.000000000000000000e+00
-1.899999999999999953e-02 0.000000000000000000e+00
-1.799999999999999864e-02 0.000000000000000000e+00
-1.700000000000000122e-02 0.000000000000000000e+00
-1.600000000000000033e-02 0.000000000000000000e+00
-1.499999999999999944e-02 0.000000000000000000e+00
-1.400000000000000029e-02 0.000000000000000000e+00
-1.299999999999999940e-02 0.000000000000000000e+00
-1.200000000000000025e-02 0.000000000000000000e+00
-1.099999999999999936e-02 0.000000000000000000e+00
-9.999997999999999526e-03 0.000000000000000000e+00
-8.999995999999999691e-03 0.000000000000000000e+00
-8.000000999999999640e-03 0.000000000000000000e+00
-6.999998999999999805e-03 0.000000000000000000e+00
-5.999996999999999969e-03 0.000000000000000000e+00
-5.000003000000000260e-03 0.000000000000000000e+00
-4.000001000000000424e-03 0.000000000000000000e+00
-2.999999000000000155e-03 0.000000000000000000e+00
-1.999996999999999886e-03 0.000000000000000000e+00
-1.000002000000000052e-03 0.000000000000000000e+00
0.000000000000000000e+00 0.000000000000000000e+00
1.000002000000000052e-03 0.000000000000000000e+00
2.000004000000000105e-03 0.000000000000000000e+00
2.999999000000000155e-03 0.000000000000000000e+00
4.000001000000000424e-03 0.000000000000000000e+00
4.999995000000000134e-03 0.000000000000000000e+00
5.999996999999999969e-03 0.000000000000000000e+00
6.999998999999999805e-03 0.000000000000000000e+00
8.000000999999999640e-03 0.000000000000000000e+00
9.000002999999999476e-03 0.000000000000000000e+00
1.000001000000000015e-02 0.000000000000000000e+00
1.100000999999999930e-02 0.000000000000000000e+00
1.199999000000000031e-02 0.000000000000000000e+00
1.299999999999999940e-02 0.000000000000000000e+00
1.400000000000000029e-02 0.000000000000000000e+00
1.499999999999999944e-02 0.000000000000000000e+00
1.600000000000000033e-02 0.000000000000000000e+00
1.700000000000000122e-02 0.000000000000000000e+00
1.800001000000000032e-02 0.000000000000000000e+00
1.900001000000000120e-02 0.000000000000000000e+00
2.000000000000000042e-02 0.000000000000000000e+00
2.100000000000000130e-02 0.000000000000000000e+00
2.199999999999999872e-02 0.000000000000000000e+00
2.299999999999999961e-02 0.000000000000000000e+00
2.400000000000000050e-02 0.000000000000000000e+00
2.500000999999999959e-02 0.000000000000000000e+00
2.600001000000000048e-02 0.000000000000000000e+00
2.699999999999999969e-02 0.000000000000000000e+00
2.800000000000000058e-02 0.000000000000000000e+00
2.900000000000000147e-02 0.000000000000000000e+00
2.999999999999999889e-02 0.000000000000000000e+00
3.099999999999999978e-02 0.000000000000000000e+00
3.200001000000000234e-02 0.000000000000000000e+00
3.300001000000000323e-02 0.000000000000000000e+00
3.400000999999999718e-02 0.000000000000000000e+00
3.500000000000000333e-02 0.000000000000000000e+00
3.599999999999999728e-02 0.000000000000000000e+00
3.699999999999999817e-02 0.000000000000000000e+00
3.799999999999999906e-02 0.000000000000000000e+00
3.899999999999999994e-02 0.000000000000000000e+00
4.000001000000000251e-02 0.000000000000000000e+00
4.100001000000000340e-02 -0.000000000000000000e+00
4.200000000000000261e-02 0.000000000000000000e+00
4.299999999999999656e-02 5.605193857299268284e-45
4.399999999999999745e-02 -2.466285297211678045e-43
4.499999999999999833e-02 -3.045021562977827495e-41
4.599999999999999922e-02 -1.418593289971513963e-39
4.700001000000000179e-02 -3.609606676072146348e-38
4.800001000000000267e-02 -1.607556594223681209e-37
4.900000999999999662e-02 3.408437131733529633e-35
5.000000000000000278e-02 2.047079147247865543e-33
5.099999999999999672e-02 7.567043873884485221e-32
5.199999999999999761e-02 2.025536821777609339e-30
5.299999999999999850e-02 3.542172761129434665e-29
5.400001000000000106e-02 5.952354317761643754e-29
5.500001000000000195e-02 -2.281039224583571990e-26
5.600001000000000284e-02 -9.676961654726809448e-25
5.700000000000000205e-02 -2.372259674281367906e-23
5.800000000000000294e-02 -3.674751385879763470e-22
5.899999999999999689e-02 -2.756252638835134942e-21
5.999999999999999778e-02 1.889588126861408367e-20
6.099999999999999867e-02 7.373283770083964665e-19
6.200001000000000123e-02 7.344295122119467241e-18
6.300000999999999518e-02 6.766723704029828644e-18
6.400000999999999607e-02 -4.803663074919842148e-16
6.500000000000000222e-02 -3.383605244947074375e-15
6.600000000000000311e-02 4.327163525771633018e-15
6.700000000000000400e-02 1.194900840599533165e-13
6.800000000000000488e-02 1.741522372275192132e-13
6.900001000000000051e-02 -1.658604460372248290e-12
7.000001000000000140e-02 -3.122028460408876605e-12
7.100001000000000229e-02 1.090676160497849878e-11
7.199999999999999456e-02 1.126595258055251847e-11
7.299999999999999545e-02 -2.691203856985957543e-11
7.399999999999999634e-02 1.040840677535292969e-11
7.499999999999999722e-02 -1.631994192563546164e-11
7.600001000000000673e-02 7.797503094597590945e-12
7.700000999999999374e-02 -1.681773297013133828e-11
7.800000999999999463e-02 2.184413240569060832e-11
7.900000999999999551e-02 -3.785603081007948845e-11
8.000000000000000167e-02 4.403796077800947728e-11
8.100000000000000255e-02 -4.114922291797995513e-11
8.200000000000000344e-02 4.120443569677334494e-12
8.300000000000000433e-02 4.167641232122321071e-11
8.400000999999999995e-02 -7.343382152358302051e-11
8.500001000000000084e-02 3.454267774594121931e-11
8.600001000000000173e-02 3.032287268500688526e-11
8.700001000000000262e-02 -5.448591230972077426e-11
8.799999999999999489e-02 1.300829582939755369e-11
8.899999999999999578e-02 1.870418967278575373e-12
8.999999999999999667e-02 1.827402118514953600e-11
9.100001000000000617e-02 2.168031032478978659e-11
9.200000999999999318e-02 -4.794263944174481651e-11
9.300000999999999407e-02 -1.758129340896641413e-12
9.400000999999999496e-02 8.950778486449539884e-12
9.500000000000000111e-02 -9.525136755728080828e-13
9.600000000000000200e-02 4.145012111322898818e-11
9.700000000000000289e-02 -3.870209274586811077e-12
9.800000000000000377e-02 -1.092239666766747774e-11
9.900000999999999940e-02 3.340107053786955937e-12
1.000000000000000056e-01 -3.793138719787592095e-11
1.010000000000000064e-01 -7.740879985618231984e-12
1.019999999999999934e-01 -4.613365679057013224e-12
1.029999999999999943e-01 -2.351836260461315220e-11
1.039999999999999952e-01 1.709633649926711740e-11
1.049999999999999961e-01 7.725911924105766104e-13
1.059999999999999970e-01 9.980427942424263676e-13
1.069999999999999979e-01 3.080764809926250791e-11
1.079999999999999988e-01 1.198804076840698229e-12
1.089999999999999997e-01 1.535072416403160389e-11
1.100000000000000006e-01 2.543844995761546102e-11
1.110000000000000014e-01 -3.419728042408642921e-12
1.120000000000000023e-01 2.235877455403212366e-11
1.130000000000000032e-01 1.701891058636384457e-11
1.140000000000000041e-01 -6.038545856922039601e-13
1.150000000000000050e-01 2.673812386777552064e-11
1.160000000000000059e-01 6.958214820301789061e-12
1.170000000000000068e-01 2.375963358350330346e-12
1.179999999999999938e-01 2.515039218553560829e-11
1.189999999999999947e-01 5.496563490817174547e-13
1.199999999999999956e-01 9.732327790890060726e-12
1.209999999999999964e-01 2.194252765597148880e-11
1.219999999999999973e-01 -4.338623644378758470e-12
1.229999999999999982e-01 1.301234293926700758e-11
1.239999999999999991e-01 1.430122339995953951e-11
1.250000000000000000e-01 -7.322771729267874008e-12
1.260000000000000009e-01 1.403163002455798392e-11
1.270000000000000018e-01 5.021913874331263017e-12
1.280000000000000027e-01 -6.976690492682680045e-12
1.290000000000000036e-01 1.521702902573807137e-11
1.300000000000000044e-01 -8.452271001158084829e-12
1.310000000000000053e-01 -2.001090265713045824e-11
1.320000000000000062e-01 6.820813878982701084e-12
1.330000000000000071e-01 3.864726681040986378e-12
1.340000000000000080e-01 3.323932708937382685e-12
1.350000000000000089e-01 -1.779140203217455252e-11
1.360000000000000098e-01 -4.937084421841042570e-11
1.370000000000000107e-01 1.376832935856553419e-11
1.380000000000000115e-01 5.220001861316880820e-11
1.390000000000000124e-01 -3.099985546040073814e-11
1.400000000000000133e-01 -5.275964040651892617e-11
1.409999999999999865e-01 2.480136582216907470e-11
1.419999999999999873e-01 3.308997173490091370e-11
1.429999999999999882e-01 -2.747604747888043875e-11
1.439999999999999891e-01 -8.855317520928274178e-12
1.449999999999999900e-01 5.519572993106791614e-11
1.459999999999999909e-01 -9.068381462418173555e-12
1.469999999999999918e-01 -4.521259755474460462e-11
1.479999999999999927e-01 5.826351207049995651e-11
1.489999999999999936e-01 6.635710210478595883e-12
1.499999999999999944e-01 -5.517721349268533970e-11
1.509999999999999953e-01 6.601012098039760190e-11
1.519999999999999962e-01 -9.689992731820584737e-12
1.529999999999999971e-01 -6.364528348790088330e-11
1.539999999999999980e-01 7.197528684166343282e-11
1.549999999999999989e-01 -5.215934628655105598e-11
1.559999999999999998e-01 -2.541229379704468272e-11
1.570000000000000007e-01 7.400087487230422312e-11
1.580000000000000016e-01 -8.799756062716213023e-11
1.590000000000000024e-01 6.350040632208120428e-11
1.600000000000000033e-01 3.058805986277945976e-11
1.610000000000000042e-01 2.202016173569187885e-11
1.620000000000000051e-01 3.320418107133349395e-10
1.630000000000000060e-01 3.296950767950335148e-10
1.640000000000000069e-01 7.043039484955215812e-10
1.650000000000000078e-01 5.047597340102072394e-10
1.660000000000000087e-01 -1.216084177801945998e-10
1.670000000000000095e-01 -4.251249630105036204e-10
1.680000000000000104e-01 -2.181480690532922040e-10
1.690000000000000113e-01 1.357822965175614627e-09
1.700000000000000122e-01 1.358909318405210342e-09
1.710000000000000131e-01 2.582120905980644920e-10
1.719999999999999862e-01 -1.062345766911221290e-10
1.729999999999999871e-01 1.131447713298427971e-09
1.739999999999999880e-01 1.722728626418756903e-09
1.749999999999999889e-01 1.144939698605185185e-09
1.759999999999999898e-01 1.855779752091279988e-09
1.769999999999999907e-01 1.683583827905010821e-09
1.779999999999999916e-01 2.493474982045995603e-09
1.789999999999999925e-01 2.562738243838680319e-09
1.799999999999999933e-01 3.192100361815164433e-09
1.809999999999999942e-01 3.897402844899033880e-09
1.819999999999999951e-01 4.951769216887669245e-09
1.829999999999999960e-01 5.012144921323624658e-09
1.839999999999999969e-01 5.895256283139360676e-09
1.849999999999999978e-01 6.731556645434011443e-09
1.859999999999999987e-01 8.961299258203325735e-09
1.869999999999999996e-01 9.898024622145840112e-09
1.880000000000000004e-01 1.127106585840920161e-08
1.890000000000000013e-01 1.197928156670968747e-08
1.900000000000000022e-01 1.492639256639449741e-08
1.910000000000000031e-01 1.727813980778591940e-08
1.920000000000000040e-01 2.037854684999729216e-08
1.930000000000000049e-01 2.161872103556561342e-08
1.940000000000000058e-01 2.506071972163681494e-08
1.950000000000000067e-01 2.817905730978509382e-08
1.960000000000000075e-01 3.366181644537391549e-08
1.970000000000000084e-01 3.683348381855466869e-08
1.980000000000000093e-01 4.154302502001883113e-08
1.990000000000000102e-01 4.542883402791630942e-08
2.000000000000000111e-01 5.231702715491337585e-08
2.010000000000000120e-01 5.855240203800349263e-08
2.020000000000000129e-01 6.514196826401530416e-08
2.030000000000000138e-01 7.158740089607817936e-08
2.039999999999999869e-01 7.847132366123332758e-08
2.049999999999999878e-01 8.804157403119461378e-08
2.059999999999999887e-01 9.619019891715652193e-08
2.069999999999999896e-01 1.063924770505764172e-07
2.079999999999999905e-01 1.141957497452494863e-07
2.089999999999999913e-01 1.252191310641137534e-07
2.099999999999999922e-01 1.357534955559458467e-07
2.109999999999999931e-01 1.470521056035067886e-07
2.119999999999999940e-01 1.587632283417406143e-07
2.129999999999999949e-01 1.683973067656552303e-07
2.139999999999999958e-01 1.815972296981271938e-07
2.149999999999999967e-01 1.919097769587096991e-07
2.159999999999999976e-01 2.048209495342234732e-07
2.169999999999999984e-01 2.154676934651433839e-07
2.179999999999999993e-01 2.249729362802099786e-07
2.190000000000000002e-01 2.371201759387986385e-07
2.200000000000000011e-01 2.440069408748968272e-07
2.210000000000000020e-01 2.548894997289608000e-07
2.220000000000000029e-01 2.605302142910659313e-07
2.230000000000000038e-01 2.651377144502475858e-07
2.240000000000000047e-01 2.719569351938844193e-07
2.250000000000000056e-01 2.695062164548289729e-07
2.260000000000000064e-01 2.736322244345501531e-07
2.270000000000000073e-01 2.678259534150129184e-07
2.280000000000000082e-01 2.621489727516745916e-07
2.290000000000000091e-01 2.569501589277933817e-07
2.300000000000000100e-01 2.393469173966877861e-07
2.310000000000000109e-01 2.302645754070908879e-07
2.320000000000000118e-01 2.066940254508153885e-07
2.330000000000000127e-01 1.859677780657875701e-07
2.340000000000000135e-01 1.604598480753338663e-07
2.349999999999999867e-01 1.270956460075467476e-07
2.359999999999999876e-01 9.418351254453227739e-08
2.369999999999999885e-01 5.589658869098457217e-08
2.379999999999999893e-01 1.075088018609449136e-08
2.389999999999999902e-01 -3.246377033860881056e-08
2.399999999999999911e-01 -8.545520557845520671e-08
2.409999999999999920e-01 -1.395623598909878638e-07
2.419999999999999929e-01 -1.944467271641769912e-07
2.429999999999999938e-01 -2.557773655098571908e-07
2.439999999999999947e-01 -3.182471743912174134e-07
2.449999999999999956e-01 -3.803818913183931727e-07
2.459999999999999964e-01 -4.491564311592810554e-07
2.469999999999999973e-01 -5.126471478433813900e-07
2.479999999999999982e-01 -5.780873379990225658e-07
2.489999999999999991e-01 -6.452236789300513919e-07
2.500000000000000000e-01 -7.082084607645811047e-07
2.510000000000000009e-01 -7.687432912462099921e-07
2.520000000000000018e-01 -8.290133450827852357e-07
2.530000000000000027e-01 -8.806547384665464051e-07
2.540000000000000036e-01 -9.300282499680179171e-07
2.550000000000000044e-01 -9.766127959665027447e-07
2.560000000000000053e-01 -1.011444851428677794e-06
2.570000000000000062e-01 -1.041223868014640175e-06
2.580000000000000071e-01 -1.064449179466464557e-06
2.590000000000000080e-01 -1.076992361959128175e-06
2.600000000000000089e-01 -1.081412392522906885e-06
2.610000000000000098e-01 -1.078650825547811110e-06
2.620000000000000107e-01 -1.061275611391465645e-06
2.630000000000000115e-01 -1.035254172165878117e-06
2.640000000000000124e-01 -1.002958811113785487e-06
2.650000000000000133e-01 -9.561878187014372088e-07
2.660000000000000142e-01 -9.000182217278052121e-07
2.670000000000000151e-01 -8.359565413229574915e-07
2.680000000000000160e-01 -7.603986205140245147e-07
2.690000000000000169e-01 -6.759164534742012620e-07
2.700000000000000178e-01 -5.868345169801614247e-07
2.710000000000000187e-01 -4.880468509327329230e-07
2.720000000000000195e-01 -3.799365515533281723e-07
2.730000000000000204e-01 -2.712249909109232249e-07
2.740000000000000213e-01 -1.574497474621239235e-07
2.750000000000000222e-01 -3.802436054911595420e-08
2.760000000000000231e-01 8.072224488842039136e-08
2.770000000000000240e-01 2.002259975597553421e-07
2.780000000000000249e-01 3.212445847111666808e-07
2.790000000000000258e-01 4.383659870654810220e-07
2.800000000000000266e-01 5.495310801961750258e-07
2.810000000000000275e-01 6.600213282581535168e-07
2.819999999999999729e-01 7.653866305190604180e-07
2.829999999999999738e-01 8.594524274485593196e-07
2.839999999999999747e-01 9.475179467699490488e-07
2.849999999999999756e-01 1.028312794915109407e-06
2.859999999999999765e-01 1.096864252758678049e-06
2.869999999999999774e-01 1.155560994448023848e-06
2.879999999999999782e-01 1.205486796607146971e-06
2.889999999999999791e-01 1.242292228198493831e-06
2.899999999999999800e-01 1.265019477614259813e-06
2.909999999999999809e-01 1.279628349948325194e-06
2.919999999999999818e-01 1.283735628021531738e-06
2.929999999999999827e-01 1.272126041840238031e-06
2.939999999999999836e-01 1.250616151082795113e-06
2.949999999999999845e-01 1.221127149619860575e-06
2.959999999999999853e-01 1.179463311018480454e-06
2.969999999999999862e-01 1.127830614677804988e-06
2.979999999999999871e-01 1.069876020665105898e-06
2.989999999999999880e-01 1.004098749035620131e-06
2.999999999999999889e-01 9.288439741794718429e-07
3.009999999999999898e-01 8.498399211021023802e-07
3.019999999999999907e-01 7.691651831009949092e-07
3.029999999999999916e-01 6.815112101321574301e-07
3.039999999999999925e-01 5.901383701711893082e-07
3.049999999999999933e-01 5.011142434341309126e-07
3.059999999999999942e-01 4.116030538625636837e-07
3.069999999999999951e-01 3.200965750238538021e-07
3.079999999999999960e-01 2.309324855787053821e-07
3.089999999999999969e-01 1.464950969420897309e-07
3.099999999999999978e-01 6.386400741575926077e-08
3.109999999999999987e-01 -1.668453464276353770e-08
3.119999999999999996e-01 -8.974403442607581383e-08
3.130000000000000004e-01 -1.570275429685352719e-07
3.140000000000000013e-01 -2.222902395487835747e-07
3.150000000000000022e-01 -2.805274448292038869e-07
3.160000000000000031e-01 -3.298528383766097249e-07
3.170000000000000040e-01 -3.746478682842280250e-07
3.180000000000000049e-01 -4.150217307596903993e-07
3.190000000000000058e-01 -4.473206161037523998e-07
3.200000000000000067e-01 -4.715080024197959574e-07
3.210000000000000075e-01 -4.919306775263976306e-07
3.220000000000000084e-01 -5.079988909528765362e-07
3.230000000000000093e-01 -5.154051336830889340e-07
3.240000000000000102e-01 -5.175104433874366805e-07
3.250000000000000111e-01 -5.178034712116641458e-07
3.260000000000000120e-01 -5.126113364894990809e-07
3.270000000000000129e-01 -5.011139592170366086e-07
3.280000000000000138e-01 -4.875976173934759572e-07
3.290000000000000147e-01 -4.727672830995288678e-07
3.300000000000000155e-01 -4.537568543128145393e-07
3.310000000000000164e-01 -4.307046594931307482e-07
3.320000000000000173e-01 -4.079673772139358334e-07
3.330000000000000182e-01 -3.854301269257121021e-07
3.340000000000000191e-01 -3.589767061384918634e-07
3.350000000000000200e-01 -3.313826653084106511e-07
3.360000000000000209e-01 -3.065590590267674997e-07
3.370000000000000218e-01 -2.814728077282779850e-07
3.380000000000000226e-01 -2.538238845772866625e-07
3.390000000000000235e-01 -2.274677797231561271e-07
3.400000000000000244e-01 -2.043514797378520598e-07
3.410000000000000253e-01 -1.814953947132380563e-07
3.420000000000000262e-01 -1.572214216594147729e-07
3.430000000000000271e-01 -1.348635265685516060e-07
3.439999999999999725e-01 -1.165177820894314209e-07
3.449999999999999734e-01 -9.793937749691394856e-08
3.459999999999999742e-01 -7.863202000635283184e-08
3.469999999999999751e-01 -6.301731758640016778e-08
3.479999999999999760e-01 -4.982726053981423320e-08
3.489999999999999769e-01 -3.574319862309494056e-08
3.499999999999999778e-01 -2.243559471537537320e-08
3.509999999999999787e-01 -1.264418170165981792e-08
3.519999999999999796e-01 -5.080984522010112414e-09
3.529999999999999805e-01 4.225168659388600645e-09
3.539999999999999813e-01 1.311426078842714560e-08
3.549999999999999822e-01 1.784371583823940455e-08
3.559999999999999831e-01 2.112717112368045491e-08
3.569999999999999840e-01 2.654667774493191246e-08
3.579999999999999849e-01 3.142950788515008753e-08
3.589999999999999858e-01 3.291791017545619980e-08
3.599999999999999867e-01 3.384923630278535711e-08
3.609999999999999876e-01 3.647934576633815595e-08
3.619999999999999885e-01 3.868305498144763988e-08
3.629999999999999893e-01 3.857183017430543259e-08
3.639999999999999902e-01 3.822204774905912927e-08
3.649999999999999911e-01 3.904935397258668672e-08
3.659999999999999920e-01 3.765779865716467611e-08
3.669999999999999929e-01 3.272334225812301156e-08
3.679999999999999938e-01 2.761822237573596794e-08
3.689999999999999947e-01 2.266590470867413387e-08
3.699999999999999956e-01 1.370209901097041438e-08
3.709999999999999964e-01 1.505361058029563992e-09
3.719999999999999973e-01 -9.338606332676135935e-09
3.729999999999999982e-01 -1.790787784727854159e-08
3.739999999999999991e-01 -2.800714860029529518e-08
3.750000000000000000e-01 -4.042977153062565776e-08
3.760000000000000009e-01 -5.213581744101247750e-08
3.770000000000000018e-01 -6.320085788047435926e-08
3.780000000000000027e-01 -7.945802593667394831e-08
3.790000000000000036e-01 -1.035894996448405436e-07
3.800000000000000044e-01 -1.330395207332912832e-07
3.810000000000000053e-01 -1.682581967088481179e-07
3.820000000000000062e-01 -2.120490165680166683e-07
3.830000000000000071e-01 -2.639775971147173550e-07
3.840000000000000080e-01 -3.220315818452945678e-07
3.850000000000000089e-01 -3.876161542848421959e-07
3.860000000000000098e-01 -4.650570417652488686e-07
3.870000000000000107e-01 -5.571961310124606825e-07
3.880000000000000115e-01 -6.648729140579234809e-07
3.890000000000000124e-01 -7.923936209408566356e-07
3.900000000000000133e-01 -9.467902941651118454e-07
3.910000000000000142e-01 -1.129722363657492679e-06
3.920000000000000151e-01 -1.339592472504591569e-06
3.930000000000000160e-01 -1.580218622621032409e-06
3.940000000000000169e-01 -1.859703047557559330e-06
3.950000000000000178e-01 -2.183666083510615863e-06
3.960000000000000187e-01 -2.555510718593723141e-06
3.970000000000000195e-01 -2.982907972182147205e-06
3.980000000000000204e-01 -3.477787004158017226e-06
3.990000000000000213e-01 -4.049352355650626123e-06
4.000000000000000222e-01 -4.701538273366168141e-06
4.010000000000000231e-01 -5.441168468678370118e-06
4.020000000000000240e-01 -6.280874458752805367e-06
4.030000000000000249e-01 -7.231866220536176115e-06
4.040000000000000258e-01 -8.304266884806565940e-06
4.050000000000000266e-01 -9.512567885394673795e-06
4.060000000000000275e-01 -1.087337204808136448e-05
4.069999999999999729e-01 -1.240069468622095883e-05
4.079999999999999738e-01 -1.410603908880148083e-05
4.089999999999999747e-01 -1.600316682015545666e-05
4.099999999999999756e-01 -1.810833418858237565e-05
4.109999999999999765e-01 -2.043719905486796051e-05
4.119999999999999774e-01 -2.300295454915612936e-05
4.129999999999999782e-01 -2.582239903858862817e-05
4.139999999999999791e-01 -2.891566145990509540e-05
4.149999999999999800e-01 -3.229818321415223181e-05
4.159999999999999809e-01 -3.597808972699567676e-05
4.169999999999999818e-01 -3.996454688603989780e-05
4.179999999999999827e-01 -4.427007297636009753e-05
4.189999999999999836e-01 -4.890415584668517113e-05
4.199999999999999845e-01 -5.387027340475469828e-05
4.209999999999999853e-01 -5.917033922742120922e-05
4.220000999999999891e-01 -6.480649608420208097e-05
4.229999999999999871e-01 -7.077609916450455785e-05
4.239999999999999880e-01 -7.706585165578871965e-05
4.249999999999999889e-01 -8.365644316654652357e-05
4.259999999999999898e-01 -9.052818495547398925e-05
4.269999999999999907e-01 -9.765667346073314548e-05
4.279999999999999916e-01 -1.050081846187822521e-04
4.289999999999999925e-01 -1.125427079387009144e-04
4.299999999999999933e-01 -1.202150087920017540e-04
4.309999999999999942e-01 -1.279705320484936237e-04
4.319999999999999951e-01 -1.357430155621841550e-04
4.329999999999999960e-01 -1.434585283277556300e-04
4.339999999999999969e-01 -1.510385773144662380e-04
4.349999999999999978e-01 -1.583998528076335788e-04
4.359999999999999987e-01 -1.654482039157301188e-04
4.369999999999999996e-01 -1.720805012155324221e-04
4.380000000000000004e-01 -1.781901519279927015e-04
4.390000000000000013e-01 -1.836649462347850204e-04
4.400000000000000022e-01 -1.883826334960758686e-04
4.410000000000000031e-01 -1.922163646668195724e-04
4.420000000000000040e-01 -1.950417208718135953e-04
4.430000000000000049e-01 -1.967364805750548840e-04
4.440000000000000058e-01 -1.971764140762388706e-04
4.450000000000000067e-01 -1.962349924724549055e-04
4.460000000000000075e-01 -1.937896740855649114e-04
4.470000000000000084e-01 -1.897272595670074224e-04
4.480000000000000093e-01 -1.839420729083940387e-04
4.490000000000000102e-01 -1.763353066053241491e-04
4.500000000000000111e-01 -1.668230543145909905e-04
4.510000000000000120e-01 -1.553405891172587872e-04
4.520000000000000129e-01 -1.418379688402637839e-04
4.530000000000000138e-01 -1.262786536244675517e-04
4.540000000000000147e-01 -1.086463307728990912e-04
4.550000000000000155e-01 -8.895037171896547079e-05
4.560000000000000164e-01 -6.722532998537644744e-05
4.570000000000000173e-01 -4.352928590378724039e-05
4.580000000000000182e-01 -1.794662421161774546e-05
4.590001000000000220e-01 9.409114682057406753e-06
4.600000000000000200e-01 3.839765849988907576e-05
4.610000000000000209e-01 6.885679613333195448e-05
4.620000000000000218e-01 1.005993472062982619e-04
4.630000000000000226e-01 1.334071275778114796e-04
4.640000000000000235e-01 1.670353958616033196e-04
4.650000000000000244e-01 2.012194890994578600e-04
4.660000000000000253e-01 2.356777404202148318e-04
4.670000000000000262e-01 2.701102930586785078e-04
4.680000000000000271e-01 3.042016469407826662e-04
4.689999999999999725e-01 3.376277454663068056e-04
4.699999999999999734e-01 3.700601228047162294e-04
4.709999999999999742e-01 4.011644632555544376e-04
4.719999999999999751e-01 4.306030750740319490e-04