-1.199999999999999956e-01 0.000000000000000000e+00
-1.189999999999999947e-01 0.000000000000000000e+00
-1.179999999999999938e-01 0.000000000000000000e+00
-1.170000000000000068e-01 0.000000000000000000e+00
-1.160000000000000059e-01 0.000000000000000000e+00
-1.150000000000000050e-01 0.000000000000000000e+00
-1.140000000000000041e-01 0.000000000000000000e+00
-1.130000000000000032e-01 0.000000000000000000e+00
-1.120000000000000023e-01 0.000000000000000000e+00
-1.110000000000000014e-01 0.000000000000000000e+00
-1.100000000000000006e-01 0.000000000000000000e+00
-1.089999999999999997e-01 0.000000000000000000e+00
-1.079999999999999988e-01 0.000000000000000000e+00
-1.069999999999999979e-01 0.000000000000000000e+00
-1.059999999999999970e-01 0.000000000000000000e+00
-1.049999999999999961e-01 0.000000000000000000e+00
-1.039999999999999952e-01 0.000000000000000000e+00
-1.029999999999999943e-01 0.000000000000000000e+00
-1.019999999999999934e-01 0.000000000000000000e+00
-1.010000000000000064e-01 0.000000000000000000e+00
-1.000000000000000056e-01 0.000000000000000000e+00
-9.900000999999999940e-02 0.000000000000000000e+00
-9.800000000000000377e-02 0.000000000000000000e+00
-9.700000000000000289e-02 0.000000000000000000e+00
-9.600000000000000200e-02 0.000000000000000000e+00
-9.500000999999999585e-02 0.000000000000000000e+00
-9.400000000000000022e-02 0.000000000000000000e+00
-9.299999999999999933e-02 0.000000000000000000e+00
-9.200000999999999318e-02 0.000000000000000000e+00
-9.100001000000000617e-02 0.000000000000000000e+00
-8.999999999999999667e-02 0.000000000000000000e+00
-8.899999999999999578e-02 0.000000000000000000e+00
-8.799999999999999489e-02 0.000000000000000000e+00
-8.699999999999999400e-02 0.000000000000000000e+00
-8.599999999999999312e-02 0.000000000000000000e+00
-8.500001000000000084e-02 0.000000000000000000e+00
-8.400000999999999995e-02 0.000000000000000000e+00
-8.300000000000000433e-02 0.000000000000000000e+00
-8.200000000000000344e-02 0.000000000000000000e+00
-8.100000000000000255e-02 0.000000000000000000e+00
-8.000000000000000167e-02 0.000000000000000000e+00
-7.900000000000000078e-02 0.000000000000000000e+00
-7.799999999999999989e-02 0.000000000000000000e+00
-7.700000999999999374e-02 0.000000000000000000e+00
-7.600001000000000673e-02 0.000000000000000000e+00
-7.499999999999999722e-02 0.000000000000000000e+00
-7.399999999999999634e-02 0.000000000000000000e+00
-7.299999999999999545e-02 0.000000000000000000e+00
-7.199999999999999456e-02 0.000000000000000000e+00
-7.099999999999999367e-02 0.000000000000000000e+00
-7.000001000000000140e-02 0.000000000000000000e+00
-6.900001000000000051e-02 0.000000000000000000e+00
-6.800000000000000488e-02 0.000000000000000000e+00
-6.700000000000000400e-02 0.000000000000000000e+00
-6.600000000000000311e-02 0.000000000000000000e+00
-6.500000000000000222e-02 0.000000000000000000e+00
-6.400000000000000133e-02 0.000000000000000000e+00
-6.300000000000000044e-02 0.000000000000000000e+00
-6.199999999999999956e-02 0.000000000000000000e+00
-6.099999999999999867e-02 0.000000000000000000e+00
-5.999999999999999778e-02 0.000000000000000000e+00
-5.899999999999999689e-02 0.000000000000000000e+00
-5.800000000000000294e-02 0.000000000000000000e+00
-5.700000000000000205e-02 0.000000000000000000e+00
-5.600000000000000117e-02 0.000000000000000000e+00
-5.500000000000000028e-02 0.000000000000000000e+00
-5.400001000000000106e-02 0.000000000000000000e+00
-5.299999999999999850e-02 0.000000000000000000e+00
-5.199999999999999761e-02 0.000000000000000000e+00
-5.099999999999999672e-02 0.000000000000000000e+00
-5.000000000000000278e-02 0.000000000000000000e+00
-4.900000000000000189e-02 0.000000000000000000e+00
-4.800000000000000100e-02 0.000000000000000000e+00
-4.700000000000000011e-02 0.000000000000000000e+00
-4.599999999999999922e-02 0.000000000000000000e+00
-4.499999999999999833e-02 0.000000000000000000e+00
-4.399999999999999745e-02 0.000000000000000000e+00
-4.299999999999999656e-02 0.000000000000000000e+00
-4.200000000000000261e-02 0.000000000000000000e+00
-4.100000000000000172e-02 0.000000000000000000e+00
-4.000000000000000083e-02 0.000000000000000000e+00
-3.899999999999999994e-02 0.000000000000000000e+00
-3.799999999999999906e-02 0.000000000000000000e+00
-3.699999999999999817e-02 0.000000000000000000e+00
-3.599999999999999728e-02 0.000000000000000000e+00
-3.500000000000000333e-02 0.000000000000000000e+00
-3.400000000000000244e-02 0.000000000000000000e+00
-3.300000000000000155e-02 0.000000000000000000e+00
-3.200000000000000067e-02 0.000000000000000000e+00
-3.099999999999999978e-02 0.000000000000000000e+00
-2.999999999999999889e-02 0.000000000000000000e+00
-2.900000000000000147e-02 0.000000000000000000e+00
-2.800000000000000058e-02 0.000000000000000000e+00
-2.699999999999999969e-02 0.000000000000000000e+00
-2.599999999999999881e-02 0.000000000000000000e+00
-2.500000000000000139e-02 0.000000000000000000e+00
-2.400000000000000050e-02 0.000000000000000000e+00
-2.299999999999999961e-02 0.000000000000000000e+00
-2.199999999999999872e-02 0.000000000000000000e+00
-2.100000000000000130e-02 0.000000000000000000e+00
-2.000000000000000042e-02 0.000000000000000000e+00
-1.899999999999999953e-02 0.000000000000000000e+00
-1.799999999999999864e-02 0.000000000000000000e+00
-1.700000000000000122e-02 0.000000000000000000e+00
-1.600000000000000033e-02 0.000000000000000000e+00
-1.499999999999999944e-02 0.000000000000000000e+00
-1.400000000000000029e-02 0.000000000000000000e+00
-1.299999999999999940e-02 0.000000000000000000e+00
-1.200000000000000025e-02 0.000000000000000000e+00
-1.099999999999999936e-02 0.000000000000000000e+00
-9.999997999999999526e-03 0.000000000000000000e+00
-8.999995999999999691e-03 0.000000000000000000e+00
-8.000000999999999640e-03 0.000000000000000000e+00
-6.999998999999999805e-03 0.000000000000000000e+00
-5.999996999999999969e-03 0.000000000000000000e+00
-5.000003000000000260e-03 0.000000000000000000e+00
-4.000001000000000424e-03 0.000000000000000000e+00
-2.999999000000000155e-03 0.000000000000000000e+00
-1.999996999999999886e-03 0.000000000000000000e+00
-1.000002000000000052e-03 0.000000000000000000e+00
0.000000000000000000e+00 0.000000000000000000e+00
1.000002000000000052e-03 0.000000000000000000e+00
2.000004000000000105e-03 0.000000000000000000e+00
2.999999000000000155e-03 0.000000000000000000e+00
4.000001000000000424e-03 0.000000000000000000e+00
4.999995000000000134e-03 0.000000000000000000e+00
5.999996999999999969e-03 0.000000000000000000e+00
6.999998999999999805e-03 0.000000000000000000e+00
8.000000999999999640e-03 0.000000000000000000e+00
9.000002999999999476e-03 0.000000000000000000e+00
1.000001000000000015e-02 0.000000000000000000e+00
1.100000999999999930e-02 0.000000000000000000e+00
1.199999000000000031e-02 0.000000000000000000e+00
1.299999999999999940e-02 0.000000000000000000e+00
1.400000000000000029e-02 0.000000000000000000e+00
1.499999999999999944e-02 0.000000000000000000e+00
1.600000000000000033e-02 0.000000000000000000e+00
1.700000000000000122e-02 0.000000000000000000e+00
1.800001000000000032e-02 0.000000000000000000e+00
1.900001000000000120e-02 0.000000000000000000e+00
2.000000000000000042e-02 0.000000000000000000e+00
2.100000000000000130e-02 0.000000000000000000e+00
2.199999999999999872e-02 0.000000000000000000e+00
2.299999999999999961e-02 0.000000000000000000e+00
2.400000000000000050e-02 0.000000000000000000e+00
2.500000999999999959e-02 0.000000000000000000e+00
2.600001000000000048e-02 0.000000000000000000e+00
2.699999999999999969e-02 0.000000000000000000e+00
2.800000000000000058e-02 0.000000000000000000e+00
2.900000000000000147e-02 0.000000000000000000e+00
2.999999999999999889e-02 0.000000000000000000e+00
3.099999999999999978e-02 0.000000000000000000e+00
3.200001000000000234e-02 0.000000000000000000e+00
3.300001000000000323e-02 0.000000000000000000e+00
3.400000999999999718e-02 0.000000000000000000e+00
3.500000000000000333e-02 0.000000000000000000e+00
3.599999999999999728e-02 0.000000000000000000e+00
3.699999999999999817e-02 0.000000000000000000e+00
3.799999999999999906e-02 0.000000000000000000e+00
3.899999999999999994e-02 0.000000000000000000e+00
4.000001000000000251e-02 0.000000000000000000e+00
4.100001000000000340e-02 0.000000000000000000e+00
4.200000000000000261e-02 0.000000000000000000e+00
4.299999999999999656e-02 0.000000000000000000e+00
4.399999999999999745e-02 0.000000000000000000e+00
4.499999999999999833e-02 0.000000000000000000e+00
4.599999999999999922e-02 0.000000000000000000e+00
4.700001000000000179e-02 0.000000000000000000e+00
4.800001000000000267e-02 0.000000000000000000e+00
4.900000999999999662e-02 0.000000000000000000e+00
5.000000000000000278e-02 0.000000000000000000e+00
5.099999999999999672e-02 0.000000000000000000e+00
5.199999999999999761e-02 0.000000000000000000e+00
5.299999999999999850e-02 0.000000000000000000e+00
5.400001000000000106e-02 0.000000000000000000e+00
5.500001000000000195e-02 0.000000000000000000e+00
5.600001000000000284e-02 0.000000000000000000e+00
5.700000000000000205e-02 0.000000000000000000e+00
5.800000000000000294e-02 0.000000000000000000e+00
5.899999999999999689e-02 0.000000000000000000e+00
5.999999999999999778e-02 0.000000000000000000e+00
6.099999999999999867e-02 0.000000000000000000e+00
6.200001000000000123e-02 0.000000000000000000e+00
6.300000999999999518e-02 0.000000000000000000e+00
6.400000999999999607e-02 0.000000000000000000e+00
6.500000000000000222e-02 0.000000000000000000e+00
6.600000000000000311e-02 0.000000000000000000e+00
6.700000000000000400e-02 0.000000000000000000e+00
6.800000000000000488e-02 0.000000000000000000e+00
6.900001000000000051e-02 0.000000000000000000e+00
7.000001000000000140e-02 0.000000000000000000e+00
7.100001000000000229e-02 0.000000000000000000e+00
7.199999999999999456e-02 0.000000000000000000e+00
7.299999999999999545e-02 0.000000000000000000e+00
7.399999999999999634e-02 0.000000000000000000e+00
7.499999999999999722e-02 -7.006492321624085355e-45
7.600001000000000673e-02 -1.835700988265510363e-43
7.700000999999999374e-02 -2.323352853850546704e-42
7.800000999999999463e-02 -1.082222803998056224e-41
7.900000999999999551e-02 2.092769191545898055e-40
8.000000000000000167e-02 6.146570104708053786e-39
8.100000000000000255e-02 9.172054484236571817e-38
8.200000000000000344e-02 9.456442738689067580e-37
8.300000000000000433e-02 6.439644896237021944e-36
8.400000999999999995e-02 9.789899936365581739e-36
8.500001000000000084e-02 -5.159333786190293124e-34
8.600001000000000173e-02 -1.017635892019217843e-32
8.700001000000000262e-02 -1.295538655114701482e-31
8.799999999999999489e-02 -1.331026829566026342e-30
8.899999999999999578e-02 -1.178940486484886965e-29
8.999999999999999667e-02 -9.264931553542707444e-29
9.100001000000000617e-02 -6.552308338086867619e-28
9.200000999999999318e-02 -4.196655660044218644e-27
9.300000999999999407e-02 -2.435637627153819737e-26
9.400000999999999496e-02 -1.273991503225918626e-25
9.500000000000000111e-02 -5.922991022643147334e-25
9.600000000000000200e-02 -2.376802014259721014e-24
9.700000000000000289e-02 -7.705060052226913911e-24
9.800000000000000377e-02 -1.655989276242250474e-23
9.900000999999999940e-02 -4.101258510479127470e-25
1.000000000000000056e-01 1.191455247785213750e-22
1.010000000000000064e-01 -7.255885050931221661e-22
1.019999999999999934e-01 -1.984666399043270106e-20
1.029999999999999943e-01 -2.150140972527662285e-19
1.039999999999999952e-01 -1.708636887793875399e-18
1.049999999999999961e-01 -1.129197985394306459e-17
1.059999999999999970e-01 -6.514857299110904864e-17
1.069999999999999979e-01 -3.357919711975416565e-16
1.079999999999999988e-01 -1.564407808415306349e-15
1.089999999999999997e-01 -6.624567176961209183e-15
1.100000000000000006e-01 -2.553821107224071157e-14
1.110000000000000014e-01 -8.949834823983662813e-14
1.120000000000000023e-01 -2.838557026148963436e-13
1.130000000000000032e-01 -8.081493915908233294e-13
1.140000000000000041e-01 -2.036738616303934712e-12
1.150000000000000050e-01 -4.431037134433601921e-12
1.160000000000000059e-01 -7.893480140352959751e-12
1.170000000000000068e-01 -9.871834252828115552e-12
1.179999999999999938e-01 -1.817512611766713970e-12
1.189999999999999947e-01 3.437367751546460681e-11
1.199999999999999956e-01 1.240706565264204642e-10
1.209999999999999964e-01 2.828778045138591324e-10
1.219999999999999973e-01 4.837253930745077923e-10
1.229999999999999982e-01 6.329109458746984274e-10
1.239999999999999991e-01 6.062007007479053300e-10
1.250000000000000000e-01 3.679193616434872638e-10
1.260000000000000009e-01 8.071647517038371689e-11
1.270000000000000018e-01 1.981127935313242716e-11
1.280000000000000027e-01 2.589776726402703844e-10
1.290000000000000036e-01 4.790205454519025352e-10
1.300000000000000044e-01 3.072977428075773787e-10
1.310000000000000053e-01 -1.141687369643484828e-10
1.320000000000000062e-01 -2.552859035276355826e-10
1.330000000000000071e-01 -4.924294652597360766e-11
1.340000000000000080e-01 -4.039224857366185972e-11
1.350000000000000089e-01 -3.338083420789672573e-10
1.360000000000000098e-01 -2.967837642309234525e-10
1.370000000000000107e-01 1.428782786527804660e-10
1.380000000000000115e-01 2.436258972338123385e-10
1.390000000000000124e-01 2.628294457074353829e-11
1.400000000000000133e-01 1.585446357532660500e-10
1.409999999999999865e-01 2.617764616186235571e-10
1.419999999999999873e-01 -1.510231384393989629e-10
1.429999999999999882e-01 -2.943774113361996569e-10
1.439999999999999891e-01 -1.921916618907726360e-11
1.449999999999999900e-01 -1.038659228069782614e-10
1.459999999999999909e-01 -7.449568045769794367e-11
1.469999999999999918e-01 3.182072383367540169e-10
1.479999999999999927e-01 1.556622053477951795e-10
1.489999999999999936e-01 -8.601118428597231969e-11
1.499999999999999944e-01 4.106111978208204505e-11
1.509999999999999953e-01 -2.168010215797266937e-10
1.519999999999999962e-01 -2.056881609480143425e-10
1.529999999999999971e-01 1.841370944610787319e-10
1.539999999999999980e-01 5.573182193518988470e-11
1.549999999999999989e-01 1.331382226688049286e-10
1.559999999999999998e-01 1.296213830714876281e-10
1.570000000000000007e-01 -2.642060459301376341e-10
1.580000000000000016e-01 -6.934813834291730927e-11
1.590000000000000024e-01 -4.310647672145506704e-11
1.600000000000000033e-01 9.241046296237787061e-12
1.610000000000000042e-01 2.878663696304073483e-10
1.620000000000000051e-01 -4.799479910722048714e-11
1.630000000000000060e-01 -4.126976538287863150e-11
1.640000000000000069e-01 -1.227889595556419522e-10
1.650000000000000078e-01 -1.572582480902084967e-10
1.660000000000000087e-01 2.130770004882265312e-10
1.670000000000000095e-01 1.636531014870268308e-11
1.680000000000000104e-01 2.343611971156178697e-10
1.690000000000000113e-01 -5.470313091393563809e-10
1.700000000000000122e-01 1.208333211266676699e-09
1.710000000000000131e-01 -3.599109454910376371e-09
1.719999999999999862e-01 7.808007573828490422e-09
1.729999999999999871e-01 -1.294523066519559507e-08
1.739999999999999880e-01 1.539341631939805666e-08
1.749999999999999889e-01 -6.542487884786396535e-09
1.759999999999999898e-01 -1.450364006672089090e-08
1.769999999999999907e-01 1.713689812277152669e-08
1.779999999999999916e-01 2.414043187570769078e-08
1.789999999999999925e-01 -1.020791540184973201e-08
1.799999999999999933e-01 -6.402832042340378393e-08
1.809999999999999942e-01 -1.288419468892243458e-07
1.819999999999999951e-01 -2.042063016460815561e-07
1.829999999999999960e-01 -2.896583737310720608e-07
1.839999999999999969e-01 -3.857909689486405114e-07
1.849999999999999978e-01 -5.003066689823754132e-07
1.859999999999999987e-01 -6.410822379621095024e-07
1.869999999999999996e-01 -8.136688052218232770e-07
1.880000000000000004e-01 -1.021974298964778427e-06
1.890000000000000013e-01 -1.272364556825777981e-06
1.900000000000000022e-01 -1.575215833327092696e-06
1.910000000000000031e-01 -1.942569724633358419e-06
1.920000000000000040e-01 -2.388157554378267378e-06
1.930000000000000049e-01 -2.925800799857825041e-06
1.940000000000000058e-01 -3.572759624148602597e-06
1.950000000000000067e-01 -4.348447419033618644e-06
1.960000000000000075e-01 -5.277592663333052769e-06
1.970000000000000084e-01 -6.388047950167674571e-06
1.980000000000000093e-01 -7.713941158726811409e-06
1.990000000000000102e-01 -9.293218681705184281e-06
2.000000000000000111e-01 -1.117062856792472303e-05
2.010000000000000120e-01 -1.339572372671682388e-05
2.020000000000000129e-01 -1.602688280399888754e-05
2.030000000000000138e-01 -1.913025334943085909e-05
2.039999999999999869e-01 -2.278342071804217994e-05
2.049999999999999878e-01 -2.707357270992361009e-05
2.059999999999999887e-01 -3.210084469174034894e-05
2.069999999999999896e-01 -3.797738099819980562e-05
2.079999999999999905e-01 -4.483153679757378995e-05
2.089999999999999913e-01 -5.280673576635308564e-05
2.099999999999999922e-01 -6.206498801475390792e-05
2.109999999999999931e-01 -7.278600241988897324e-05
2.119999999999999940e-01 -8.517158858012408018e-05
2.129999999999999949e-01 -9.944516204996034503e-05
2.139999999999999958e-01 -1.158556915470398962e-04
2.149999999999999967e-01 -1.346766075585037470e-04
2.159999999999999976e-01 -1.562095276312902570e-04
2.169999999999999984e-01 -1.807838707463815808e-04
2.179999999999999993e-01 -2.087606990244239569e-04
2.190000000000000002e-01 -2.405314153293147683e-04
2.200000000000000011e-01 -2.765202953014522791e-04
2.210000000000000020e-01 -3.171836433466523886e-04
2.220000000000000029e-01 -3.630116989370435476e-04
2.230000000000000038e-01 -4.145277198404073715e-04
2.240000000000000047e-01 -4.722875601146370173e-04
2.250000000000000056e-01 -5.368784186430275440e-04
2.260000000000000064e-01 -6.089169764891266823e-04
2.270000000000000073e-01 -6.890476797707378864e-04
2.280000000000000082e-01 -7.779387524351477623e-04
2.290000000000000091e-01 -8.762794896028935909e-04
2.300000000000000100e-01 -9.847730398178100586e-04
2.310000000000000109e-01 -1.104133320041000843e-03
2.320000000000000118e-01 -1.235076226294040680e-03
2.330000000000000127e-01 -1.378313172608613968e-03
2.340000000000000135e-01 -1.534540206193923950e-03
2.349999999999999867e-01 -1.704430906102061272e-03
2.359999999999999876e-01 -1.888622180558741093e-03
2.369999999999999885e-01 -2.087704138830304146e-03
2.379999999999999893e-01 -2.302207052707672119e-03
2.389999999999999902e-01 -2.532585756853222847e-03
2.399999999999999911e-01 -2.779206726700067520e-03
2.409999999999999920e-01 -3.042330034077167511e-03
2.419999999999999929e-01 -3.322095610201358795e-03
2.429999999999999938e-01 -3.618504619225859642e-03
2.439999999999999947e-01 -3.931405488401651382e-03
2.449999999999999956e-01 -4.260473418980836868e-03
2.459999999999999964e-01 -4.605197813361883163e-03
2.469999999999999973e-01 -4.964864812791347504e-03
2.479999999999999982e-01 -5.338540766388177872e-03
2.489999999999999991e-01 -5.725064780563116074e-03
2.500000000000000000e-01 -6.123030092567205429e-03
2.510000000000000009e-01 -6.530778482556343079e-03
2.520000000000000018e-01 -6.946391426026821136e-03
2.530000000000000027e-01 -7.367685902863740921e-03
2.540000000000000036e-01 -7.792212534695863724e-03
2.550000000000000044e-01 -8.217258378863334656e-03
2.560000000000000053e-01 -8.639850653707981110e-03
2.570000000000000062e-01 -9.056764654815196991e-03
2.580000000000000071e-01 -9.464546106755733490e-03
2.590000000000000080e-01 -9.859519079327583313e-03
2.600000000000000089e-01 -1.023781299591064453e-02
2.610000000000000098e-01 -1.059538871049880981e-02
2.620000000000000107e-01 -1.092807389795780182e-02
2.630000000000000115e-01 -1.123159192502498627e-02
2.640000000000000124e-01 -1.150160841643810272e-02
2.650000000000000133e-01 -1.173377316445112228e-02
2.660000000000000142e-01 -1.192376203835010529e-02
2.670000000000000151e-01 -1.206734031438827515e-02
2.680000000000000160e-01 -1.216040086001157761e-02
2.690000000000000169e-01 -1.219903025776147842e-02
2.700000000000000178e-01 -1.217955723404884338e-02
2.710000000000000187e-01 -1.209861598908901215e-02
2.720000000000000195e-01 -1.195319555699825287e-02
2.730000000000000204e-01 -1.174069847911596298e-02
2.740000000000000213e-01 -1.145898830145597458e-02
2.750000000000000222e-01 -1.110644731670618057e-02
2.760000000000000231e-01 -1.068201195448637009e-02
2.770000000000000240e-01 -1.018521655350923538e-02
2.780000000000000249e-01 -9.616230614483356476e-03
2.790000000000000258e-01 -8.975880220532417297e-03
2.800000000000000266e-01 -8.265674114227294922e-03
2.810000000000000275e-01 -7.487812079489231110e-03
2.819999999999999729e-01 -6.645187735557556152e-03
2.829999999999999738e-01 -5.741384346038103104e-03
2.839999999999999747e-01 -4.780663643032312393e-03
2.849999999999999756e-01 -3.767934860661625862e-03
2.859999999999999765e-01 -2.708727493882179260e-03
2.869999999999999774e-01 -1.609147526323795319e-03
2.879999999999999782e-01 -4.758242575917392969e-04
2.889999999999999791e-01 6.841455469839274883e-04
2.899999999999999800e-01 1.863266574218869209e-03
2.909999999999999809e-01 3.053717548027634621e-03
2.919999999999999818e-01 4.247429780662059784e-03
2.929999999999999827e-01 5.436171311885118484e-03
2.939999999999999836e-01 6.611633114516735077e-03
2.949999999999999845e-01 7.765521295368671417e-03
2.959999999999999853e-01 8.889646269381046295e-03
2.969999999999999862e-01 9.976008906960487366e-03
2.979999999999999871e-01 1.101689878851175308e-02
2.989999999999999880e-01 1.200496777892112732e-02
2.999999999999999889e-01 1.293332222849130630e-02
3.009999999999999898e-01 1.379559002816677094e-02
3.019999999999999907e-01 1.458599511533975601e-02
3.029999999999999916e-01 1.529941521584987640e-02
3.039999999999999925e-01 1.593143865466117859e-02
3.049999999999999933e-01 1.647840067744255066e-02
3.059999999999999942e-01 1.693742722272872925e-02
3.069999999999999951e-01 1.730644702911376953e-02
3.079999999999999960e-01 1.758421584963798523e-02
3.089999999999999969e-01 1.777030900120735168e-02
3.099999999999999978e-01 1.786511763930320740e-02
3.109999999999999987e-01 1.786982454359531403e-02
3.119999999999999996e-01 1.778639107942581177e-02
3.130000000000000004e-01 1.761749759316444397e-02
3.140000000000000013e-01 1.736651360988616943e-02
3.150000000000000022e-01 1.703744381666183472e-02
3.160000000000000031e-01 1.663485728204250336e-02
3.170000000000000040e-01 1.616382971405982971e-02
3.180000000000000049e-01 1.562987454235553741e-02
3.190000000000000058e-01 1.503886189311742783e-02
3.200000000000000067e-01 1.439695246517658234e-02
3.210000000000000075e-01 1.371051836758852005e-02
3.220000000000000084e-01 1.298606302589178085e-02
3.230000000000000093e-01 1.223015133291482925e-02
3.240000000000000102e-01 1.144933700561523438e-02
3.250000000000000111e-01 1.065008807927370071e-02
3.260000000000000120e-01 9.838728234171867371e-03
3.270000000000000129e-01 9.021374396979808807e-03
3.280000000000000138e-01 8.203883655369281769e-03
3.290000000000000147e-01 7.391800638288259506e-03
3.300000000000000155e-01 6.590320728719234467e-03
3.310000000000000164e-01 5.804252810776233673e-03
3.320000000000000173e-01 5.037988536059856415e-03
3.330000000000000182e-01 4.295485094189643860e-03
3.340000000000000191e-01 3.580246120691299438e-03
3.350000000000000200e-01 2.895314013585448265e-03
3.360000000000000209e-01 2.243269933387637138e-03
3.370000000000000218e-01 1.626237528398633003e-03
3.380000000000000226e-01 1.045887824147939682e-03
3.390000000000000235e-01 5.034582572989165783e-04
3.400000000000000244e-01 -2.301457016073982231e-07
3.410000000000000253e-01 -4.647511814255267382e-04
3.420000000000000262e-01 -8.900481625460088253e-04
3.430000000000000271e-01 -1.276405295357108116e-03
3.439999999999999725e-01 -1.624417724087834358e-03
3.449999999999999734e-01 -1.934960135258734226e-03
3.459999999999999742e-01 -2.209154190495610237e-03
3.469999999999999751e-01 -2.448335988447070122e-03
3.479999999999999760e-01 -2.654023235663771629e-03
3.489999999999999769e-01 -2.827882766723632812e-03
3.499999999999999778e-01 -2.971701091155409813e-03
3.509999999999999787e-01 -3.087354358285665512e-03
3.519999999999999796e-01 -3.176779719069600105e-03
3.529999999999999805e-01 -3.241951111704111099e-03
3.539999999999999813e-01 -3.284854115918278694e-03
3.549999999999999822e-01 -3.307463368400931358e-03
3.559999999999999831e-01 -3.311724169179797173e-03
3.569999999999999840e-01 -3.299535484984517097e-03
3.579999999999999849e-01 -3.272735048085451126e-03
3.589999999999999858e-01 -3.233087249100208282e-03
3.599999999999999867e-01 -3.182271728292107582e-03
3.609999999999999876e-01 -3.121876856312155724e-03
3.619999999999999885e-01 -3.053393214941024780e-03
3.629999999999999893e-01 -2.978209406137466431e-03
3.639999999999999902e-01 -2.897607628256082535e-03
3.649999999999999911e-01 -2.812766004353761673e-03
3.659999999999999920e-01 -2.724755555391311646e-03
3.669999999999999929e-01 -2.634546486660838127e-03
3.679999999999999938e-01 -2.543005859479308128e-03
3.689999999999999947e-01 -2.450905507430434227e-03
3.699999999999999956e-01 -2.358923200517892838e-03
3.709999999999999964e-01 -2.267648931592702866e-03
3.719999999999999973e-01 -2.177590271458029747e-03
3.729999999999999982e-01 -2.089176792651414871e-03
3.739999999999999991e-01 -2.002767520025372505e-03
3.750000000000000000e-01 -1.918656867928802967e-03
3.760000000000000009e-01 -1.837078831158578396e-03
3.770000000000000018e-01 -1.758214901201426983e-03
3.780000000000000027e-01 -1.682198024354875088e-03
3.790000000000000036e-01 -1.609118422493338585e-03
3.800000000000000044e-01 -1.539028715342283249e-03
3.810000000000000053e-01 -1.471948227845132351e-03
3.820000000000000062e-01 -1.407869975082576275e-03
3.830000000000000071e-01 -1.346762059256434441e-03
3.840000000000000080e-01 -1.288574072532355785e-03
3.850000000000000089e-01 -1.233237911947071552e-03
3.860000000000000098e-01 -1.180672436021268368e-03
3.870000000000000107e-01 -1.130785793066024780e-03
3.880000000000000115e-01 -1.083479146473109722e-03
3.890000000000000124e-01 -1.038647140376269817e-03
3.900000000000000133e-01 -9.961815085262060165e-04
3.910000000000000142e-01 -9.559719474054872990e-04
3.920000000000000151e-01 -9.179083863273262978e-04
3.930000000000000160e-01 -8.818799396976828575e-04
3.940000000000000169e-01 -8.477778173983097076e-04
3.950000000000000178e-01 -8.154959650710225105e-04
3.960000000000000187e-01 -7.849301910027861595e-04
3.970000000000000195e-01 -7.559816003777086735e-04
3.980000000000000204e-01 -7.285557803697884083e-04
3.990000000000000213e-01 -7.025614613667130470e-04
4.000000000000000222e-01 -6.779106333851814270e-04
4.010000000000000231e-01 -6.545213400386273861e-04
4.020000000000000240e-01 -6.323156412690877914e-04
4.030000000000000249e-01 -6.112196715548634529e-04
4.040000000000000258e-01 -5.911644548177719116e-04
4.050000000000000266e-01 -5.720850313082337379e-04
4.060000000000000275e-01 -5.539212725125253201e-04
4.069999999999999729e-01 -5.366163677535951138e-04
4.079999999999999738e-01 -5.201163585297763348e-04
4.089999999999999747e-01 -5.043714772909879684e-04
4.099999999999999756e-01 -4.893358564004302025e-04
4.109999999999999765e-01 -4.749662184622138739e-04
4.119999999999999774e-01 -4.612230695784091949e-04
4.129999999999999782e-01 -4.480687202885746956e-04
4.139999999999999791e-01 -4.354676057118922472e-04
4.149999999999999800e-01 -4.233873914927244186e-04
4.159999999999999809e-01 -4.117966454941779375e-04
4.169999999999999818e-01 -4.006677481811493635e-04
4.179999999999999827e-01 -3.899739240296185017e-04
4.189999999999999836e-01 -3.796901728492230177e-04
4.199999999999999845e-01 -3.697923384606838226e-04
4.209999999999999853e-01 -3.602580109145492315e-04
4.220000999999999891e-01 -3.510657115839421749e-04
4.229999999999999871e-01 -3.421951259952038527e-04
4.239999999999999880e-01 -3.336265799589455128e-04
4.249999999999999889e-01 -3.253421746194362640e-04
4.259999999999999898e-01 -3.173240984324365854e-04
4.269999999999999907e-01 -3.095538704656064510e-04
4.279999999999999916e-01 -3.020142903551459312e-04
4.289999999999999925e-01 -2.946882159449160099e-04
4.299999999999999933e-01 -2.875583013519644737e-04
4.309999999999999942e-01 -2.806080738082528114e-04
4.319999999999999951e-01 -2.738199546001851559e-04
4.329999999999999960e-01 -2.671759866643697023e-04
4.339999999999999969e-01 -2.606574562378227711e-04
4.349999999999999978e-01 -2.542458241805434227e-04
4.359999999999999987e-01 -2.479205722920596600e-04
4.369999999999999996e-01 -2.416619972791522741e-04
4.380000000000000004e-01 -2.354490134166553617e-04
4.390000000000000013e-01 -2.292575081810355186e-04
4.400000000000000022e-01 -2.230623795185238123e-04
4.410000000000000031e-01 -2.168377832276746631e-04
4.420000000000000040e-01 -2.105566381942480803e-04
4.430000000000000049e-01 -2.041884727077558637e-04
4.440000000000000058e-01 -1.977022184291854501e-04
4.450000000000000067e-01 -1.910637220134958625e-04
4.460000000000000075e-01 -1.842368219513446093e-04
4.470000000000000084e-01 -1.771821407601237297e-04
4.480000000000000093e-01 -1.698586129350587726e-04
4.490000000000000102e-01 -1.622222334844991565e-04
4.500000000000000111e-01 -1.542273967061191797e-04
4.510000000000000120e-01 -1.458245096728205681e-04
4.520000000000000129e-01 -1.369607343804091215e-04
4.530000000000000138e-01 -1.275816757697612047e-04
4.540000000000000147e-01 -1.176291771116666496e-04
4.550000000000000155e-01 -1.070428479579277337e-04
4.560000000000000164e-01 -9.576121374266222119e-05
4.570000000000000173e-01 -8.371983130928128958e-05
4.580000000000000182e-01 -7.085104880388826132e-05
4.590001000000000220e-01 -5.708613753085955977e-05
4.600000000000000200e-01 -4.235479354974813759e-05
4.610000000000000209e-01 -2.658688026713207364e-05
4.620000000000000218e-01 -9.712010978546459228e-06
4.630000000000000226e-01 8.340893145941663533e-06
4.640000000000000235e-01 2.764221062534488738e-05
4.650000000000000244e-01 4.826014992431737483e-05
4.660000000000000253e-01 7.026158709777519107e-05
4.670000000000000262e-01 9.370886255055665970e-05
4.680000000000000271e-01 1.186605077236890793e-04
4.689999999999999725e-01 1.451703574275597930e-04
4.699999999999999734e-01 1.732861419441178441e-04