-1.200000e-01 0.000000e+00
-1.190000e-01 0.000000e+00
-1.180000e-01 0.000000e+00
-1.170000e-01 0.000000e+00
-1.160000e-01 0.000000e+00
-1.150000e-01 0.000000e+00
-1.140000e-01 0.000000e+00
-1.130000e-01 -3.120532e-22
-1.120000e-01 -1.770234e-21
-1.110000e-01 -7.264798e-22
-1.100000e-01 2.138351e-20
-1.090000e-01 6.168850e-20
-1.080000e-01 -9.068780e-20
-1.070000e-01 -1.039573e-18
-1.060000e-01 -3.036884e-18
-1.050000e-01 -3.220155e-18
-1.040000e-01 6.938846e-18
-1.030000e-01 3.474744e-17
-1.020000e-01 6.059416e-17
-1.010000e-01 9.680256e-18
-1.000000e-01 -2.139131e-16
-9.900001e-02 -5.591271e-16
-9.800000e-02 -5.933644e-16
-9.700000e-02 4.535797e-16
-9.600000e-02 2.909093e-15
-9.500001e-02 5.233290e-15
-9.400000e-02 3.337023e-15
-9.300000e-02 -7.031371e-15
-9.200001e-02 -2.397908e-14
-9.100001e-02 -3.323095e-14
-9.000000e-02 -1.113784e-14
-8.900000e-02 5.550896e-14
-8.800000e-02 1.393007e-13
-8.700000e-02 1.590467e-13
-8.600000e-02 1.857181e-14
-8.500001e-02 -2.962041e-13
-8.400001e-02 -6.191722e-13
-8.300000e-02 -6.158804e-13
-8.200000e-02 1.087460e-14
-8.100000e-02 1.180761e-12
-8.000000e-02 2.210337e-12
-7.900000e-02 2.019468e-12
-7.800000e-02 -1.250354e-13
-7.700001e-02 -3.684551e-12
-7.600001e-02 -6.503989e-12
-7.500000e-02 -5.725085e-12
-7.400000e-02 1.393555e-13
-7.300000e-02 9.178898e-12
-7.200000e-02 1.590502e-11
-7.100000e-02 1.398378e-11
-7.000001e-02 9.304823e-13
-6.900001e-02 -1.827525e-11
-6.800000e-02 -3.205981e-11
-6.700000e-02 -2.864349e-11
-6.600000e-02 -4.847733e-12
-6.500000e-02 2.881208e-11
-6.400000e-02 5.190801e-11
-6.300000e-02 4.643875e-11
-6.200000e-02 1.055298e-11
-6.100000e-02 -3.655357e-11
-6.000000e-02 -6.447186e-11
-5.900000e-02 -5.194848e-11
-5.800000e-02 -4.375854e-12
-5.700000e-02 4.574797e-11
-5.600000e-02 5.926543e-11
-5.500000e-02 2.003805e-11
-5.400001e-02 -4.745295e-11
-5.300000e-02 -8.883566e-11
-5.200000e-02 -5.648046e-11
-5.100000e-02 5.075907e-11
-5.000000e-02 1.742317e-10
-4.900000e-02 2.238434e-10
-4.800000e-02 1.354210e-10
-4.700000e-02 -7.844730e-11
-4.600000e-02 -3.202170e-10
-4.500000e-02 -4.533519e-10
-4.400000e-02 -3.790573e-10
-4.300000e-02 -9.846021e-11
-4.200000e-02 2.785279e-10
-4.100000e-02 5.848543e-10
-4.000000e-02 6.794377e-10
-3.900000e-02 5.150437e-10
-3.800000e-02 1.553802e-10
-3.700000e-02 -2.629496e-10
-3.600000e-02 -5.974682e-10
-3.500000e-02 -7.576751e-10
-3.400000e-02 -7.264515e-10
-3.300000e-02 -5.417382e-10
-3.200000e-02 -2.572047e-10
-3.100000e-02 9.028348e-11
-3.000000e-02 4.849409e-10
-2.900000e-02 9.043000e-10
-2.800000e-02 1.277091e-09
-2.700000e-02 1.460178e-09
-2.600000e-02 1.267511e-09
-2.500000e-02 5.606484e-10
-2.400000e-02 -6.308217e-10
-2.300000e-02 -2.028377e-09
-2.200000e-02 -3.136905e-09
-2.100000e-02 -3.417160e-09
-2.000000e-02 -2.541848e-09
-1.900000e-02 -6.072689e-10
-1.800000e-02 1.832473e-09
-1.700000e-02 3.959274e-09
-1.600000e-02 5.032727e-09
-1.500000e-02 4.702347e-09
-1.400000e-02 3.120886e-09
-1.300000e-02 8.078404e-10
-1.200000e-02 -1.632256e-09
-1.100000e-02 -3.747013e-09
-9.999998e-03 -5.288035e-09
-8.999996e-03 -6.087749e-09
-8.000001e-03 -5.914002e-09
-6.999999e-03 -4.478234e-09
-5.999997e-03 -1.650515e-09
-5.000003e-03 2.248496e-09
-4.000001e-03 6.314160e-09
-2.999999e-03 9.255940e-09
-1.999997e-03 9.897308e-09
-1.000002e-03 7.737494e-09
0.000000e+00 3.261888e-09
1.000002e-03 -2.192143e-09
2.000004e-03 -6.965744e-09
2.999999e-03 -9.742444e-09
4.000001e-03 -1.002069e-08
4.999995e-03 -8.186683e-09
5.999997e-03 -5.194598e-09
6.999999e-03 -2.051904e-09
8.000001e-03 6.187388e-10
9.000003e-03 2.731905e-09
1.000001e-02 4.553364e-09
1.100001e-02 6.295622e-09
1.199999e-02 7.738471e-09
1.300000e-02 8.124069e-09
1.400000e-02 6.457341e-09
1.500000e-02 2.117247e-09
1.600000e-02 -4.533803e-09
1.700000e-02 -1.193887e-08
1.800001e-02 -1.777842e-08
1.900001e-02 -1.994437e-08
2.000000e-02 -1.759528e-08
2.100000e-02 -1.169076e-08
2.200000e-02 -4.631062e-09
2.300000e-02 8.784298e-10
2.400000e-02 3.134062e-09
2.500001e-02 2.172555e-09
2.600001e-02 -4.869207e-10
2.700000e-02 -2.935849e-09
2.800000e-02 -4.103640e-09
2.900000e-02 -4.376602e-09
3.000000e-02 -5.239258e-09
3.100000e-02 -8.193865e-09
3.200001e-02 -1.366573e-08
3.300001e-02 -2.058709e-08
3.400001e-02 -2.690103e-08
3.500000e-02 -3.064770e-08
3.600000e-02 -3.097853e-08
3.700000e-02 -2.851698e-08
3.800000e-02 -2.494198e-08
3.900000e-02 -2.198476e-08
4.000001e-02 -2.052820e-08
4.100001e-02 -2.019533e-08
4.200000e-02 -1.962462e-08
4.300000e-02 -1.731451e-08
4.400000e-02 -1.252101e-08
4.500000e-02 -5.898073e-09
4.600000e-02 6.284608e-10
4.700001e-02 4.677531e-09
4.800001e-02 4.635694e-09
4.900001e-02 4.947651e-10
5.000000e-02 -5.831680e-09
5.100000e-02 -1.140506e-08
5.200000e-02 -1.345688e-08
5.300000e-02 -1.066655e-08
5.400001e-02 -3.528839e-09
5.500001e-02 6.033588e-09
5.600001e-02 1.611625e-08
5.700000e-02 2.584420e-08
5.800000e-02 3.561581e-08
5.900000e-02 4.656613e-08
6.000000e-02 5.950278e-08
6.100000e-02 7.418930e-08
6.200001e-02 8.928691e-08
6.300001e-02 1.029948e-07
6.400001e-02 1.140033e-07
6.500000e-02 1.219996e-07
6.600000e-02 1.274566e-07
6.700000e-02 1.311564e-07
6.800000e-02 1.331864e-07
6.900001e-02 1.335502e-07
7.000001e-02 1.319677e-07
7.100001e-02 1.283406e-07
7.200000e-02 1.226581e-07
7.300000e-02 1.158260e-07
7.400000e-02 1.076405e-07
7.500000e-02 9.891664e-08
7.600001e-02 8.937059e-08
7.700001e-02 7.887866e-08
7.800001e-02 6.765185e-08
7.900001e-02 5.522452e-08
8.000000e-02 4.109097e-08
8.100000e-02 2.594606e-08
8.200000e-02 1.011358e-08
8.300000e-02 -5.700713e-09
8.400001e-02 -2.127126e-08
8.500001e-02 -3.544483e-08
8.600001e-02 -4.833419e-08
8.700001e-02 -5.967740e-08
8.800000e-02 -7.016570e-08
8.900000e-02 -7.864219e-08
9.000000e-02 -8.346524e-08
9.100001e-02 -8.350241e-08
9.200001e-02 -7.647122e-08
9.300001e-02 -6.120717e-08
9.400001e-02 -3.626701e-08
9.500000e-02 5.202310e-10
9.600000e-02 5.230322e-08
9.700000e-02 1.226545e-07
9.800000e-02 2.154702e-07
9.900001e-02 3.337555e-07
1.000000e-01 4.800677e-07
1.010000e-01 6.574483e-07
1.020000e-01 8.693387e-07
1.030000e-01 1.121007e-06
1.040000e-01 1.418412e-06
1.050000e-01 1.768145e-06
1.060000e-01 2.178174e-06
1.070000e-01 2.657063e-06
1.080000e-01 3.215217e-06
1.090000e-01 3.864800e-06
1.100000e-01 4.619054e-06
1.110000e-01 5.492024e-06
1.120000e-01 6.498711e-06
1.130000e-01 7.656607e-06
1.140000e-01 8.985517e-06
1.150000e-01 1.050859e-05
1.160000e-01 1.225190e-05
1.170000e-01 1.424379e-05
1.180000e-01 1.651492e-05
1.190000e-01 1.909879e-05
1.200000e-01 2.203138e-05
1.210000e-01 2.535024e-05
1.220000e-01 2.909610e-05
1.230000e-01 3.331315e-05
1.240000e-01 3.804769e-05
1.250000e-01 4.335013e-05
1.260000e-01 4.927303e-05
1.270000e-01 5.587060e-05
1.280000e-01 6.319854e-05
1.290000e-01 7.131204e-05
1.300000e-01 8.026507e-05
1.310000e-01 9.011294e-05
1.320000e-01 1.009113e-04
1.330000e-01 1.127161e-04
1.340000e-01 1.255800e-04
1.350000e-01 1.395512e-04
1.360000e-01 1.546690e-04
1.370000e-01 1.709640e-04
1.380000e-01 1.884570e-04
1.390000e-01 2.071612e-04
1.400000e-01 2.270798e-04
1.410000e-01 2.482032e-04
1.420000e-01 2.705049e-04
1.430000e-01 2.939403e-04
1.440000e-01 3.184446e-04
1.450000e-01 3.439322e-04
1.460000e-01 3.702966e-04
1.470000e-01 3.974075e-04
1.480000e-01 4.251073e-04
1.490000e-01 4.532085e-04
1.500000e-01 4.814944e-04
1.510000e-01 5.097209e-04
1.520000e-01 5.376182e-04
1.530000e-01 5.648896e-04
1.540000e-01 5.912096e-04
1.550000e-01 6.162235e-04
1.560000e-01 6.395487e-04
1.570000e-01 6.607816e-04
1.580000e-01 6.795006e-04
1.590000e-01 6.952704e-04
1.600000e-01 7.076409e-04
1.610000e-01 7.161547e-04
1.620000e-01 7.203473e-04
1.630000e-01 7.197581e-04
1.640000e-01 7.139398e-04
1.650000e-01 7.024693e-04
1.660000e-01 6.849503e-04
1.670000e-01 6.610141e-04
1.680000e-01 6.303284e-04
1.690000e-01 5.926091e-04
1.700000e-01 5.476284e-04
1.710000e-01 4.952268e-04
1.720000e-01 4.353230e-04
1.730000e-01 3.679137e-04
1.740000e-01 2.930774e-04
1.750000e-01 2.109758e-04
1.760000e-01 1.218607e-04
1.770000e-01 2.608277e-05
1.780000e-01 -7.590606e-05
1.790000e-01 -1.835453e-04
1.800000e-01 -2.961795e-04
1.810000e-01 -4.130656e-04
1.820000e-01 -5.333718e-04
1.830000e-01 -6.561867e-04
1.840000e-01 -7.805191e-04
1.850000e-01 -9.053027e-04
1.860000e-01 -1.029412e-03
1.870000e-01 -1.151680e-03
1.880000e-01 -1.270917e-03
1.890000e-01 -1.385920e-03
1.900000e-01 -1.495490e-03
1.910000e-01 -1.598436e-03
1.920000e-01 -1.693591e-03
1.930000e-01 -1.779833e-03
1.940000e-01 -1.856104e-03
1.950000e-01 -1.921438e-03
1.960000e-01 -1.974962e-03
1.970000e-01 -2.015919e-03
1.980000e-01 -2.043664e-03
1.990000e-01 -2.057681e-03
2.000000e-01 -2.057595e-03
2.010000e-01 -2.043181e-03
2.020000e-01 -2.014371e-03
2.030000e-01 -1.971258e-03
2.040000e-01 -1.914092e-03
2.050000e-01 -1.843276e-03
2.060000e-01 -1.759363e-03
2.070000e-01 -1.663058e-03
2.080000e-01 -1.555197e-03
2.090000e-01 -1.436745e-03
2.100000e-01 -1.308778e-03
2.110000e-01 -1.172473e-03
2.120000e-01 -1.029088e-03
2.130000e-01 -8.799487e-04
2.140000e-01 -7.264316e-04
2.150000e-01 -5.699497e-04
2.160000e-01 -4.119263e-04
2.170000e-01 -2.537778e-04
2.180000e-01 -9.689271e-05
2.190000e-01 5.737655e-05
2.200000e-01 2.077410e-04
2.210000e-01 3.529740e-04
2.220000e-01 4.919369e-04
2.230000e-01 6.235897e-04
2.240000e-01 7.470024e-04
2.250000e-01 8.613663e-04
2.260000e-01 9.659971e-04
2.270000e-01 1.060329e-03
2.280000e-01 1.143930e-03
2.290000e-01 1.216487e-03
2.300000e-01 1.277827e-03
2.310000e-01 1.327902e-03
2.320000e-01 1.366792e-03
2.330000e-01 1.394686e-03
2.340000e-01 1.411877e-03
2.350000e-01 1.418752e-03
2.360000e-01 1.415790e-03
2.370000e-01 1.403544e-03
2.380000e-01 1.382639e-03
2.390000e-01 1.353755e-03
2.400000e-01 1.317616e-03
2.410000e-01 1.274972e-03
2.420000e-01 1.226596e-03
2.430000e-01 1.173268e-03
2.440000e-01 1.115768e-03
2.450000e-01 1.054867e-03
2.460000e-01 9.913194e-04
2.470000e-01 9.258521e-04
2.480000e-01 8.591569e-04
2.490000e-01 7.918857e-04
2.500000e-01 7.246468e-04
2.510000e-01 6.580028e-04
2.520000e-01 5.924653e-04
2.530000e-01 5.284921e-04
2.540000e-01 4.664865e-04
2.550000e-01 4.067956e-04
2.560000e-01 3.497135e-04
2.570000e-01 2.954808e-04
2.580000e-01 2.442882e-04
2.590000e-01 1.962778e-04
2.600000e-01 1.515476e-04
2.610000e-01 1.101530e-04
2.620000e-01 7.211098e-05
2.630000e-01 3.740262e-05
2.640000e-01 5.978532e-06
2.650000e-01 -2.223935e-05
2.660000e-01 -4.735347e-05
2.670000e-01 -6.948711e-05
2.680000e-01 -8.877858e-05
2.690000e-01 -1.053782e-04
2.700000e-01 -1.194465e-04
2.710000e-01 -1.311518e-04
2.720000e-01 -1.406685e-04
2.730000e-01 -1.481735e-04
2.740000e-01 -1.538436e-04
2.750000e-01 -1.578496e-04
2.760000e-01 -1.603558e-04
2.770000e-01 -1.615216e-04
2.780000e-01 -1.615011e-04
2.790000e-01 -1.604427e-04
2.800000e-01 -1.584891e-04
2.810000e-01 -1.557715e-04
2.820000e-01 -1.524105e-04
2.830000e-01 -1.485147e-04
2.840000e-01 -1.441839e-04
2.850000e-01 -1.395115e-04
2.860000e-01 -1.345844e-04
2.870000e-01 -1.294813e-04
2.880000e-01 -1.242697e-04
2.890000e-01 -1.190058e-04
2.900000e-01 -1.137366e-04
2.910000e-01 -1.085033e-04
2.920000e-01 -1.033430e-04
2.930000e-01 -9.828887e-05
2.940000e-01 -9.336918e-05
2.950000e-01 -8.860571e-05
2.960000e-01 -8.401365e-05
2.970000e-01 -7.960278e-05
2.980000e-01 -7.537991e-05
2.990000e-01 -7.135026e-05
3.000000e-01 -6.751776e-05
3.010000e-01 -6.388393e-05
3.020000e-01 -6.044706e-05
3.030000e-01 -5.720217e-05
3.040000e-01 -5.414231e-05
3.050000e-01 -5.126002e-05
3.060000e-01 -4.854820e-05
3.070000e-01 -4.599977e-05
3.080000e-01 -4.360781e-05
3.090000e-01 -4.136506e-05
3.100000e-01 -3.926384e-05
3.110000e-01 -3.729538e-05
3.120000e-01 -3.544955e-05
3.130000e-01 -3.371605e-05
3.140000e-01 -3.208575e-05
3.150000e-01 -3.055148e-05
3.160000e-01 -2.910833e-05
3.170000e-01 -2.775239e-05
3.180000e-01 -2.647931e-05
3.190000e-01 -2.528376e-05
3.200000e-01 -2.415951e-05
3.210000e-01 -2.310068e-05
3.220000e-01 -2.210297e-05
3.230000e-01 -2.116394e-05
3.240000e-01 -2.028181e-05
3.250000e-01 -1.945354e-05
3.260000e-01 -1.867402e-05
3.270000e-01 -1.793769e-05
3.280000e-01 -1.724044e-05
3.290000e-01 -1.658101e-05
3.300000e-01 -1.595965e-05
3.310000e-01 -1.537623e-05
3.320000e-01 -1.482883e-05
3.330000e-01 -1.431388e-05
3.340000e-01 -1.382757e-05
3.350000e-01 -1.336714e-05
3.360000e-01 -1.293089e-05
3.370000e-01 -1.251721e-05
3.380000e-01 -1.212358e-05
3.390000e-01 -1.174617e-05
3.400000e-01 -1.138115e-05
3.410000e-01 -1.102634e-05
3.420000e-01 -1.068201e-05
3.430000e-01 -1.034983e-05
3.440000e-01 -1.003060e-05
3.450000e-01 -9.723018e-06
3.460000e-01 -9.424495e-06
3.470000e-01 -9.133414e-06
3.480000e-01 -8.850267e-06
3.490000e-01 -8.576746e-06
3.500000e-01 -8.313675e-06
3.510000e-01 -8.059597e-06
3.520000e-01 -7.811481e-06
3.530000e-01 -7.566678e-06
3.540000e-01 -7.324608e-06
3.550000e-01 -7.087105e-06
3.560000e-01 -6.857345e-06
3.570000e-01 -6.637944e-06
3.580000e-01 -6.429718e-06
3.590000e-01 -6.231935e-06
3.600000e-01 -6.043636e-06
3.610000e-01 -5.864659e-06
3.620000e-01 -5.695350e-06
3.630000e-01 -5.535020e-06
3.640000e-01 -5.381334e-06
3.650000e-01 -5.231346e-06
3.660000e-01 -5.083510e-06
3.670000e-01 -4.938691e-06
3.680000e-01 -4.799026e-06
3.690000e-01 -4.666183e-06
3.700000e-01 -4.540317e-06
3.710000e-01 -4.420783e-06
3.720000e-01 -4.307366e-06
3.730000e-01 -4.200990e-06
3.740000e-01 -4.103093e-06
3.750000e-01 -4.014501e-06
3.760000e-01 -3.934341e-06
3.770000e-01 -3.860095e-06
3.780000e-01 -3.789026e-06
3.790000e-01 -3.720037e-06
3.800000e-01 -3.654437e-06
3.810000e-01 -3.594855e-06
3.820000e-01 -3.543081e-06
3.830000e-01 -3.498867e-06
3.840000e-01 -3.460785e-06
3.850000e-01 -3.427818e-06
3.860000e-01 -3.399914e-06
3.870000e-01 -3.376820e-06
3.880000e-01 -3.356860e-06
3.890000e-01 -3.337004e-06
3.900000e-01 -3.314378e-06
3.910000e-01 -3.287563e-06
3.920000e-01 -3.256492e-06
3.930000e-01 -3.221096e-06
3.940000e-01 -3.180076e-06
3.950000e-01 -3.130882e-06
3.960000e-01 -3.071257e-06
3.970000e-01 -3.001140e-06
3.980000e-01 -2.923417e-06
3.990000e-01 -2.842332e-06
4.000000e-01 -2.760252e-06
4.010000e-01 -2.675458e-06
4.020000e-01 -2.583257e-06
4.030000e-01 -2.480162e-06
4.040000e-01 -2.367514e-06
4.050000e-01 -2.251266e-06
4.060000e-01 -2.137808e-06
4.070000e-01 -2.029617e-06
4.080000e-01 -1.924487e-06
4.090000e-01 -1.818991e-06
4.100000e-01 -1.712909e-06
4.110000e-01 -1.611008e-06
4.120000e-01 -1.520614e-06
4.130000e-01 -1.446897e-06
4.140000e-01 -1.389512e-06
4.150000e-01 -1.343071e-06
4.160000e-01 -1.301432e-06
4.170000e-01 -1.262446e-06
4.180000e-01 -1.229254e-06
4.190000e-01 -1.206884e-06
4.200000e-01 -1.197208e-06
4.210000e-01 -1.196850e-06
4.220001e-01 -1.199968e-06
4.230000e-01 -1.203164e-06
4.240000e-01 -1.207888e-06
4.250000e-01 -1.218301e-06
4.260000e-01 -1.236813e-06
4.270000e-01 -1.261441e-06
4.280000e-01 -1.286930e-06
4.290000e-01 -1.308454e-06
4.300000e-01 -1.324646e-06
4.310000e-01 -1.337816e-06
4.320000e-01 -1.351299e-06
4.330000e-01 -1.366309e-06
4.340000e-01 -1.380912e-06
4.350000e-01 -1.392121e-06
4.360000e-01 -1.399183e-06
4.370000e-01 -1.404822e-06
4.380000e-01 -1.412852e-06
4.390000e-01 -1.424398e-06
4.400000e-01 -1.436497e-06
4.410000e-01 -1.444552e-06
4.420000e-01 -1.446249e-06
4.430000e-01 -1.443049e-06
4.440000e-01 -1.438026e-06
4.450000e-01 -1.432402e-06
4.460000e-01 -1.424167e-06
4.470000e-01 -1.409953e-06
4.480000e-01 -1.388139e-06
4.490000e-01 -1.360467e-06
4.500000e-01 -1.330617e-06
4.510000e-01 -1.300784e-06
4.520000e-01 -1.269150e-06
4.530000e-01 -1.230568e-06
4.540000e-01 -1.180446e-06
4.550000e-01 -1.118771e-06
4.560000e-01 -1.050521e-06
4.570000e-01 -9.817805e-07
4.580000e-01 -9.149395e-07
4.590001e-01 -8.475997e-07
4.600000e-01 -7.762586e-07
4.610000e-01 -7.011385e-07
4.620000e-01 -6.273889e-07
4.630000e-01 -5.614406e-07
4.640000e-01 -5.059888e-07
4.650000e-01 -4.582061e-07
4.660000e-01 -4.126806e-07
4.670000e-01 -3.665272e-07
4.680000e-01 -3.223985e-07
4.690000e-01 -2.868558e-07
4.700000e-01 -2.653364e-07
4.710000e-01 -2.578279e-07
4.720000e-01 -2.590371e-07
4.730000e-01 -2.632314e-07
4.740000e-01 -2.696316e-07
4.750000e-01 -2.831577e-07
4.760000e-01 -3.093998e-07
4.770000e-01 -3.482526e-07
4.780000e-01 -3.923015e-07
4.790000e-01 -4.318091e-07
4.800000e-01 -4.618716e-07
4.810000e-01 -4.854656e-07
4.820001e-01 -5.097893e-07
4.830000e-01 -5.394506e-07
4.840000e-01 -5.723849e-07
4.850000e-01 -6.017895e-07
4.860000e-01 -6.221520e-07
4.870000e-01 -6.342272e-07
4.880000e-01 -6.446148e-07
4.890000e-01 -6.600465e-07
4.900000e-01 -6.811277e-07
4.910000e-01 -7.010727e-07
4.920000e-01 -7.111192e-07
4.930000e-01 -7.081771e-07
4.940000e-01 -6.978454e-07
4.950000e-01 -6.899739e-07
4.960001e-01 -6.906837e-07
4.970000e-01 -6.980390e-07
4.980000e-01 -7.050029e-07
4.990000e-01 -7.065665e-07
5.000000e-01 -7.043122e-07
5.010000e-01 -7.045702e-07
5.020000e-01 -7.121223e-07
5.030000e-01 -7.251510e-07
5.040000e-01 -7.357531e-07
5.050000e-01 -7.357597e-07
5.060000e-01 -7.230294e-07
5.070000e-01 -7.029260e-07
5.080000e-01 -6.835631e-07
5.090000e-01 -6.686215e-07
5.100001e-01 -6.541370e-07
5.110000e-01 -6.322094e-07
5.120000e-01 -5.983677e-07
5.130000e-01 -5.557281e-07
5.140000e-01 -5.121036e-07
5.150000e-01 -4.728939e-07
5.160000e-01 -4.364397e-07
5.170000e-01 -3.959436e-07
5.180000e-01 -3.458739e-07
5.190001e-01 -2.870639e-07
5.200000e-01 -2.262173e-07
5.210000e-01 -1.706758e-07
5.220000e-01 -1.230710e-07
5.230000e-01 -8.033788e-08
5.240000e-01 -3.772791e-08
5.250000e-01 5.724608e-09
5.260000e-01 4.526650e-08
5.270000e-01 7.397146e-08
5.280000e-01 8.874628e-08
5.290000e-01 9.312625e-08
5.300000e-01 9.406721e-08
5.310000e-01 9.559371e-08
5.320000e-01 9.538562e-08
5.330001e-01 8.749582e-08
5.340000e-01 6.847938e-08
5.350000e-01 4.096363e-08
5.360000e-01 1.138440e-08
5.370000e-01 -1.577042e-08
5.380000e-01 -4.179080e-08
5.390000e-01 -7.223247e-08
5.400000e-01 -1.114115e-07
5.410000e-01 -1.577766e-07
5.420001e-01 -2.042744e-07
5.430000e-01 -2.436935e-07
5.440000e-01 -2.745502e-07
5.450000e-01 -3.022624e-07
5.460000e-01 -3.341528e-07
5.470001e-01 -3.725159e-07
5.480000e-01 -4.121745e-07
5.490000e-01 -4.451206e-07
5.500000e-01 -4.680938e-07
5.510000e-01 -4.859895e-07
5.520000e-01 -5.076913e-07
5.530000e-01 -5.379905e-07
5.540000e-01 -5.729502e-07
5.550000e-01 -6.028172e-07
5.560001e-01 -6.198950e-07
5.570000e-01 -6.246971e-07
5.580000e-01 -6.252019e-07
5.590000e-01 -6.299432e-07
5.600000e-01 -6.406960e-07
5.610000e-01 -6.508805e-07
5.620000e-01 -6.511348e-07
5.630000e-01 -6.372588e-07
5.640000e-01 -6.135660e-07
5.650001e-01 -5.884696e-07
5.660000e-01 -5.662537e-07
5.670000e-01 -5.426219e-07
5.680000e-01 -5.082805e-07
5.690000e-01 -4.573208e-07
5.700001e-01 -3.927278e-07
5.710000e-01 -3.241721e-07
5.720000e-01 -2.602249e-07
5.730000e-01 -2.020050e-07
5.740000e-01 -1.435371e-07
5.750000e-01 -7.812839e-08
5.760000e-01 -5.040896e-09
5.770000e-01 6.925880e-08
5.780000e-01 1.362656e-07
5.790001e-01 1.924447e-07
5.800000e-01 2.418235e-07
5.810000e-01 2.916207e-07
5.820000e-01 3.446355e-07
5.830000e-01 3.953339e-07
5.840001e-01 4.334315e-07
5.850000e-01 4.518876e-07
5.860000e-01 4.520755e-07
5.870000e-01 4.415350e-07
5.880000e-01 4.266574e-07
5.890000e-01 4.071427e-07
5.900000e-01 3.771056e-07
5.910000e-01 3.314936e-07
5.920000e-01 2.718359e-07
5.930001e-01 2.061944e-07
5.940000e-01 1.433386e-07
5.950000e-01 8.607957e-08
5.960000e-01 2.947871e-08
5.970000e-01 -3.442923e-08
5.980000e-01 -1.092724e-07
5.990000e-01 -1.906997e-07
6.000000e-01 -2.696404e-07
6.010000e-01 -3.394750e-07
6.020001e-01 -4.005294e-07
6.030000e-01 -4.578997e-07
6.040000e-01 -5.149549e-07
6.050000e-01 -5.688997e-07
6.060000e-01 -6.126090e-07
6.070001e-01 -6.407779e-07
6.080000e-01 -6.546292e-07
6.090000e-01 -6.609173e-07
6.100000e-01 -6.662858e-07
6.110000e-01 -6.720066e-07
6.120000e-01 -6.735906e-07
6.130000e-01 -6.654105e-07
6.140000e-01 -6.461889e-07
6.150000e-01 -6.203758e-07
6.160001e-01 -5.940074e-07
6.170000e-01 -5.687580e-07
6.180000e-01 -5.398529e-07
6.190000e-01 -5.002132e-07
6.200000e-01 -4.472249e-07
6.210001e-01 -3.857965e-07
6.220000e-01 -3.246435e-07
6.230000e-01 -2.691825e-07
6.240000e-01 -2.175653e-07
6.250001e-01 -1.633875e-07
6.260000e-01 -1.023699e-07
6.270000e-01 -3.681300e-08
6.280000e-01 2.611336e-08
6.290000e-01 8.065186e-08
6.300001e-01 1.277222e-07
6.310000e-01 1.744217e-07
6.320000e-01 2.278656e-07
6.330000e-01 2.884478e-07
6.340000e-01 3.484662e-07
6.350001e-01 3.976738e-07
6.360000e-01 4.311377e-07
6.370000e-01 4.524131e-07
6.380000e-01 4.691175e-07
6.390001e-01 4.850099e-07
6.400000e-01 4.960028e-07
6.410000e-01 4.937939e-07
6.420000e-01 4.736254e-07
6.430000e-01 4.389719e-07
6.440001e-01 3.989234e-07
6.450000e-01 3.606918e-07
6.460000e-01 3.237797e-07
6.470000e-01 2.807498e-07
6.480000e-01 2.239029e-07
6.490000e-01 1.522554e-07
6.500000e-01 7.292836e-08
6.510000e-01 -4.309914e-09
6.520000e-01 -7.467462e-08
6.530001e-01 -1.413817e-07
6.540000e-01 -2.112602e-07
6.550000e-01 -2.869612e-07
6.560000e-01 -3.631004e-07
6.570000e-01 -4.299791e-07
6.580001e-01 -4.813696e-07
6.590000e-01 -5.190329e-07
6.600000e-01 -5.499832e-07
6.610000e-01 -5.793536e-07
6.620001e-01 -6.055120e-07
6.630000e-01 -6.216679e-07
6.640000e-01 -6.222432e-07
6.650000e-01 -6.082555e-07
6.660000e-01 -5.869354e-07
6.670001e-01 -5.657840e-07
6.680000e-01 -5.461249e-07
6.690000e-01 -5.219495e-07
6.700000e-01 -4.855117e-07
6.710000e-01 -4.350391e-07
6.720001e-01 -3.774867e-07
6.730000e-01 -3.234305e-07
6.740000e-01 -2.785057e-07
6.750000e-01 -2.392389e-07
6.760001e-01 -1.970772e-07
6.770000e-01 -1.468195e-07
6.780000e-01 -9.165120e-08
6.790000e-01 -4.047230e-08
6.800000e-01 -2.360636e-10
6.810001e-01 2.981202e-08
6.820000e-01 5.721038e-08
6.830000e-01 8.970634e-08
6.840000e-01 1.286600e-07
6.850001e-01 1.679543e-07
6.860000e-01 1.993496e-07
6.870000e-01 2.197294e-07
6.880000e-01 2.337845e-07
6.890000e-01 2.495229e-07
6.900001e-01 2.706329e-07
6.910000e-01 2.929403e-07
6.920000e-01 3.084800e-07
6.930000e-01 3.132758e-07
6.940000e-01 3.112249e-07
6.950001e-01 3.103056e-07
6.960000e-01 3.147899e-07
6.970000e-01 3.208252e-07
6.980000e-01 3.193854e-07
6.990001e-01 3.038368e-07
7.000000e-01 2.755083e-07
7.010000e-01 2.425852e-07
7.020000e-01 2.132685e-07
7.030000e-01 1.888489e-07
7.040001e-01 1.625951e-07
7.050000e-01 1.257337e-07
7.060000e-01 7.564057e-08
7.070000e-01 1.891981e-08
7.080001e-01 -3.381660e-08
7.090001e-01 -7.699884e-08
7.100000e-01 -1.145982e-07
7.110000e-01 -1.557575e-07
7.120000e-01 -2.056492e-07
7.130001e-01 -2.601356e-07
7.140000e-01 -3.089964e-07
7.150000e-01 -3.444542e-07
7.160000e-01 -3.672212e-07
7.170000e-01 -3.850161e-07
7.180001e-01 -4.052345e-07
7.190000e-01 -4.281616e-07
7.200000e-01 -4.463818e-07
7.210000e-01 -4.509591e-07
7.220001e-01 -4.393453e-07
7.230000e-01 -4.181854e-07
7.240000e-01 -3.981345e-07
7.250000e-01 -3.848215e-07
7.260000e-01 -3.740839e-07
7.270001e-01 -3.561308e-07
7.280000e-01 -3.249868e-07
7.290000e-01 -2.844118e-07
7.300000e-01 -2.447941e-07
7.310000e-01 -2.141161e-07
7.320001e-01 -1.914074e-07
7.330000e-01 -1.683389e-07
7.340000e-01 -1.369921e-07
7.350000e-01 -9.684490e-08
7.360001e-01 -5.528138e-08
7.370000e-01 -2.159148e-08
7.380000e-01 4.892442e-10
7.390000e-01 1.566694e-08
7.400000e-01 3.294905e-08
7.410001e-01 5.782558e-08
7.420000e-01 8.756044e-08
7.430000e-01 1.140546e-07
7.440000e-01 1.318283e-07
7.450001e-01 1.435525e-07
7.460001e-01 1.576712e-07
7.470000e-01 1.803734e-07
7.480000e-01 2.097236e-07
7.490000e-01 2.374512e-07
7.500001e-01 2.563486e-07
7.510000e-01 2.662076e-07
7.520000e-01 2.732165e-07
7.530000e-01 2.839342e-07
7.540000e-01 2.993141e-07
7.550001e-01 3.136331e-07
7.560000e-01 3.190148e-07
7.570000e-01 3.118656e-07
7.580000e-01 2.959142e-07
7.590001e-01 2.789566e-07
7.600001e-01 2.657167e-07
7.610000e-01 2.531634e-07
7.620000e-01 2.329799e-07
7.630000e-01 1.992363e-07
7.640001e-01 1.540012e-07
7.650000e-01 1.054079e-07
7.660000e-01 6.016282e-08
7.670000e-01 1.787633e-08
7.680001e-01 -2.753694e-08
7.690001e-01 -8.120114e-08
7.700000e-01 -1.417820e-07
7.710000e-01 -2.018648e-07
7.720000e-01 -2.534410e-07
7.730001e-01 -2.938033e-07
7.740000e-01 -3.271828e-07
7.750000e-01 -3.607927e-07
7.760000e-01 -3.982316e-07
7.770000e-01 -4.356021e-07
7.780001e-01 -4.640910e-07
7.790000e-01 -4.773018e-07
7.800000e-01 -4.768540e-07
7.810000e-01 -4.707650e-07
7.820001e-01 -4.658899e-07
7.830001e-01 -4.616798e-07
7.840000e-01 -4.511763e-07
7.850000e-01 -4.280074e-07
7.860000e-01 -3.924625e-07
7.870001e-01 -3.512644e-07
7.880000e-01 -3.119029e-07
7.890000e-01 -2.769158e-07
7.900000e-01 -2.426929e-07
7.910001e-01 -2.032200e-07
7.920001e-01 -1.555487e-07
7.930000e-01 -1.027507e-07
7.940000e-01 -5.188194e-08
7.950000e-01 -8.288120e-09
7.960001e-01 2.898580e-08
7.970001e-01 6.617977e-08
7.980000e-01 1.086312e-07
7.990000e-01 1.551864e-07
8.000000e-01 1.988767e-07
8.010001e-01 2.333572e-07
8.020000e-01 2.587143e-07
8.030000e-01 2.809917e-07
8.040000e-01 3.062391e-07
8.050001e-01 3.350080e-07
8.060001e-01 3.621039e-07
8.070000e-01 3.811590e-07
8.080000e-01 3.897635e-07
8.090000e-01 3.911724e-07
8.100001e-01 3.915260e-07
8.110000e-01 3.946406e-07
8.120000e-01 3.982564e-07
8.130000e-01 3.950912e-07
8.140000e-01 3.785401e-07
8.150001e-01 3.484556e-07
8.160000e-01 3.115598e-07
8.170000e-01 2.756893e-07
8.180000e-01 2.431507e-07
8.190001e-01 2.094756e-07
8.200001e-01 1.684102e-07
8.210000e-01 1.179094e-07
8.220000e-01 6.158770e-08
8.230000e-01 5.106026e-09
8.240001e-01 -4.849052e-08
8.250000e-01 -1.005368e-07
8.260000e-01 -1.548648e-07
8.270000e-01 -2.141540e-07
8.280001e-01 -2.770696e-07
8.290001e-01 -3.381676e-07
8.300000e-01 -3.910036e-07
8.310000e-01 -4.323789e-07
8.320000e-01 -4.640902e-07
8.330001e-01 -4.902721e-07
8.340001e-01 -5.127614e-07
8.350000e-01 -5.291972e-07
8.360000e-01 -5.357551e-07
8.370000e-01 -5.313723e-07
8.380001e-01 -5.188502e-07
8.390000e-01 -5.019738e-07
8.400000e-01 -4.820211e-07
8.410000e-01 -4.570829e-07
8.420001e-01 -4.241661e-07
8.430001e-01 -3.816251e-07
8.440000e-01 -3.301890e-07
8.450000e-01 -2.725457e-07
8.460000e-01 -2.120406e-07
8.470001e-01 -1.510275e-07
8.480000e-01 -8.991503e-08
8.490000e-01 -2.808428e-08
8.500000e-01 3.381865e-08
8.510001e-01 9.272136e-08
8.520001e-01 1.449018e-07
8.530000e-01 1.891611e-07
8.540000e-01 2.278439e-07
8.550000e-01 2.643805e-07
8.560001e-01 2.999793e-07
8.570001e-01 3.328953e-07
8.580000e-01 3.605019e-07
8.590000e-01 3.814673e-07
8.600000e-01 3.960082e-07
8.610001e-01 4.048749e-07
8.620000e-01 4.086327e-07
8.630000e-01 4.075098e-07
8.640000e-01 4.012138e-07
8.650001e-01 3.889078e-07
8.660001e-01 3.700578e-07
8.670000e-01 3.456552e-07
8.680000e-01 3.181834e-07
8.690000e-01 2.898740e-07
8.700001e-01 2.610981e-07
8.710001e-01 2.308077e-07
8.720000e-01 1.983668e-07
8.730000e-01 1.643513e-07
8.740000e-01 1.294593e-07
8.750001e-01 9.331329e-08
8.760000e-01 5.493578e-08
8.770000e-01 1.415265e-08
8.780000e-01 -2.809895e-08
8.790001e-01 -7.083430e-08
