-1.200000e-01 0.000000e+00
-1.190000e-01 0.000000e+00
-1.180000e-01 0.000000e+00
-1.170000e-01 0.000000e+00
-1.160000e-01 0.000000e+00
-1.150000e-01 0.000000e+00
-1.140000e-01 0.000000e+00
-1.130000e-01 0.000000e+00
-1.120000e-01 0.000000e+00
-1.110000e-01 0.000000e+00
-1.100000e-01 0.000000e+00
-1.090000e-01 0.000000e+00
-1.080000e-01 0.000000e+00
-1.070000e-01 0.000000e+00
-1.060000e-01 0.000000e+00
-1.050000e-01 0.000000e+00
-1.040000e-01 0.000000e+00
-1.030000e-01 0.000000e+00
-1.020000e-01 0.000000e+00
-1.010000e-01 8.870219e-43
-1.000000e-01 1.216888e-41
-9.900001e-02 1.877179e-41
-9.800000e-02 -7.991801e-40
-9.700000e-02 -8.408896e-39
-9.600000e-02 -3.965064e-38
-9.500001e-02 -6.505304e-38
-9.400000e-02 3.576216e-37
-9.300000e-02 2.903571e-36
-9.200001e-02 9.475789e-36
-9.100001e-02 9.739101e-36
-9.000000e-02 -5.505968e-35
-8.900000e-02 -3.129542e-34
-8.800000e-02 -7.518603e-34
-8.700000e-02 -3.961895e-34
-8.600000e-02 3.881528e-33
-8.500001e-02 1.590377e-32
-8.400001e-02 2.909947e-32
-8.300000e-02 2.714565e-33
-8.200000e-02 -1.479523e-31
-8.100000e-02 -4.634764e-31
-8.000000e-02 -6.617830e-31
-7.900000e-02 2.023224e-31
-7.800000e-02 3.447688e-30
-7.700001e-02 8.694298e-30
-7.600001e-02 9.890342e-30
-7.500000e-02 -6.688852e-30
-7.400000e-02 -5.329187e-29
-7.300000e-02 -1.128155e-28
-7.200000e-02 -1.049489e-28
-7.100000e-02 1.030062e-28
-7.000001e-02 5.716952e-28
-6.900001e-02 1.053852e-27
-6.800000e-02 8.412077e-28
-6.700000e-02 -9.272465e-28
-6.600000e-02 -4.260609e-27
-6.500000e-02 -7.106221e-27
-6.400000e-02 -5.391642e-27
-6.300000e-02 4.237153e-27
-6.200000e-02 1.977793e-26
-6.100000e-02 3.178929e-26
-6.000000e-02 2.908503e-26
-5.900000e-02 1.023223e-26
-5.800000e-02 -1.407073e-26
-5.700000e-02 -4.515727e-26
-5.600000e-02 -1.350142e-25
-5.500000e-02 -3.704152e-25
-5.400001e-02 -7.132367e-25
-5.300000e-02 -7.261412e-25
-5.200000e-02 5.071863e-25
-5.100000e-02 3.735618e-24
-5.000000e-02 7.936925e-24
-4.900000e-02 8.682852e-24
-4.800000e-02 -1.087493e-24
-4.700000e-02 -2.530878e-23
-4.600000e-02 -5.480140e-23
-4.500000e-02 -6.058745e-23
-4.400000e-02 -3.523649e-24
-4.300000e-02 1.313090e-22
-4.200000e-02 2.876252e-22
-4.100000e-02 3.196489e-22
-4.000000e-02 5.526193e-23
-3.900000e-02 -5.450361e-22
-3.800000e-02 -1.212600e-21
-3.700000e-02 -1.352932e-21
-3.600000e-02 -3.507784e-22
-3.500000e-02 1.835069e-21
-3.400000e-02 4.154385e-21
-3.300000e-02 4.614497e-21
-3.200000e-02 1.464190e-21
-3.100000e-02 -4.995957e-21
-3.000000e-02 -1.132138e-20
-2.900000e-02 -1.211796e-20
-2.800000e-02 -3.848853e-21
-2.700000e-02 1.086197e-20
-2.600000e-02 2.243719e-20
-2.500000e-02 2.001754e-20
-2.400000e-02 1.643095e-21
-2.300000e-02 -1.912694e-20
-2.200000e-02 -1.973147e-20
-2.100000e-02 1.017666e-20
-2.000000e-02 4.673777e-20
-1.900000e-02 3.426139e-20
-1.800000e-02 -7.146148e-20
-1.700000e-02 -2.359129e-19
-1.600000e-02 -3.120439e-19
-1.500000e-02 -1.057362e-19
-1.400000e-02 4.497264e-19
-1.300000e-02 1.108928e-18
-1.200000e-02 1.303747e-18
-1.100000e-02 4.502184e-19
-9.999998e-03 -1.498065e-18
-8.999996e-03 -3.612037e-18
-8.000001e-03 -4.160063e-18
-6.999999e-03 -1.632075e-18
-5.999997e-03 3.786926e-18
-5.000003e-03 9.354418e-18
-4.000001e-03 1.064833e-17
-2.999999e-03 4.390838e-18
-1.999997e-03 -8.200841e-18
-1.000002e-03 -2.018029e-17
0.000000e+00 -2.189980e-17
1.000002e-03 -7.778471e-18
2.000004e-03 1.725088e-17
2.999999e-03 3.734703e-17
4.000001e-03 3.453577e-17
4.999995e-03 3.149889e-18
5.999997e-03 -4.018919e-17
6.999999e-03 -6.185304e-17
8.000001e-03 -3.391378e-17
9.000003e-03 3.812844e-17
1.000001e-02 1.051983e-16
1.100001e-02 9.935418e-17
1.199999e-02 -1.260523e-17
1.300000e-02 -1.812444e-16
1.400000e-02 -2.779822e-16
1.500000e-02 -1.713365e-16
1.600000e-02 1.569799e-16
1.700000e-02 5.391092e-16
1.800001e-02 6.746746e-16
1.900001e-02 3.230298e-16
2.000000e-02 -4.667254e-16
2.100000e-02 -1.264596e-15
2.200000e-02 -1.442923e-15
2.300000e-02 -5.980783e-16
2.400000e-02 1.036271e-15
2.500001e-02 2.522166e-15
2.600001e-02 2.683848e-15
2.700000e-02 9.349469e-16
2.800000e-02 -2.059366e-15
2.900000e-02 -4.467466e-15
3.000000e-02 -4.314443e-15
3.100000e-02 -9.547568e-16
3.200001e-02 4.013953e-15
3.300001e-02 7.293519e-15
3.400001e-02 5.921219e-15
3.500000e-02 -3.313864e-16
3.600000e-02 -7.968620e-15
3.700000e-02 -1.140036e-14
3.800000e-02 -6.707720e-15
3.900000e-02 4.771074e-15
4.000001e-02 1.591213e-14
4.100001e-02 1.767398e-14
4.200000e-02 5.647516e-15
4.300000e-02 -1.504405e-14
4.400000e-02 -3.082298e-14
4.500000e-02 -2.765455e-14
4.600000e-02 -1.804224e-15
4.700001e-02 3.414763e-14
4.800001e-02 5.603255e-14
4.900001e-02 4.302411e-14
5.000000e-02 -5.699376e-15
5.100000e-02 -6.466903e-14
5.200000e-02 -9.375830e-14
5.300000e-02 -6.381562e-14
5.400001e-02 1.909930e-14
5.500001e-02 1.091462e-13
5.600001e-02 1.440621e-13
5.700000e-02 8.613616e-14
5.800000e-02 -4.489506e-14
5.900000e-02 -1.728155e-13
6.000000e-02 -2.067609e-13
6.100000e-02 -1.028075e-13
6.200001e-02 9.470660e-14
6.300001e-02 2.661080e-13
6.400001e-02 2.856460e-13
6.500000e-02 1.091640e-13
6.600000e-02 -1.785775e-13
6.700000e-02 -3.985110e-13
6.800000e-02 -3.850888e-13
6.900001e-02 -1.048546e-13
7.000001e-02 2.960766e-13
7.100001e-02 5.621944e-13
7.200000e-02 4.881491e-13
7.300000e-02 7.108771e-14
7.400000e-02 -4.529469e-13
7.500000e-02 -7.345645e-13
7.600001e-02 -5.382645e-13
7.700001e-02 7.125767e-14
7.800001e-02 7.225128e-13
7.900001e-02 9.468832e-13
8.000000e-02 4.953903e-13
8.100000e-02 -4.411496e-13
8.200000e-02 -1.280888e-12
8.300000e-02 -1.384059e-12
8.400001e-02 -4.911760e-13
8.500001e-02 1.017325e-12
8.600001e-02 2.250890e-12
8.700001e-02 2.309985e-12
8.800000e-02 8.858532e-13
8.900000e-02 -1.425488e-12
9.000000e-02 -3.350608e-12
9.100001e-02 -3.643670e-12
9.200001e-02 -1.880671e-12
9.300001e-02 1.160257e-12
9.400001e-02 3.834622e-12
9.500000e-02 4.558633e-12
9.600000e-02 2.801640e-12
9.700000e-02 -4.890737e-13
9.800000e-02 -3.368936e-12
9.900001e-02 -4.066593e-12
1.000000e-01 -2.150462e-12
1.010000e-01 1.079772e-12
1.020000e-01 3.323288e-12
1.030000e-01 2.769483e-12
1.040000e-01 -5.645419e-13
1.050000e-01 -4.579190e-12
1.060000e-01 -6.243088e-12
1.070000e-01 -3.569603e-12
1.080000e-01 2.797426e-12
1.090000e-01 9.517392e-12
1.100000e-01 1.228367e-11
1.110000e-01 8.476721e-12
1.120000e-01 -8.672542e-13
1.130000e-01 -1.115315e-11
1.140000e-01 -1.660965e-11
1.150000e-01 -1.372274e-11
1.160000e-01 -3.648537e-12
1.170000e-01 8.060757e-12
1.180000e-01 1.454833e-11
1.190000e-01 1.188791e-11
1.200000e-01 1.855732e-12
1.210000e-01 -8.720250e-12
1.220000e-01 -1.200082e-11
1.230000e-01 -4.327137e-12
1.240000e-01 1.069014e-11
1.250000e-01 2.347010e-11
1.260000e-01 2.387991e-11
1.270000e-01 7.821256e-12
1.280000e-01 -1.907097e-11
1.290000e-01 -4.332466e-11
1.300000e-01 -5.061870e-11
1.310000e-01 -3.413029e-11
1.320000e-01 7.087430e-13
1.330000e-01 3.824258e-11
1.340000e-01 6.071036e-11
1.350000e-01 5.797631e-11
1.360000e-01 3.311145e-11
1.370000e-01 2.856604e-13
1.380000e-01 -2.398062e-11
1.390000e-01 -3.092125e-11
1.400000e-01 -2.454893e-11
1.410000e-01 -1.807590e-11
1.420000e-01 -2.364366e-11
1.430000e-01 -4.192897e-11
1.440000e-01 -5.895670e-11
1.450000e-01 -5.343077e-11
1.460000e-01 -1.120460e-11
1.470000e-01 6.178733e-11
1.480000e-01 1.371248e-10
1.490000e-01 1.755414e-10
1.500000e-01 1.476882e-10
1.510000e-01 5.270476e-11
1.520000e-01 -7.684108e-11
1.530000e-01 -1.881690e-10
1.540000e-01 -2.338130e-10
1.550000e-01 -1.958317e-10
1.560000e-01 -9.486789e-11
1.570000e-01 2.167745e-11
1.580000e-01 1.060154e-10
1.590000e-01 1.356177e-10
1.600000e-01 1.227829e-10
1.610000e-01 1.021306e-10
1.620000e-01 1.036447e-10
1.630000e-01 1.285032e-10
1.640000e-01 1.442254e-10
1.650000e-01 1.043333e-10
1.660000e-01 -1.790473e-11
1.670000e-01 -2.024283e-10
1.680000e-01 -3.809197e-10
1.690000e-01 -4.657599e-10
1.700000e-01 -3.958088e-10
1.710000e-01 -1.736529e-10
1.720000e-01 1.282990e-10
1.730000e-01 3.988415e-10
1.740000e-01 5.406962e-10
1.750000e-01 5.161121e-10
1.760000e-01 3.597367e-10
1.770000e-01 1.519033e-10
1.780000e-01 -3.093210e-11
1.790000e-01 -1.577749e-10
1.800000e-01 -2.505197e-10
1.810000e-01 -3.524967e-10
1.820000e-01 -4.790850e-10
1.830000e-01 -5.850896e-10
1.840000e-01 -5.756433e-10
1.850000e-01 -3.610320e-10
1.860000e-01 7.379516e-11
1.870000e-01 6.285718e-10
1.880000e-01 1.107882e-09
1.890000e-01 1.301126e-09
1.900000e-01 1.085231e-09
1.910000e-01 4.953774e-10
1.920000e-01 -2.777475e-10
1.930000e-01 -9.675566e-10
1.940000e-01 -1.348840e-09
1.950000e-01 -1.331718e-09
1.960000e-01 -9.837967e-10
1.970000e-01 -4.724138e-10
1.980000e-01 3.536438e-11
1.990000e-01 4.540203e-10
2.000000e-01 7.944870e-10
2.010000e-01 1.108031e-09
2.020000e-01 1.401275e-09
2.030000e-01 1.584527e-09
2.040000e-01 1.498054e-09
2.050000e-01 1.010460e-09
2.060000e-01 1.327911e-10
2.070000e-01 -9.254748e-10
2.080000e-01 -1.806764e-09
2.090000e-01 -2.151377e-09
2.100000e-01 -1.766471e-09
2.110000e-01 -7.314203e-10
2.120000e-01 6.277698e-10
2.130000e-01 1.881908e-09
2.140000e-01 2.687845e-09
2.150000e-01 2.923855e-09
2.160000e-01 2.701583e-09
2.170000e-01 2.255668e-09
2.180000e-01 1.784656e-09
2.190000e-01 1.347736e-09
2.200000e-01 8.732641e-10
2.210000e-01 2.764651e-10
2.220000e-01 -3.957012e-10
2.230000e-01 -9.078605e-10
2.240000e-01 -9.119390e-10
2.250000e-01 -1.340794e-10
2.260000e-01 1.422933e-09
2.270000e-01 3.405944e-09
2.280000e-01 5.211774e-09
2.290000e-01 6.228447e-09
2.300000e-01 6.124822e-09
2.310000e-01 4.990227e-09
2.320000e-01 3.291973e-09
2.330000e-01 1.644423e-09
2.340000e-01 5.191509e-10
2.350000e-01 6.309619e-11
2.360000e-01 1.127773e-10
2.370000e-01 3.428795e-10
2.380000e-01 5.197762e-10
2.390000e-01 6.340315e-10
2.400000e-01 8.633378e-10
2.410000e-01 1.371973e-09
2.420000e-01 2.105708e-09
2.430000e-01 2.702564e-09
2.440000e-01 2.631396e-09
2.450000e-01 1.462695e-09
2.460000e-01 -8.469669e-10
2.470000e-01 -3.857394e-09
2.480000e-01 -6.829396e-09
2.490000e-01 -9.025825e-09
2.500000e-01 -1.010267e-08
2.510000e-01 -1.023182e-08
2.520000e-01 -9.963060e-09
2.530000e-01 -9.935775e-09
2.540000e-01 -1.060107e-08
2.550000e-01 -1.193439e-08
2.560000e-01 -1.349690e-08
2.570000e-01 -1.487342e-08
2.580000e-01 -1.578155e-08
2.590000e-01 -1.632725e-08
2.600000e-01 -1.688568e-08
2.610000e-01 -1.772150e-08
2.620000e-01 -1.896842e-08
2.630000e-01 -2.028628e-08
2.640000e-01 -2.104753e-08
2.650000e-01 -2.074285e-08
2.660000e-01 -1.914395e-08
2.670000e-01 -1.657008e-08
2.680000e-01 -1.380704e-08
2.690000e-01 -1.157423e-08
2.700000e-01 -1.016997e-08
2.710000e-01 -9.243195e-09
2.720000e-01 -8.025381e-09
2.730000e-01 -5.676156e-09
2.740000e-01 -1.935405e-09
2.750000e-01 2.873094e-09
2.760000e-01 7.955350e-09
2.770000e-01 1.264743e-08
2.780000e-01 1.652370e-08
2.790000e-01 1.973694e-08
2.800000e-01 2.277011e-08
2.810000e-01 2.594243e-08
2.820000e-01 2.944307e-08
2.830000e-01 3.301557e-08
2.840000e-01 3.606601e-08
2.850000e-01 3.828700e-08
2.860000e-01 3.956029e-08
2.870000e-01 4.019603e-08
2.880000e-01 4.073718e-08
2.890000e-01 4.162985e-08
2.900000e-01 4.305184e-08
2.910000e-01 4.454751e-08
2.920000e-01 4.525191e-08
2.930000e-01 4.431467e-08
2.940000e-01 4.137985e-08
2.950000e-01 3.667316e-08
2.960000e-01 3.093612e-08
2.970000e-01 2.514344e-08
2.980000e-01 1.980447e-08
2.990000e-01 1.494982e-08
3.000000e-01 1.015587e-08
3.010000e-01 4.782123e-09
3.020000e-01 -1.238732e-09
3.030000e-01 -7.426934e-09
3.040000e-01 -1.299122e-08
3.050000e-01 -1.736407e-08
3.060000e-01 -2.056822e-08
3.070000e-01 -2.314755e-08
3.080000e-01 -2.602974e-08
3.090000e-01 -2.976594e-08
3.100000e-01 -3.439891e-08
3.110000e-01 -3.905188e-08
3.120000e-01 -4.291905e-08
3.130000e-01 -4.544381e-08
3.140000e-01 -4.640242e-08
3.150000e-01 -4.603680e-08
3.160000e-01 -4.488902e-08
3.170000e-01 -4.332469e-08
3.180000e-01 -4.158937e-08
3.190000e-01 -3.958121e-08
3.200000e-01 -3.708010e-08
3.210000e-01 -3.368586e-08
3.220000e-01 -2.937304e-08
3.230000e-01 -2.438355e-08
3.240000e-01 -1.936860e-08
3.250000e-01 -1.489752e-08
3.260000e-01 -1.124681e-08
3.270000e-01 -8.236384e-09
3.280000e-01 -5.416950e-09
3.290000e-01 -2.462002e-09
3.300000e-01 7.657945e-10
3.310000e-01 4.002686e-09
3.320000e-01 6.756636e-09
3.330000e-01 8.792995e-09
3.340000e-01 1.022272e-08
3.350000e-01 1.149874e-08
3.360000e-01 1.314538e-08
3.370000e-01 1.537728e-08
3.380000e-01 1.787203e-08
3.390000e-01 2.000979e-08
3.400000e-01 2.121806e-08
3.410000e-01 2.121942e-08
3.420000e-01 2.017941e-08
3.430000e-01 1.847422e-08
3.440000e-01 1.658850e-08
3.450000e-01 1.482084e-08
3.460000e-01 1.321808e-08
3.470000e-01 1.169798e-08
3.480000e-01 1.020845e-08
3.490000e-01 8.830625e-09
3.500000e-01 7.617132e-09
3.510000e-01 6.628625e-09
3.520000e-01 5.887159e-09
3.530000e-01 5.321454e-09
3.540000e-01 4.867161e-09
3.550000e-01 4.439926e-09
3.560000e-01 4.000185e-09
3.570000e-01 3.475179e-09
3.580000e-01 2.912884e-09
3.590000e-01 2.371507e-09
3.600000e-01 1.901071e-09
3.610000e-01 1.534318e-09
3.620000e-01 1.248054e-09
3.630000e-01 1.050012e-09
3.640000e-01 9.592895e-10
3.650000e-01 1.023409e-09
3.660000e-01 1.228273e-09
3.670000e-01 1.519084e-09
3.680000e-01 1.748731e-09
3.690000e-01 1.755552e-09
3.700000e-01 1.447006e-09
3.710000e-01 8.731149e-10
3.720000e-01 3.130936e-10
3.730000e-01 9.299583e-11
3.740000e-01 4.354206e-10
3.750000e-01 1.242142e-09
3.760000e-01 2.139814e-09
3.770000e-01 2.672778e-09
3.780000e-01 2.480647e-09
3.790000e-01 1.489980e-09
3.800000e-01 -7.855760e-11
3.810000e-01 -1.908688e-09
3.820000e-01 -3.736886e-09
3.830000e-01 -5.516995e-09
3.840000e-01 -7.337121e-09
3.850000e-01 -9.252176e-09
3.860000e-01 -1.108685e-08
3.870000e-01 -1.244621e-08
3.880000e-01 -1.291130e-08
3.890000e-01 -1.231058e-08
3.900000e-01 -1.089268e-08
3.910000e-01 -9.192718e-09
3.920000e-01 -7.801077e-09
3.930000e-01 -7.023004e-09
3.940000e-01 -6.699906e-09
3.950000e-01 -6.287337e-09
3.960000e-01 -5.119375e-09
3.970000e-01 -2.685454e-09
3.980000e-01 1.136470e-09
3.990000e-01 6.137441e-09
4.000000e-01 1.204694e-08
4.010000e-01 1.881153e-08
4.020000e-01 2.674932e-08
4.030000e-01 3.648802e-08
4.040000e-01 4.877842e-08
4.050000e-01 6.426649e-08
4.060000e-01 8.337491e-08
4.070000e-01 1.063415e-07
4.080000e-01 1.334355e-07
4.090000e-01 1.652627e-07
4.100000e-01 2.029854e-07
4.110000e-01 2.483564e-07
4.120000e-01 3.035593e-07
4.130000e-01 3.709733e-07
4.140000e-01 4.529941e-07
4.150000e-01 5.520571e-07
4.160000e-01 6.708266e-07
4.170000e-01 8.125385e-07
4.180000e-01 9.813066e-07
4.190000e-01 1.182255e-06
4.200000e-01 1.421387e-06
4.210000e-01 1.705333e-06
4.220001e-01 2.041171e-06
4.230000e-01 2.436550e-06
4.240000e-01 2.900051e-06
4.250000e-01 3.441706e-06
4.260000e-01 4.073327e-06
4.270000e-01 4.808549e-06
4.280000e-01 5.662633e-06
4.290000e-01 6.652155e-06
4.300000e-01 7.794906e-06
4.310000e-01 9.110078e-06
4.320000e-01 1.061872e-05
4.330000e-01 1.234420e-05
4.340000e-01 1.431247e-05
4.350000e-01 1.655191e-05
4.360000e-01 1.909309e-05
4.370000e-01 2.196842e-05
4.380000e-01 2.521218e-05
4.390000e-01 2.886068e-05
4.400000e-01 3.295236e-05
4.410000e-01 3.752775e-05
4.420000e-01 4.262912e-05
4.430000e-01 4.829989e-05
4.440000e-01 5.458403e-05
4.450000e-01 6.152547e-05
4.460000e-01 6.916763e-05
4.470000e-01 7.755283e-05
4.480000e-01 8.672172e-05
4.490000e-01 9.671250e-05
4.500000e-01 1.075597e-04
4.510000e-01 1.192932e-04
4.520000e-01 1.319371e-04
4.530000e-01 1.455083e-04
4.540000e-01 1.600148e-04
4.550000e-01 1.754545e-04
4.560000e-01 1.918138e-04
4.570000e-01 2.090662e-04
4.580000e-01 2.271710e-04
4.590001e-01 2.460722e-04
4.600000e-01 2.656966e-04
4.610000e-01 2.859523e-04
4.620000e-01 3.067270e-04
4.630000e-01 3.278874e-04
4.640000e-01 3.492780e-04
4.650000e-01 3.707219e-04
4.660000e-01 3.920198e-04
4.670000e-01 4.129508e-04
4.680000e-01 4.332718e-04
4.690000e-01 4.527182e-04
4.700000e-01 4.710050e-04
4.710000e-01 4.878288e-04
4.720000e-01 5.028694e-04
4.730000e-01 5.157948e-04
4.740000e-01 5.262624e-04
4.750000e-01 5.339239e-04
4.760000e-01 5.384277e-04
4.770000e-01 5.394242e-04
4.780000e-01 5.365692e-04
4.790000e-01 5.295320e-04
4.800000e-01 5.180002e-04
4.810000e-01 5.016854e-04
4.820001e-01 4.803298e-04
4.830000e-01 4.537126e-04
4.840000e-01 4.216541e-04
4.850000e-01 3.840215e-04
4.860000e-01 3.407346e-04
4.870000e-01 2.917713e-04
4.880000e-01 2.371729e-04
4.890000e-01 1.770493e-04
4.900000e-01 1.115779e-04
4.910000e-01 4.101114e-05
4.920000e-01 -3.432611e-05
4.930000e-01 -1.140339e-04
4.940000e-01 -1.976409e-04
4.950000e-01 -2.846023e-04
4.960001e-01 -3.743034e-04
4.970000e-01 -4.660693e-04
4.980000e-01 -5.591670e-04
4.990000e-01 -6.528103e-04
5.000000e-01 -7.461697e-04
5.010000e-01 -8.383793e-04
5.020000e-01 -9.285498e-04
5.030000e-01 -1.015775e-03
5.040000e-01 -1.099148e-03
5.050000e-01 -1.177771e-03
5.060000e-01 -1.250769e-03
5.070000e-01 -1.317294e-03
5.080000e-01 -1.376546e-03
5.090000e-01 -1.427780e-03
5.100001e-01 -1.470323e-03
5.110000e-01 -1.503580e-03
5.120000e-01 -1.527046e-03
5.130000e-01 -1.540306e-03
5.140000e-01 -1.543052e-03
5.150000e-01 -1.535085e-03
5.160000e-01 -1.516321e-03
5.170000e-01 -1.486797e-03
5.180000e-01 -1.446670e-03
5.190001e-01 -1.396210e-03
5.200000e-01 -1.335803e-03
5.210000e-01 -1.265942e-03
5.220000e-01 -1.187225e-03
5.230000e-01 -1.100351e-03
5.240000e-01 -1.006106e-03
5.250000e-01 -9.053607e-04
5.260000e-01 -7.990431e-04
5.270000e-01 -6.881356e-04
5.280000e-01 -5.736635e-04
5.290000e-01 -4.566799e-04
5.300000e-01 -3.382552e-04
5.310000e-01 -2.194595e-04
5.320000e-01 -1.013490e-04
5.330001e-01 1.505038e-05
5.340000e-01 1.287571e-04
5.350000e-01 2.388368e-04
5.360000e-01 3.444149e-04
5.370000e-01 4.446878e-04
5.380000e-01 5.389324e-04
5.390000e-01 6.265145e-04
5.400000e-01 7.068949e-04
5.410000e-01 7.796318e-04
5.420001e-01 8.443819e-04
5.430000e-01 9.008910e-04
5.440000e-01 9.490075e-04
5.450000e-01 9.886778e-04
5.460000e-01 1.019944e-03
5.470001e-01 1.042937e-03
5.480000e-01 1.057868e-03
5.490000e-01 1.065019e-03
5.500000e-01 1.064739e-03
5.510000e-01 1.057436e-03
5.520000e-01 1.043573e-03
5.530000e-01 1.023658e-03
5.540000e-01 9.982331e-04
5.550000e-01 9.678600e-04
5.560001e-01 9.331119e-04
5.570000e-01 8.945694e-04
5.580000e-01 8.528133e-04
5.590000e-01 8.084188e-04
5.600000e-01 7.619485e-04
5.610000e-01 7.139425e-04
5.620000e-01 6.649152e-04
5.630000e-01 6.153474e-04
5.640000e-01 5.656868e-04
5.650001e-01 5.163476e-04
5.660000e-01 4.677058e-04
5.670000e-01 4.200991e-04
5.680000e-01 3.738233e-04
5.690000e-01 3.291334e-04
5.700001e-01 2.862452e-04
5.710000e-01 2.453375e-04
5.720000e-01 2.065534e-04
5.730000e-01 1.700023e-04
5.740000e-01 1.357616e-04
5.750000e-01 1.038789e-04
5.760000e-01 7.437418e-05
5.770000e-01 4.724303e-05
5.780000e-01 2.246005e-05
5.790001e-01 -1.844001e-08
5.800000e-01 -2.025142e-05
5.810000e-01 -3.831347e-05
5.820000e-01 -5.429145e-05
5.830000e-01 -6.828080e-05
5.840001e-01 -8.038330e-05
5.850000e-01 -9.070531e-05
5.860000e-01 -9.935764e-05
5.870000e-01 -1.064538e-04
5.880000e-01 -1.121100e-04
5.890000e-01 -1.164426e-04
5.900000e-01 -1.195662e-04
5.910000e-01 -1.215937e-04
5.920000e-01 -1.226336e-04
5.930001e-01 -1.227899e-04
5.940000e-01 -1.221621e-04
5.950000e-01 -1.208465e-04
5.960000e-01 -1.189366e-04
5.970000e-01 -1.165220e-04
5.980000e-01 -1.136875e-04
5.990000e-01 -1.105108e-04
6.000000e-01 -1.070614e-04
6.010000e-01 -1.034020e-04
6.020001e-01 -9.958924e-05
6.030000e-01 -9.567507e-05
6.040000e-01 -9.170816e-05
6.050000e-01 -8.773329e-05
6.060000e-01 -8.378836e-05
6.070001e-01 -7.990294e-05
6.080000e-01 -7.609876e-05
6.090000e-01 -7.239309e-05
6.100000e-01 -6.880108e-05
6.110000e-01 -6.533685e-05
6.120000e-01 -6.201108e-05
6.130000e-01 -5.882970e-05
6.140000e-01 -5.579313e-05
6.150000e-01 -5.289813e-05
6.160001e-01 -5.014050e-05
6.170000e-01 -4.751667e-05
6.180000e-01 -4.502400e-05
6.190000e-01 -4.265979e-05
6.200000e-01 -4.041920e-05
6.210001e-01 -3.829498e-05
6.220000e-01 -3.627902e-05
6.230000e-01 -3.436478e-05
6.240000e-01 -3.254874e-05
6.250001e-01 -3.082928e-05
6.260000e-01 -2.920404e-05
6.270000e-01 -2.766894e-05
6.280000e-01 -2.621949e-05
6.290000e-01 -2.485286e-05
6.300001e-01 -2.356876e-05
6.310000e-01 -2.236811e-05
6.320000e-01 -2.125070e-05
6.330000e-01 -2.021405e-05
6.340000e-01 -1.925372e-05
6.350001e-01 -1.836512e-05
6.360000e-01 -1.754511e-05
6.370000e-01 -1.679250e-05
6.380000e-01 -1.610617e-05
6.390001e-01 -1.548237e-05
6.400000e-01 -1.491363e-05
6.410000e-01 -1.439053e-05
6.420000e-01 -1.390515e-05
6.430000e-01 -1.345310e-05
6.440001e-01 -1.303264e-05
6.450000e-01 -1.264112e-05
6.460000e-01 -1.227285e-05
6.470000e-01 -1.191951e-05
6.480000e-01 -1.157304e-05
6.490000e-01 -1.122833e-05
6.500000e-01 -1.088382e-05
6.510000e-01 -1.053997e-05
6.520000e-01 -1.019708e-05
6.530001e-01 -9.853959e-06
6.540000e-01 -9.508681e-06
6.550000e-01 -9.160785e-06
6.560000e-01 -8.813070e-06
6.570000e-01 -8.471047e-06
6.580001e-01 -8.140293e-06
6.590000e-01 -7.823719e-06
6.600000e-01 -7.521157e-06
6.610000e-01 -7.231813e-06
6.620001e-01 -6.956897e-06
6.630000e-01 -6.700383e-06
6.640000e-01 -6.467165e-06
6.650000e-01 -6.260436e-06
6.660000e-01 -6.080248e-06
6.670001e-01 -5.924014e-06
6.680000e-01 -5.787968e-06
6.690000e-01 -5.668903e-06
6.700000e-01 -5.564905e-06
6.710000e-01 -5.474944e-06
6.720001e-01 -5.397450e-06
6.730000e-01 -5.329220e-06
6.740000e-01 -5.265766e-06
6.750000e-01 -5.202405e-06
6.760001e-01 -5.135303e-06
6.770000e-01 -5.061640e-06
6.780000e-01 -4.979039e-06
6.790000e-01 -4.885482e-06
6.800000e-01 -4.779627e-06
6.810001e-01 -4.661099e-06
6.820000e-01 -4.529992e-06
6.830000e-01 -4.386514e-06
6.840000e-01 -4.231185e-06
6.850001e-01 -4.065680e-06
6.860000e-01 -3.893329e-06
6.870000e-01 -3.718575e-06
6.880000e-01 -3.545807e-06
6.890000e-01 -3.378313e-06
6.900001e-01 -3.218086e-06
6.910000e-01 -3.066404e-06
6.920000e-01 -2.924747e-06
6.930000e-01 -2.795466e-06
6.940000e-01 -2.681640e-06
6.950001e-01 -2.585879e-06
6.960000e-01 -2.508918e-06
6.970000e-01 -2.449398e-06
6.980000e-01 -2.405246e-06
6.990001e-01 -2.375464e-06
7.000000e-01 -2.360646e-06
7.010000e-01 -2.361434e-06
7.020000e-01 -2.376563e-06
7.030000e-01 -2.402030e-06
7.040001e-01 -2.432342e-06
7.050000e-01 -2.462617e-06
7.060000e-01 -2.489845e-06
7.070000e-01 -2.512734e-06
7.080001e-01 -2.530457e-06
7.090001e-01 -2.541591e-06
7.100000e-01 -2.543965e-06
7.110000e-01 -2.535590e-06
7.120000e-01 -2.515968e-06
7.130001e-01 -2.486373e-06
7.140000e-01 -2.448711e-06
7.150000e-01 -2.403740e-06
7.160000e-01 -2.350547e-06
7.170000e-01 -2.287861e-06
7.180001e-01 -2.216206e-06
7.190000e-01 -2.138675e-06
7.200000e-01 -2.059556e-06
7.210000e-01 -1.981979e-06
7.220001e-01 -1.906727e-06
7.230000e-01 -1.832959e-06
7.240000e-01 -1.760150e-06
7.250000e-01 -1.689501e-06
7.260000e-01 -1.623617e-06
7.270001e-01 -1.564857e-06
7.280000e-01 -1.513670e-06
7.290000e-01 -1.468256e-06
7.300000e-01 -1.426089e-06
7.310000e-01 -1.386009e-06
7.320001e-01 -1.349072e-06
7.330000e-01 -1.317216e-06
7.340000e-01 -1.290795e-06
7.350000e-01 -1.267275e-06
7.360001e-01 -1.242482e-06
7.370000e-01 -1.213456e-06
7.380000e-01 -1.180462e-06
7.390000e-01 -1.146448e-06
7.400000e-01 -1.114556e-06
7.410001e-01 -1.085751e-06
7.420000e-01 -1.058374e-06
7.430000e-01 -1.029846e-06
7.440000e-01 -9.989467e-07
7.450001e-01 -9.670658e-07
7.460001e-01 -9.373761e-07
7.470000e-01 -9.127652e-07
7.480000e-01 -8.941074e-07
7.490000e-01 -8.803744e-07
7.500001e-01 -8.702991e-07
7.510000e-01 -8.640806e-07
7.520000e-01 -8.634733e-07
7.530000e-01 -8.702494e-07
7.540000e-01 -8.845656e-07
7.550001e-01 -9.046808e-07
7.560000e-01 -9.282215e-07
7.570000e-01 -9.537004e-07
7.580000e-01 -9.809413e-07
7.590001e-01 -1.010270e-06
7.600001e-01 -1.041311e-06
7.610000e-01 -1.072399e-06
7.620000e-01 -1.101031e-06
7.630000e-01 -1.124820e-06
7.640001e-01 -1.142205e-06
7.650000e-01 -1.152369e-06
7.660000e-01 -1.154658e-06
7.670000e-01 -1.148200e-06
7.680001e-01 -1.132258e-06
7.690001e-01 -1.107025e-06
7.700000e-01 -1.073903e-06
7.710000e-01 -1.034715e-06
7.720000e-01 -9.904464e-07
7.730001e-01 -9.406873e-07
7.740000e-01 -8.845131e-07
7.750000e-01 -8.221365e-07
7.760000e-01 -7.558159e-07
7.770000e-01 -6.891932e-07
7.780001e-01 -6.255264e-07
7.790000e-01 -5.662964e-07
7.800000e-01 -5.113512e-07
7.810000e-01 -4.603870e-07
7.820001e-01 -4.145372e-07
7.830001e-01 -3.765851e-07
7.840000e-01 -3.495175e-07
7.850000e-01 -3.345135e-07
7.860000e-01 -3.300761e-07
7.870001e-01 -3.331756e-07
7.880000e-01 -3.415109e-07
7.890000e-01 -3.550544e-07
7.900000e-01 -3.755097e-07
7.910001e-01 -4.041256e-07
7.920001e-01 -4.397469e-07
7.930000e-01 -4.787451e-07
7.940000e-01 -5.169270e-07
7.950000e-01 -5.518240e-07
7.960001e-01 -5.834908e-07
7.970001e-01 -6.132501e-07
7.980000e-01 -6.415486e-07
7.990000e-01 -6.667148e-07
8.000000e-01 -6.856545e-07
8.010001e-01 -6.957991e-07
8.020000e-01 -6.966479e-07
8.030000e-01 -6.896337e-07
8.040000e-01 -6.765837e-07
8.050001e-01 -6.581666e-07
8.060001e-01 -6.337204e-07
8.070000e-01 -6.025570e-07
8.080000e-01 -5.654895e-07
8.090000e-01 -5.251505e-07
8.100001e-01 -4.847432e-07
8.110000e-01 -4.462744e-07
8.120000e-01 -4.098114e-07
8.130000e-01 -3.744410e-07
8.140000e-01 -3.400168e-07
8.150001e-01 -3.081551e-07
8.160000e-01 -2.815602e-07
8.170000e-01 -2.622160e-07
8.180000e-01 -2.500848e-07
8.190001e-01 -2.434066e-07
8.200001e-01 -2.403407e-07
8.210000e-01 -2.404858e-07
8.220000e-01 -2.449638e-07
8.230000e-01 -2.550371e-07
8.240001e-01 -2.704606e-07
8.250000e-01 -2.890808e-07
8.260000e-01 -3.080213e-07
8.270000e-01 -3.255522e-07
8.280001e-01 -3.420150e-07
8.290001e-01 -3.589286e-07
8.300000e-01 -3.769665e-07
8.310000e-01 -3.945119e-07
8.320000e-01 -4.081981e-07
8.330001e-01 -4.151013e-07
8.340001e-01 -4.148541e-07
8.350000e-01 -4.099241e-07
8.360000e-01 -4.038118e-07
8.370000e-01 -3.986499e-07
8.380001e-01 -3.940121e-07
8.390000e-01 -3.877777e-07
8.400000e-01 -3.781959e-07
8.410000e-01 -3.655330e-07
8.420001e-01 -3.520965e-07
8.430001e-01 -3.407070e-07
8.440000e-01 -3.328664e-07
8.450000e-01 -3.280211e-07
8.460000e-01 -3.244743e-07
8.470001e-01 -3.211037e-07
8.480000e-01 -3.183632e-07
8.490000e-01 -3.177793e-07
8.500000e-01 -3.204270e-07
8.510001e-01 -3.257927e-07
8.520001e-01 -3.319465e-07
8.530000e-01 -3.367253e-07
8.540000e-01 -3.388602e-07
8.550000e-01 -3.382534e-07
8.560001e-01 -3.354084e-07
8.570001e-01 -3.306388e-07
8.580000e-01 -3.236387e-07
8.590000e-01 -3.136057e-07
8.600000e-01 -2.997409e-07
8.610001e-01 -2.816811e-07
8.620000e-01 -2.595312e-07
8.630000e-01 -2.335555e-07
8.640000e-01 -2.039810e-07
8.650001e-01 -1.712560e-07
8.660001e-01 -1.365680e-07
8.670000e-01 -1.019356e-07
8.680000e-01 -6.954227e-08
8.690000e-01 -4.076938e-08
8.700001e-01 -1.582541e-08
8.710001e-01 5.663185e-09
8.720000e-01 2.367040e-08
8.730000e-01 3.725077e-08
8.740000e-01 4.486497e-08
8.750001e-01 4.518838e-08
8.760000e-01 3.775144e-08
8.770000e-01 2.300877e-08
8.780000e-01 1.880380e-09
8.790001e-01 -2.491609e-08
