-1.200000e-01 0.000000e+00
-1.190000e-01 0.000000e+00
-1.180000e-01 0.000000e+00
-1.170000e-01 0.000000e+00
-1.160000e-01 0.000000e+00
-1.150000e-01 0.000000e+00
-1.140000e-01 0.000000e+00
-1.130000e-01 0.000000e+00
-1.120000e-01 0.000000e+00
-1.110000e-01 0.000000e+00
-1.100000e-01 0.000000e+00
-1.090000e-01 0.000000e+00
-1.080000e-01 0.000000e+00
-1.070000e-01 0.000000e+00
-1.060000e-01 0.000000e+00
-1.050000e-01 0.000000e+00
-1.040000e-01 0.000000e+00
-1.030000e-01 0.000000e+00
-1.020000e-01 0.000000e+00
-1.010000e-01 0.000000e+00
-1.000000e-01 0.000000e+00
-9.900001e-02 0.000000e+00
-9.800000e-02 0.000000e+00
-9.700000e-02 0.000000e+00
-9.600000e-02 0.000000e+00
-9.500001e-02 0.000000e+00
-9.400000e-02 -1.401298e-45
-9.300000e-02 -5.605194e-45
-9.200001e-02 1.681558e-44
-9.100001e-02 1.163078e-43
-9.000000e-02 9.388700e-44
-8.900000e-02 -1.184097e-42
-8.800000e-02 -4.662120e-42
-8.700000e-02 -1.353654e-42
-8.600000e-02 4.259947e-41
-8.500001e-02 1.391517e-40
-8.400001e-02 3.454761e-41
-8.300000e-02 -1.053387e-39
-8.200000e-02 -3.303536e-39
-8.100000e-02 -1.558143e-39
-8.000000e-02 1.905597e-38
-7.900000e-02 6.370722e-38
-7.800000e-02 5.229885e-38
-7.700001e-02 -2.531939e-37
-7.600001e-02 -9.972135e-37
-7.500000e-02 -1.214810e-36
-7.400000e-02 2.305828e-36
-7.300000e-02 1.255858e-35
-7.200000e-02 2.074665e-35
-7.100000e-02 -9.436439e-36
-7.000001e-02 -1.248944e-34
-6.900001e-02 -2.718527e-34
-6.800000e-02 -1.105359e-34
-6.700000e-02 9.359620e-34
-6.600000e-02 2.790899e-33
-6.500000e-02 2.881259e-33
-6.400000e-02 -4.500508e-33
-6.300000e-02 -2.244557e-32
-6.200000e-02 -3.604382e-32
-6.100000e-02 5.651911e-34
-6.000000e-02 1.367421e-31
-5.900000e-02 3.182325e-31
-5.800000e-02 2.479048e-31
-5.700000e-02 -5.501109e-31
-5.600000e-02 -2.120432e-30
-5.500000e-02 -2.968988e-30
-5.400001e-02 3.344773e-31
-5.300000e-02 1.046412e-29
-5.200000e-02 2.235093e-29
-5.100000e-02 1.669617e-29
-5.000000e-02 -3.245463e-29
-4.900000e-02 -1.223856e-28
-4.800000e-02 -1.702176e-28
-4.700000e-02 -8.356943e-30
-4.600000e-02 4.776646e-28
-4.500000e-02 1.052262e-27
-4.400000e-02 9.034247e-28
-4.300000e-02 -1.006459e-27
-4.200000e-02 -4.615356e-27
-4.100000e-02 -7.012108e-27
-4.000000e-02 -2.392712e-27
-3.900000e-02 1.348587e-26
-3.800000e-02 3.428185e-26
-3.700000e-02 3.635684e-26
-3.600000e-02 -1.198987e-26
-3.500000e-02 -1.156830e-25
-3.400000e-02 -2.067749e-25
-3.300000e-02 -1.380025e-25
-3.200000e-02 2.199016e-25
-3.100000e-02 7.734298e-25
-3.000000e-02 1.035608e-24
-2.900000e-02 2.679541e-25
-2.800000e-02 -1.856561e-24
-2.700000e-02 -4.300301e-24
-2.600000e-02 -4.316436e-24
-2.500000e-02 1.101957e-24
-2.400000e-02 1.171262e-23
-2.300000e-02 2.051066e-23
-2.200000e-02 1.461453e-23
-2.100000e-02 -1.560650e-23
-2.000000e-02 -6.126198e-23
-1.900000e-02 -8.537433e-23
-1.800000e-02 -3.653484e-23
-1.700000e-02 1.061524e-22
-1.600000e-02 2.774030e-22
-1.500000e-02 3.130449e-22
-1.400000e-02 3.729596e-23
-1.300000e-02 -5.518520e-22
-1.200000e-02 -1.113560e-21
-1.100000e-02 -1.014365e-21
-9.999998e-03 2.557650e-22
-8.999996e-03 2.423606e-21
-8.000001e-03 4.023398e-21
-6.999999e-03 2.893032e-21
-5.999997e-03 -2.172956e-21
-5.000003e-03 -9.369774e-21
-4.000001e-03 -1.322516e-20
-2.999999e-03 -7.146652e-21
-1.999997e-03 1.086319e-20
-1.000002e-03 3.260361e-20
0.000000e+00 3.986819e-20
1.000002e-03 1.462046e-20
2.000004e-03 -4.342795e-20
2.999999e-03 -1.035470e-19
4.000001e-03 -1.109117e-19
4.999995e-03 -2.128691e-20
5.999997e-03 1.502766e-19
6.999999e-03 3.030676e-19
8.000001e-03 2.861326e-19
9.000003e-03 3.057853e-21
1.000001e-02 -4.656779e-19
1.100001e-02 -8.232746e-19
1.199999e-02 -6.870447e-19
1.300000e-02 1.253679e-19
1.400000e-02 1.316376e-18
1.500000e-02 2.086778e-18
1.600000e-02 1.539060e-18
1.700000e-02 -6.070317e-19
1.800001e-02 -3.434252e-18
1.900001e-02 -4.955808e-18
2.000000e-02 -3.218757e-18
2.100000e-02 2.045499e-18
2.200000e-02 8.336782e-18
2.300000e-02 1.106183e-17
2.400000e-02 6.274036e-18
2.500001e-02 -5.795701e-18
2.600001e-02 -1.895144e-17
2.700000e-02 -2.326346e-17
2.800000e-02 -1.133453e-17
2.900000e-02 1.467064e-17
3.000000e-02 4.056448e-17
3.100000e-02 4.618728e-17
3.200001e-02 1.874020e-17
3.300001e-02 -3.416689e-17
3.400001e-02 -8.218499e-17
3.500000e-02 -8.673316e-17
3.600000e-02 -2.758752e-17
3.700000e-02 7.453642e-17
3.800000e-02 1.584752e-16
3.900000e-02 1.543907e-16
4.000001e-02 3.376958e-17
4.100001e-02 -1.542047e-16
4.200000e-02 -2.925685e-16
4.300000e-02 -2.613268e-16
4.400000e-02 -2.659577e-17
4.500000e-02 3.051641e-16
4.600000e-02 5.203638e-16
4.700001e-02 4.225586e-16
4.800001e-02 -1.609413e-17
4.900001e-02 -5.808047e-16
5.000000e-02 -8.969954e-16
5.100000e-02 -6.569565e-16
5.200000e-02 1.337075e-16
5.300000e-02 1.065839e-15
5.400001e-02 1.505519e-15
5.500001e-02 9.896085e-16
5.600001e-02 -3.884531e-16
5.700000e-02 -1.886624e-15
5.800000e-02 -2.465794e-15
5.900000e-02 -1.453898e-15
6.000000e-02 8.708922e-16
6.100000e-02 3.219659e-15
6.200001e-02 3.938658e-15
6.300001e-02 2.086788e-15
6.400001e-02 -1.711047e-15
6.500000e-02 -5.299686e-15
6.600000e-02 -6.120292e-15
6.700000e-02 -2.905812e-15
6.800000e-02 3.109727e-15
6.900001e-02 8.439530e-15
7.000001e-02 9.230526e-15
7.100001e-02 3.859465e-15
7.200000e-02 -5.409849e-15
7.300000e-02 -1.308793e-14
7.400000e-02 -1.351956e-14
7.500000e-02 -4.764740e-15
7.600001e-02 9.211985e-15
7.700001e-02 1.995061e-14
7.800001e-02 1.933647e-14
7.900001e-02 5.283626e-15
8.000000e-02 -1.548947e-14
8.100000e-02 -3.015543e-14
8.200000e-02 -2.728132e-14
8.300000e-02 -5.006377e-15
8.400001e-02 2.560011e-14
8.500001e-02 4.535136e-14
8.600001e-02 3.836203e-14
8.700001e-02 3.632636e-15
8.800000e-02 -4.111062e-14
8.900000e-02 -6.756934e-14
9.000000e-02 -5.393416e-14
9.100001e-02 -1.043869e-15
9.200001e-02 6.354783e-14
9.300001e-02 9.880227e-14
9.400001e-02 7.519759e-14
9.500000e-02 -3.110755e-15
9.600000e-02 -9.451477e-14
9.700000e-02 -1.406670e-13
9.800000e-02 -1.023956e-13
9.900001e-02 1.048851e-14
1.000000e-01 1.366808e-13
1.010000e-01 1.949025e-13
1.020000e-01 1.345269e-13
1.030000e-01 -2.516717e-14
1.040000e-01 -1.954555e-13
1.050000e-01 -2.651010e-13
1.060000e-01 -1.705640e-13
1.070000e-01 5.337696e-14
1.080000e-01 2.798304e-13
1.090000e-01 3.585035e-13
1.100000e-01 2.117966e-13
1.110000e-01 -1.011431e-13
1.120000e-01 -4.005546e-13
1.130000e-01 -4.851881e-13
1.140000e-01 -2.623912e-13
1.150000e-01 1.721871e-13
1.160000e-01 5.666201e-13
1.170000e-01 6.536600e-13
1.180000e-01 3.250324e-13
1.190000e-01 -2.709906e-13
1.200000e-01 -7.857941e-13
1.210000e-01 -8.680254e-13
1.220000e-01 -3.946811e-13
1.230000e-01 4.115582e-13
1.240000e-01 1.074131e-12
1.250000e-01 1.135908e-12
1.260000e-01 4.624333e-13
1.270000e-01 -6.196819e-13
1.280000e-01 -1.465495e-12
1.290000e-01 -1.484915e-12
1.300000e-01 -5.367295e-13
1.310000e-01 9.112525e-13
1.320000e-01 1.995413e-12
1.330000e-01 1.958775e-12
1.340000e-01 6.574286e-13
1.350000e-01 -1.258024e-12
1.360000e-01 -2.650040e-12
1.370000e-01 -2.559581e-12
1.380000e-01 -8.473289e-13
1.390000e-01 1.608055e-12
1.400000e-01 3.342417e-12
1.410000e-01 3.172682e-12
1.420000e-01 9.929483e-13
1.430000e-01 -2.025048e-12
1.440000e-01 -4.033726e-12
1.450000e-01 -3.625585e-12
1.460000e-01 -8.032445e-13
1.470000e-01 2.847015e-12
1.480000e-01 4.994391e-12
1.490000e-01 3.999700e-12
1.500000e-01 8.916925e-14
1.510000e-01 -4.535631e-12
1.520000e-01 -6.866442e-12
1.530000e-01 -4.947193e-12
1.540000e-01 6.913415e-13
1.550000e-01 7.008182e-12
1.560000e-01 1.004520e-11
1.570000e-01 7.327397e-12
1.580000e-01 -3.605798e-13
1.590000e-01 -9.033220e-12
1.600000e-01 -1.358734e-11
1.610000e-01 -1.083303e-11
1.620000e-01 -1.668794e-12
1.630000e-01 9.062784e-12
1.640000e-01 1.519173e-11
1.650000e-01 1.291084e-11
1.660000e-01 3.313644e-12
1.670000e-01 -7.938350e-12
1.680000e-01 -1.387770e-11
1.690000e-01 -1.060941e-11
1.700000e-01 -9.003096e-14
1.710000e-01 1.065649e-11
1.720000e-01 1.374922e-11
1.730000e-01 5.707503e-12
1.740000e-01 -9.576142e-12
1.750000e-01 -2.238218e-11
1.760000e-01 -2.279472e-11
1.770000e-01 -7.282589e-12
1.780000e-01 1.790277e-11
1.790000e-01 3.911257e-11
1.800000e-01 4.269991e-11
1.810000e-01 2.340169e-11
1.820000e-01 -1.139994e-11
1.830000e-01 -4.461530e-11
1.840000e-01 -5.850168e-11
1.850000e-01 -4.486603e-11
1.860000e-01 -1.030435e-11
1.870000e-01 2.706311e-11
1.880000e-01 4.790347e-11
1.890000e-01 4.308420e-11
1.900000e-01 1.914208e-11
1.910000e-01 -5.966106e-12
1.920000e-01 -1.467017e-11
1.930000e-01 -1.949507e-12
1.940000e-01 2.018438e-11
1.950000e-01 2.962981e-11
1.960000e-01 9.158644e-12
1.970000e-01 -3.967848e-11
1.980000e-01 -9.318626e-11
1.990000e-01 -1.164947e-10
2.000000e-01 -8.388455e-11
2.010000e-01 3.118006e-12
2.020000e-01 1.114892e-10
2.030000e-01 1.906697e-10
2.040000e-01 1.984231e-10
2.050000e-01 1.244624e-10
2.060000e-01 -2.123884e-12
2.070000e-01 -1.269367e-10
2.080000e-01 -1.986116e-10
2.090000e-01 -1.953546e-10
2.100000e-01 -1.340466e-10
2.110000e-01 -5.640612e-11
2.120000e-01 -7.525591e-13
2.130000e-01 2.270067e-11
2.140000e-01 3.660472e-11
2.150000e-01 7.707406e-11
2.160000e-01 1.617764e-10
2.170000e-01 2.667560e-10
2.180000e-01 3.297966e-10
2.190000e-01 2.826656e-10
2.200000e-01 9.581487e-11
2.210000e-01 -1.912990e-10
2.220000e-01 -4.757423e-10
2.230000e-01 -6.345817e-10
2.240000e-01 -5.857409e-10
2.250000e-01 -3.333048e-10
2.260000e-01 2.931372e-11
2.270000e-01 3.623756e-10
2.280000e-01 5.467561e-10
2.290000e-01 5.382647e-10
2.300000e-01 3.795551e-10
2.310000e-01 1.645490e-10
2.320000e-01 -2.144218e-11
2.330000e-01 -1.481117e-10
2.340000e-01 -2.440030e-10
2.350000e-01 -3.561942e-10
2.360000e-01 -4.939240e-10
2.370000e-01 -5.971845e-10
2.380000e-01 -5.579111e-10
2.390000e-01 -2.883285e-10
2.400000e-01 2.020837e-10
2.410000e-01 7.715331e-10
2.420000e-01 1.184215e-09
2.430000e-01 1.212465e-09
2.440000e-01 7.531877e-10
2.450000e-01 -1.043610e-10
2.460000e-01 -1.100943e-09
2.470000e-01 -1.913513e-09
2.480000e-01 -2.292079e-09
2.490000e-01 -2.157925e-09
2.500000e-01 -1.613628e-09
2.510000e-01 -8.678782e-10
2.520000e-01 -1.245581e-10
2.530000e-01 4.970815e-10
2.540000e-01 9.670345e-10
2.550000e-01 1.281592e-09
2.560000e-01 1.386127e-09
2.570000e-01 1.149800e-09
2.580000e-01 4.240235e-10
2.590000e-01 -8.388952e-10
2.600000e-01 -2.478998e-09
2.610000e-01 -4.116089e-09
2.620000e-01 -5.257050e-09
2.630000e-01 -5.493746e-09
2.640000e-01 -4.695096e-09
2.650000e-01 -3.089781e-09
2.660000e-01 -1.187345e-09
2.670000e-01 4.193907e-10
2.680000e-01 1.280455e-09
2.690000e-01 1.239300e-09
2.700000e-01 4.285994e-10
2.710000e-01 -8.544703e-10
2.720000e-01 -2.299885e-09
2.730000e-01 -3.704372e-09
2.740000e-01 -4.947424e-09
2.750000e-01 -5.894890e-09
2.760000e-01 -6.335995e-09
2.770000e-01 -5.993115e-09
2.780000e-01 -4.642061e-09
2.790000e-01 -2.288289e-09
2.800000e-01 6.921255e-10
2.810000e-01 3.607056e-09
2.820000e-01 5.678885e-09
2.830000e-01 6.344635e-09
2.840000e-01 5.519723e-09
2.850000e-01 3.676178e-09
2.860000e-01 1.613444e-09
2.870000e-01 2.028173e-10
2.880000e-01 2.910383e-11
2.890000e-01 1.207809e-09
2.900000e-01 3.443347e-09
2.910000e-01 6.384653e-09
2.920000e-01 9.687938e-09
2.930000e-01 1.325498e-08
2.940000e-01 1.690387e-08
2.950000e-01 2.030720e-08
2.960000e-01 2.305933e-08
2.970000e-01 2.455636e-08
2.980000e-01 2.447996e-08
2.990000e-01 2.295565e-08
3.000000e-01 2.026718e-08
3.010000e-01 1.749140e-08
3.020000e-01 1.542503e-08
3.030000e-01 1.481749e-08
3.040000e-01 1.583248e-08
3.050000e-01 1.762237e-08
3.060000e-01 1.927765e-08
3.070000e-01 1.999797e-08
3.080000e-01 1.956869e-08
3.090000e-01 1.792068e-08
3.100000e-01 1.554145e-08
3.110000e-01 1.268199e-08
3.120000e-01 8.905772e-09
3.130000e-01 4.209141e-09
3.140000e-01 -1.342414e-09
3.150000e-01 -7.599738e-09
3.160000e-01 -1.430453e-08
3.170000e-01 -2.056186e-08
3.180000e-01 -2.581510e-08
3.190000e-01 -2.991328e-08
3.200000e-01 -3.306195e-08
3.210000e-01 -3.611785e-08
3.220000e-01 -3.958121e-08
3.230000e-01 -4.360481e-08
3.240000e-01 -4.796311e-08
3.250000e-01 -5.187485e-08
3.260000e-01 -5.483616e-08
3.270000e-01 -5.662514e-08
3.280000e-01 -5.677430e-08
3.290000e-01 -5.556285e-08
3.300000e-01 -5.354013e-08
3.310000e-01 -5.160473e-08
3.320000e-01 -4.996400e-08
3.330000e-01 -4.781032e-08
3.340000e-01 -4.460162e-08
3.350000e-01 -3.987952e-08
3.360000e-01 -3.386231e-08
3.370000e-01 -2.716843e-08
3.380000e-01 -2.034358e-08
3.390000e-01 -1.350418e-08
3.400000e-01 -6.461050e-09
3.410000e-01 1.076842e-09
3.420000e-01 9.647920e-09
3.430000e-01 1.926674e-08
3.440000e-01 2.942397e-08
3.450000e-01 3.905734e-08
3.460000e-01 4.732283e-08
3.470000e-01 5.335460e-08
3.480000e-01 5.714537e-08
3.490000e-01 5.919719e-08
3.500000e-01 6.036862e-08
3.510000e-01 6.105984e-08
3.520000e-01 6.169284e-08
3.530000e-01 6.212213e-08
3.540000e-01 6.247137e-08
3.550000e-01 6.174378e-08
3.560000e-01 6.012851e-08
3.570000e-01 5.737093e-08
3.580000e-01 5.387119e-08
3.590000e-01 4.934191e-08
3.600000e-01 4.496178e-08
3.610000e-01 4.019603e-08
3.620000e-01 3.455352e-08
3.630000e-01 2.751221e-08
3.640000e-01 1.901753e-08
3.650000e-01 9.648375e-09
3.660000e-01 8.008101e-10
3.670000e-01 -6.742084e-09
3.680000e-01 -1.218177e-08
3.690000e-01 -1.730405e-08
3.700000e-01 -2.238812e-08
3.710000e-01 -2.821980e-08
3.720000e-01 -3.306195e-08
3.730000e-01 -3.637979e-08
3.740000e-01 -3.738387e-08
3.750000e-01 -3.648893e-08
3.760000e-01 -3.423338e-08
3.770000e-01 -3.173773e-08
3.780000e-01 -2.958404e-08
3.790000e-01 -2.820161e-08
3.800000e-01 -2.700835e-08
3.810000e-01 -2.601882e-08
3.820000e-01 -2.528395e-08
3.830000e-01 -2.478191e-08
3.840000e-01 -2.373417e-08
3.850000e-01 -2.202432e-08
3.860000e-01 -1.950684e-08
3.870000e-01 -1.645094e-08
3.880000e-01 -1.332228e-08
3.890000e-01 -1.037552e-08
3.900000e-01 -7.647031e-09
3.910000e-01 -5.191396e-09
3.920000e-01 -2.793968e-09
3.930000e-01 -6.257324e-10
3.940000e-01 8.330971e-10
3.950000e-01 1.229637e-09
3.960000e-01 6.366463e-10
3.970000e-01 -2.801244e-10
3.980000e-01 -5.384209e-10
3.990000e-01 2.037268e-10
4.000000e-01 1.537046e-09
4.010000e-01 2.431989e-09
4.020000e-01 2.322849e-09
4.030000e-01 1.149601e-09
4.040000e-01 -4.138201e-10
4.050000e-01 -1.816261e-09
4.060000e-01 -2.849447e-09
4.070000e-01 -3.888090e-09
4.080000e-01 -5.173661e-09
4.090000e-01 -6.495839e-09
4.100000e-01 -6.989580e-09
4.110000e-01 -5.722981e-09
4.120000e-01 -2.454044e-09
4.130000e-01 2.118895e-09
4.140000e-01 6.570644e-09
4.150000e-01 9.774340e-09
4.160000e-01 1.161789e-08
4.170000e-01 1.301532e-08
4.180000e-01 1.473836e-08
4.190000e-01 1.695480e-08
4.200000e-01 1.869194e-08
4.210000e-01 1.909666e-08
4.220001e-01 1.808712e-08
4.230000e-01 1.662374e-08
4.240000e-01 1.597709e-08
4.250000e-01 1.685657e-08
4.260000e-01 1.871922e-08
4.270000e-01 2.014895e-08
4.280000e-01 1.980698e-08
4.290000e-01 1.730859e-08
4.300000e-01 1.344324e-08
4.310000e-01 9.471478e-09
4.320000e-01 6.009031e-09
4.330000e-01 3.077730e-09
4.340000e-01 2.537490e-10
4.350000e-01 -2.616616e-09
4.360000e-01 -5.117727e-09
4.370000e-01 -6.792106e-09
4.380000e-01 -7.727522e-09
4.390000e-01 -8.526058e-09
4.400000e-01 -9.993073e-09
4.410000e-01 -1.237277e-08
4.420000e-01 -1.521175e-08
4.430000e-01 -1.779290e-08
4.440000e-01 -1.969966e-08
4.450000e-01 -2.118054e-08
4.460000e-01 -2.278489e-08
4.470000e-01 -2.463935e-08
4.480000e-01 -2.598267e-08
4.490000e-01 -2.564275e-08
4.500000e-01 -2.299794e-08
4.510000e-01 -1.868466e-08
4.520000e-01 -1.434819e-08
4.530000e-01 -1.143894e-08
4.540000e-01 -1.012108e-08
4.550000e-01 -9.104724e-09
4.560000e-01 -6.671826e-09
4.570000e-01 -2.101160e-09
4.580000e-01 3.843411e-09
4.590001e-01 9.501832e-09
4.600000e-01 1.361423e-08
4.610000e-01 1.626142e-08
4.620000e-01 1.871899e-08
4.630000e-01 2.228592e-08
4.640000e-01 2.701825e-08
4.650000e-01 3.156651e-08
4.660000e-01 3.400430e-08
4.670000e-01 3.333207e-08
4.680000e-01 3.015157e-08
4.690000e-01 2.618356e-08
4.700000e-01 2.290187e-08
4.710000e-01 2.066372e-08
4.720000e-01 1.871547e-08
4.730000e-01 1.611187e-08
4.740000e-01 1.245706e-08
4.750000e-01 8.069378e-09
4.760000e-01 3.496496e-09
4.770000e-01 -1.002320e-09
4.780000e-01 -5.656659e-09
4.790000e-01 -1.079343e-08
4.800000e-01 -1.639359e-08
4.810000e-01 -2.193502e-08
4.820001e-01 -2.672550e-08
4.830000e-01 -3.040765e-08
4.840000e-01 -3.299414e-08
4.850000e-01 -3.449122e-08
4.860000e-01 -3.441590e-08
4.870000e-01 -3.193009e-08
4.880000e-01 -2.656367e-08
4.890000e-01 -1.891573e-08
4.900000e-01 -1.054491e-08
4.910000e-01 -2.967681e-09
4.920000e-01 3.490442e-09
4.930000e-01 1.009991e-08
4.940000e-01 1.897453e-08
4.950000e-01 3.168648e-08
4.960001e-01 4.831847e-08
4.970000e-01 6.768792e-08
4.980000e-01 8.860630e-08
4.990000e-01 1.112159e-07
5.000000e-01 1.373809e-07
5.010000e-01 1.697728e-07
5.020000e-01 2.103572e-07
5.030000e-01 2.595910e-07
5.040000e-01 3.169509e-07
5.050000e-01 3.823568e-07
5.060000e-01 4.573792e-07
5.070000e-01 5.453001e-07
5.080000e-01 6.502276e-07
5.090000e-01 7.760468e-07
5.100001e-01 9.260755e-07
5.110000e-01 1.103500e-06
5.120000e-01 1.312141e-06
5.130000e-01 1.556904e-06
5.140000e-01 1.843746e-06
5.150000e-01 2.179337e-06
5.160000e-01 2.570976e-06
5.170000e-01 3.026896e-06
5.180000e-01 3.556763e-06
5.190001e-01 4.171787e-06
5.200000e-01 4.884271e-06
5.210000e-01 5.706972e-06
5.220000e-01 6.653019e-06
5.230000e-01 7.736632e-06
5.240000e-01 8.974121e-06
5.250000e-01 1.038428e-05
5.260000e-01 1.198779e-05
5.270000e-01 1.380619e-05
5.280000e-01 1.586116e-05
5.290000e-01 1.817489e-05
5.300000e-01 2.077107e-05
5.310000e-01 2.367586e-05
5.320000e-01 2.691776e-05
5.330001e-01 3.052660e-05
5.340000e-01 3.453195e-05
5.350000e-01 3.896226e-05
5.360000e-01 4.384494e-05
5.370000e-01 4.920731e-05
5.380000e-01 5.507714e-05
5.390000e-01 6.148206e-05
5.400000e-01 6.844797e-05
5.410000e-01 7.599737e-05
5.420001e-01 8.414843e-05
5.430000e-01 9.291516e-05
5.440000e-01 1.023073e-04
5.450000e-01 1.123295e-04
5.460000e-01 1.229803e-04
5.470001e-01 1.342503e-04
5.480000e-01 1.461203e-04
5.490000e-01 1.585617e-04
5.500000e-01 1.715356e-04
5.510000e-01 1.849921e-04
5.520000e-01 1.988700e-04
5.530000e-01 2.130947e-04
5.540000e-01 2.275769e-04
5.550000e-01 2.422122e-04
5.560001e-01 2.568804e-04
5.570000e-01 2.714478e-04
5.580000e-01 2.857661e-04
5.590000e-01 2.996725e-04
5.600000e-01 3.129897e-04
5.610000e-01 3.255249e-04
5.620000e-01 3.370721e-04
5.630000e-01 3.474137e-04
5.640000e-01 3.563230e-04
5.650001e-01 3.635655e-04
5.660000e-01 3.689025e-04
5.670000e-01 3.720925e-04
5.680000e-01 3.728939e-04
5.690000e-01 3.710689e-04
5.700001e-01 3.663868e-04
5.710000e-01 3.586286e-04
5.720000e-01 3.475895e-04
5.730000e-01 3.330854e-04
5.740000e-01 3.149548e-04
5.750000e-01 2.930652e-04
5.760000e-01 2.673178e-04
5.770000e-01 2.376480e-04
5.780000e-01 2.040316e-04
5.790001e-01 1.664871e-04
5.800000e-01 1.250778e-04
5.810000e-01 7.991701e-05
5.820000e-01 3.116943e-05
5.830000e-01 -2.094884e-05
5.840001e-01 -7.616859e-05
5.850000e-01 -1.341685e-04
5.860000e-01 -1.945785e-04
5.870000e-01 -2.569795e-04
5.880000e-01 -3.209061e-04
5.890000e-01 -3.858509e-04
5.900000e-01 -4.512669e-04
5.910000e-01 -5.165738e-04
5.920000e-01 -5.811672e-04
5.930001e-01 -6.444238e-04
5.940000e-01 -7.057087e-04
5.950000e-01 -7.643848e-04
5.960000e-01 -8.198188e-04
5.970000e-01 -8.713907e-04
5.980000e-01 -9.185014e-04
5.990000e-01 -9.605803e-04
6.000000e-01 -9.970975e-04
6.010000e-01 -1.027569e-03
6.020001e-01 -1.051567e-03
6.030000e-01 -1.068727e-03
6.040000e-01 -1.078751e-03
6.050000e-01 -1.081412e-03
6.060000e-01 -1.076562e-03
6.070001e-01 -1.064133e-03
6.080000e-01 -1.044138e-03
6.090000e-01 -1.016677e-03
6.100000e-01 -9.819295e-04
6.110000e-01 -9.401586e-04
6.120000e-01 -8.917041e-04
6.130000e-01 -8.369794e-04
6.140000e-01 -7.764673e-04
6.150000e-01 -7.107120e-04
6.160001e-01 -6.403135e-04
6.170000e-01 -5.659191e-04
6.180000e-01 -4.882155e-04
6.190000e-01 -4.079199e-04
6.200000e-01 -3.257704e-04
6.210001e-01 -2.425148e-04
6.220000e-01 -1.589026e-04
6.230000e-01 -7.567256e-05
6.240000e-01 6.452725e-06
6.250001e-01 8.677847e-05
6.260000e-01 1.646417e-04
6.270000e-01 2.394256e-04
6.280000e-01 3.105597e-04
6.290000e-01 3.775302e-04
6.300001e-01 4.398829e-04
6.310000e-01 4.972263e-04
6.320000e-01 5.492328e-04
6.330000e-01 5.956428e-04
6.340000e-01 6.362679e-04
6.350001e-01 6.709881e-04
6.360000e-01 6.997498e-04
6.370000e-01 7.225640e-04
6.380000e-01 7.395052e-04
6.390001e-01 7.507039e-04
6.400000e-01 7.563455e-04
6.410000e-01 7.566633e-04
6.420000e-01 7.519350e-04
6.430000e-01 7.424765e-04
6.440001e-01 7.286329e-04
6.450000e-01 7.107750e-04
6.460000e-01 6.892933e-04
6.470000e-01 6.645917e-04
6.480000e-01 6.370837e-04
6.490000e-01 6.071854e-04
6.500000e-01 5.753102e-04
6.510000e-01 5.418623e-04
6.520000e-01 5.072331e-04
6.530001e-01 4.717984e-04
6.540000e-01 4.359136e-04
6.550000e-01 3.999131e-04
6.560000e-01 3.641075e-04
6.570000e-01 3.287813e-04
6.580001e-01 2.941918e-04
6.590000e-01 2.605660e-04
6.600000e-01 2.281012e-04
6.610000e-01 1.969665e-04
6.620001e-01 1.673030e-04
6.630000e-01 1.392252e-04
6.640000e-01 1.128219e-04
6.650000e-01 8.815660e-05
6.660000e-01 6.526908e-05
6.670001e-01 4.417714e-05
6.680000e-01 2.487909e-05
6.690000e-01 7.354878e-06
6.700000e-01 -8.431337e-06
6.710000e-01 -2.252891e-05
6.720001e-01 -3.499895e-05
6.730000e-01 -4.591201e-05
6.740000e-01 -5.534553e-05
6.750000e-01 -6.338293e-05
6.760001e-01 -7.011269e-05
6.770000e-01 -7.562692e-05
6.780000e-01 -8.002129e-05
6.790000e-01 -8.339089e-05
6.800000e-01 -8.582925e-05
6.810001e-01 -8.742565e-05
6.820000e-01 -8.826642e-05
6.830000e-01 -8.843627e-05
6.840000e-01 -8.801751e-05
6.850001e-01 -8.708902e-05
6.860000e-01 -8.572418e-05
6.870000e-01 -8.399031e-05
6.880000e-01 -8.194787e-05
6.890000e-01 -7.965246e-05
6.900001e-01 -7.715555e-05
6.910000e-01 -7.450541e-05
6.920000e-01 -7.174672e-05
6.930000e-01 -6.891857e-05
6.940000e-01 -6.605348e-05
6.950001e-01 -6.317809e-05
6.960000e-01 -6.031541e-05
6.970000e-01 -5.748694e-05
6.980000e-01 -5.471238e-05
6.990001e-01 -5.200815e-05
7.000000e-01 -4.938672e-05
7.010000e-01 -4.685654e-05
7.020000e-01 -4.442412e-05
7.030000e-01 -4.209451e-05
7.040001e-01 -3.987149e-05
7.050000e-01 -3.775724e-05
7.060000e-01 -3.575194e-05
7.070000e-01 -3.385396e-05
7.080001e-01 -3.206038e-05
7.090001e-01 -3.036833e-05
7.100000e-01 -2.877572e-05
7.110000e-01 -2.728041e-05
7.120000e-01 -2.587901e-05
7.130001e-01 -2.456607e-05
7.140000e-01 -2.333479e-05
7.150000e-01 -2.217949e-05
7.160000e-01 -2.109650e-05
7.170000e-01 -2.008329e-05
7.180001e-01 -1.913611e-05
7.190000e-01 -1.824916e-05
7.200000e-01 -1.741570e-05
7.210000e-01 -1.663026e-05
7.220001e-01 -1.588999e-05
7.230000e-01 -1.519382e-05
7.240000e-01 -1.454052e-05
7.250000e-01 -1.392673e-05
7.260000e-01 -1.334668e-05
7.270001e-01 -1.279415e-05
7.280000e-01 -1.226530e-05
7.290000e-01 -1.176027e-05
7.300000e-01 -1.128149e-05
7.310000e-01 -1.083006e-05
7.320001e-01 -1.040322e-05
7.330000e-01 -9.995201e-06
7.340000e-01 -9.601103e-06
7.350000e-01 -9.219912e-06
7.360001e-01 -8.854310e-06
7.370000e-01 -8.507590e-06
7.380000e-01 -8.180545e-06
7.390000e-01 -7.870706e-06
7.400000e-01 -7.574314e-06
7.410001e-01 -7.289178e-06
7.420000e-01 -7.015908e-06
7.430000e-01 -6.757082e-06
7.440000e-01 -6.514575e-06
7.450001e-01 -6.287474e-06
7.460001e-01 -6.072585e-06
7.470000e-01 -5.867089e-06
7.480000e-01 -5.671073e-06
7.490000e-01 -5.487278e-06
7.500001e-01 -5.318197e-06
7.510000e-01 -5.163090e-06
7.520000e-01 -5.018253e-06
7.530000e-01 -4.880035e-06
7.540000e-01 -4.747748e-06
7.550001e-01 -4.623743e-06
7.560000e-01 -4.510622e-06
7.570000e-01 -4.408250e-06
7.580000e-01 -4.313208e-06
7.590001e-01 -4.221029e-06
7.600001e-01 -4.129373e-06
7.610000e-01 -4.039576e-06
7.620000e-01 -3.955126e-06
7.630000e-01 -3.878114e-06
7.640001e-01 -3.806584e-06
7.650000e-01 -3.735342e-06
7.660000e-01 -3.659972e-06
7.670000e-01 -3.580549e-06
7.680001e-01 -3.501400e-06
7.690001e-01 -3.426851e-06
7.700000e-01 -3.356956e-06
7.710000e-01 -3.286920e-06
7.720000e-01 -3.211132e-06
7.730001e-01 -3.127870e-06
7.740000e-01 -3.040650e-06
7.750000e-01 -2.955273e-06
7.760000e-01 -2.875111e-06
7.770000e-01 -2.798572e-06
7.780001e-01 -2.720744e-06
7.790000e-01 -2.637830e-06
7.800000e-01 -2.550818e-06
7.810000e-01 -2.465080e-06
7.820001e-01 -2.386057e-06
7.830001e-01 -2.314518e-06
7.840000e-01 -2.245868e-06
7.850000e-01 -2.174394e-06
7.860000e-01 -2.098695e-06
7.870001e-01 -2.023306e-06
7.880000e-01 -1.954898e-06
7.890000e-01 -1.896656e-06
7.900000e-01 -1.845878e-06
7.910001e-01 -1.796747e-06
7.920001e-01 -1.745630e-06
7.930000e-01 -1.694134e-06
7.940000e-01 -1.647605e-06
7.950000e-01 -1.610387e-06
7.960001e-01 -1.581989e-06
7.970001e-01 -1.557345e-06
7.980000e-01 -1.531115e-06
7.990000e-01 -1.502359e-06
8.000000e-01 -1.475416e-06
8.010001e-01 -1.455752e-06
8.020000e-01 -1.444591e-06
8.030000e-01 -1.437220e-06
8.040000e-01 -1.427009e-06
8.050001e-01 -1.411450e-06
8.060001e-01 -1.394505e-06
8.070000e-01 -1.382905e-06
8.080000e-01 -1.379752e-06
8.090000e-01 -1.381181e-06
8.100001e-01 -1.379152e-06
8.110000e-01 -1.367902e-06
8.120000e-01 -1.348601e-06
8.130000e-01 -1.328378e-06
8.140000e-01 -1.314291e-06
8.150001e-01 -1.307286e-06
8.160000e-01 -1.301102e-06
8.170000e-01 -1.287421e-06
8.180000e-01 -1.263024e-06
8.190001e-01 -1.232696e-06
8.200001e-01 -1.205073e-06
8.210000e-01 -1.184940e-06
8.220000e-01 -1.168936e-06
8.230000e-01 -1.148638e-06
8.240001e-01 -1.118252e-06
8.250000e-01 -1.079858e-06
8.260000e-01 -1.041637e-06
8.270000e-01 -1.010834e-06
8.280001e-01 -9.876411e-07
8.290001e-01 -9.652880e-07
8.300000e-01 -9.360806e-07
8.310000e-01 -8.982075e-07
8.320000e-01 -8.575601e-07
8.330001e-01 -8.229798e-07
8.340001e-01 -7.988525e-07
8.350000e-01 -7.814182e-07
8.360000e-01 -7.622821e-07
8.370000e-01 -7.361299e-07
8.380001e-01 -7.057704e-07
8.390000e-01 -6.797227e-07
8.400000e-01 -6.644521e-07
8.410000e-01 -6.583637e-07
8.420001e-01 -6.531144e-07
8.430001e-01 -6.409775e-07
8.440000e-01 -6.215740e-07
8.450000e-01 -6.020548e-07
8.460000e-01 -5.907254e-07
8.470001e-01 -5.898716e-07
8.480000e-01 -5.938653e-07
8.490000e-01 -5.941693e-07
8.500000e-01 -5.868304e-07
8.510001e-01 -5.759898e-07
8.520001e-01 -5.701452e-07
8.530000e-01 -5.742698e-07
8.540000e-01 -5.847958e-07
8.550000e-01 -5.922980e-07
8.560001e-01 -5.898235e-07
8.570001e-01 -5.793535e-07
8.580000e-01 -5.702993e-07
8.590000e-01 -5.711379e-07
8.600000e-01 -5.817221e-07
8.610001e-01 -5.932770e-07
8.620000e-01 -5.960760e-07
8.630000e-01 -5.879733e-07
8.640000e-01 -5.763009e-07
8.650001e-01 -5.714872e-07
8.660001e-01 -5.778930e-07
8.670000e-01 -5.897002e-07
8.680000e-01 -5.955089e-07
8.690000e-01 -5.879062e-07
8.700001e-01 -5.699306e-07
8.710001e-01 -5.526139e-07
8.720000e-01 -5.454771e-07
8.730000e-01 -5.481406e-07
8.740000e-01 -5.506347e-07
8.750001e-01 -5.422460e-07
8.760000e-01 -5.210424e-07
8.770000e-01 -4.954713e-07
8.780000e-01 -4.766771e-07
8.790001e-01 -4.685305e-07
