-1.199999999999999956e-01 0.000000000000000000e+00
-1.189999999999999947e-01 0.000000000000000000e+00
-1.179999999999999938e-01 0.000000000000000000e+00
-1.170000000000000068e-01 0.000000000000000000e+00
-1.160000000000000059e-01 0.000000000000000000e+00
-1.150000000000000050e-01 0.000000000000000000e+00
-1.140000000000000041e-01 0.000000000000000000e+00
-1.130000000000000032e-01 0.000000000000000000e+00
-1.120000000000000023e-01 0.000000000000000000e+00
-1.110000000000000014e-01 0.000000000000000000e+00
-1.100000000000000006e-01 0.000000000000000000e+00
-1.089999999999999997e-01 0.000000000000000000e+00
-1.079999999999999988e-01 0.000000000000000000e+00
-1.069999999999999979e-01 0.000000000000000000e+00
-1.059999999999999970e-01 0.000000000000000000e+00
-1.049999999999999961e-01 0.000000000000000000e+00
-1.039999999999999952e-01 0.000000000000000000e+00
-1.029999999999999943e-01 0.000000000000000000e+00
-1.019999999999999934e-01 0.000000000000000000e+00
-1.010000000000000064e-01 0.000000000000000000e+00
-1.000000000000000056e-01 0.000000000000000000e+00
-9.900000999999999940e-02 0.000000000000000000e+00
-9.800000000000000377e-02 0.000000000000000000e+00
-9.700000000000000289e-02 0.000000000000000000e+00
-9.600000000000000200e-02 0.000000000000000000e+00
-9.500000999999999585e-02 0.000000000000000000e+00
-9.400000000000000022e-02 0.000000000000000000e+00
-9.299999999999999933e-02 0.000000000000000000e+00
-9.200000999999999318e-02 0.000000000000000000e+00
-9.100001000000000617e-02 0.000000000000000000e+00
-8.999999999999999667e-02 0.000000000000000000e+00
-8.899999999999999578e-02 0.000000000000000000e+00
-8.799999999999999489e-02 0.000000000000000000e+00
-8.699999999999999400e-02 0.000000000000000000e+00
-8.599999999999999312e-02 0.000000000000000000e+00
-8.500001000000000084e-02 0.000000000000000000e+00
-8.400000999999999995e-02 0.000000000000000000e+00
-8.300000000000000433e-02 0.000000000000000000e+00
-8.200000000000000344e-02 0.000000000000000000e+00
-8.100000000000000255e-02 0.000000000000000000e+00
-8.000000000000000167e-02 0.000000000000000000e+00
-7.900000000000000078e-02 0.000000000000000000e+00
-7.799999999999999989e-02 0.000000000000000000e+00
-7.700000999999999374e-02 0.000000000000000000e+00
-7.600001000000000673e-02 0.000000000000000000e+00
-7.499999999999999722e-02 0.000000000000000000e+00
-7.399999999999999634e-02 0.000000000000000000e+00
-7.299999999999999545e-02 0.000000000000000000e+00
-7.199999999999999456e-02 0.000000000000000000e+00
-7.099999999999999367e-02 0.000000000000000000e+00
-7.000001000000000140e-02 0.000000000000000000e+00
-6.900001000000000051e-02 0.000000000000000000e+00
-6.800000000000000488e-02 0.000000000000000000e+00
-6.700000000000000400e-02 0.000000000000000000e+00
-6.600000000000000311e-02 0.000000000000000000e+00
-6.500000000000000222e-02 0.000000000000000000e+00
-6.400000000000000133e-02 0.000000000000000000e+00
-6.300000000000000044e-02 0.000000000000000000e+00
-6.199999999999999956e-02 0.000000000000000000e+00
-6.099999999999999867e-02 0.000000000000000000e+00
-5.999999999999999778e-02 0.000000000000000000e+00
-5.899999999999999689e-02 0.000000000000000000e+00
-5.800000000000000294e-02 0.000000000000000000e+00
-5.700000000000000205e-02 0.000000000000000000e+00
-5.600000000000000117e-02 0.000000000000000000e+00
-5.500000000000000028e-02 0.000000000000000000e+00
-5.400001000000000106e-02 0.000000000000000000e+00
-5.299999999999999850e-02 0.000000000000000000e+00
-5.199999999999999761e-02 0.000000000000000000e+00
-5.099999999999999672e-02 0.000000000000000000e+00
-5.000000000000000278e-02 0.000000000000000000e+00
-4.900000000000000189e-02 0.000000000000000000e+00
-4.800000000000000100e-02 0.000000000000000000e+00
-4.700000000000000011e-02 0.000000000000000000e+00
-4.599999999999999922e-02 0.000000000000000000e+00
-4.499999999999999833e-02 0.000000000000000000e+00
-4.399999999999999745e-02 0.000000000000000000e+00
-4.299999999999999656e-02 0.000000000000000000e+00
-4.200000000000000261e-02 0.000000000000000000e+00
-4.100000000000000172e-02 0.000000000000000000e+00
-4.000000000000000083e-02 0.000000000000000000e+00
-3.899999999999999994e-02 0.000000000000000000e+00
-3.799999999999999906e-02 0.000000000000000000e+00
-3.699999999999999817e-02 0.000000000000000000e+00
-3.599999999999999728e-02 0.000000000000000000e+00
-3.500000000000000333e-02 0.000000000000000000e+00
-3.400000000000000244e-02 0.000000000000000000e+00
-3.300000000000000155e-02 0.000000000000000000e+00
-3.200000000000000067e-02 0.000000000000000000e+00
-3.099999999999999978e-02 0.000000000000000000e+00
-2.999999999999999889e-02 0.000000000000000000e+00
-2.900000000000000147e-02 0.000000000000000000e+00
-2.800000000000000058e-02 0.000000000000000000e+00
-2.699999999999999969e-02 0.000000000000000000e+00
-2.599999999999999881e-02 0.000000000000000000e+00
-2.500000000000000139e-02 0.000000000000000000e+00
-2.400000000000000050e-02 0.000000000000000000e+00
-2.299999999999999961e-02 0.000000000000000000e+00
-2.199999999999999872e-02 0.000000000000000000e+00
-2.100000000000000130e-02 0.000000000000000000e+00
-2.000000000000000042e-02 0.000000000000000000e+00
-1.899999999999999953e-02 0.000000000000000000e+00
-1.799999999999999864e-02 0.000000000000000000e+00
-1.700000000000000122e-02 0.000000000000000000e+00
-1.600000000000000033e-02 0.000000000000000000e+00
-1.499999999999999944e-02 0.000000000000000000e+00
-1.400000000000000029e-02 0.000000000000000000e+00
-1.299999999999999940e-02 0.000000000000000000e+00
-1.200000000000000025e-02 0.000000000000000000e+00
-1.099999999999999936e-02 0.000000000000000000e+00
-9.999997999999999526e-03 0.000000000000000000e+00
-8.999995999999999691e-03 0.000000000000000000e+00
-8.000000999999999640e-03 0.000000000000000000e+00
-6.999998999999999805e-03 0.000000000000000000e+00
-5.999996999999999969e-03 0.000000000000000000e+00
-5.000003000000000260e-03 0.000000000000000000e+00
-4.000001000000000424e-03 0.000000000000000000e+00
-2.999999000000000155e-03 0.000000000000000000e+00
-1.999996999999999886e-03 0.000000000000000000e+00
-1.000002000000000052e-03 0.000000000000000000e+00
0.000000000000000000e+00 0.000000000000000000e+00
1.000002000000000052e-03 0.000000000000000000e+00
2.000004000000000105e-03 0.000000000000000000e+00
2.999999000000000155e-03 0.000000000000000000e+00
4.000001000000000424e-03 0.000000000000000000e+00
4.999995000000000134e-03 0.000000000000000000e+00
5.999996999999999969e-03 0.000000000000000000e+00
6.999998999999999805e-03 0.000000000000000000e+00
8.000000999999999640e-03 0.000000000000000000e+00
9.000002999999999476e-03 0.000000000000000000e+00
1.000001000000000015e-02 0.000000000000000000e+00
1.100000999999999930e-02 0.000000000000000000e+00
1.199999000000000031e-02 0.000000000000000000e+00
1.299999999999999940e-02 0.000000000000000000e+00
1.400000000000000029e-02 0.000000000000000000e+00
1.499999999999999944e-02 0.000000000000000000e+00
1.600000000000000033e-02 0.000000000000000000e+00
1.700000000000000122e-02 0.000000000000000000e+00
1.800001000000000032e-02 0.000000000000000000e+00
1.900001000000000120e-02 0.000000000000000000e+00
2.000000000000000042e-02 0.000000000000000000e+00
2.100000000000000130e-02 0.000000000000000000e+00
2.199999999999999872e-02 0.000000000000000000e+00
2.299999999999999961e-02 0.000000000000000000e+00
2.400000000000000050e-02 0.000000000000000000e+00
2.500000999999999959e-02 0.000000000000000000e+00
2.600001000000000048e-02 0.000000000000000000e+00
2.699999999999999969e-02 0.000000000000000000e+00
2.800000000000000058e-02 0.000000000000000000e+00
2.900000000000000147e-02 0.000000000000000000e+00
2.999999999999999889e-02 0.000000000000000000e+00
3.099999999999999978e-02 0.000000000000000000e+00
3.200001000000000234e-02 0.000000000000000000e+00
3.300001000000000323e-02 0.000000000000000000e+00
3.400000999999999718e-02 0.000000000000000000e+00
3.500000000000000333e-02 0.000000000000000000e+00
3.599999999999999728e-02 0.000000000000000000e+00
3.699999999999999817e-02 0.000000000000000000e+00
3.799999999999999906e-02 0.000000000000000000e+00
3.899999999999999994e-02 0.000000000000000000e+00
4.000001000000000251e-02 0.000000000000000000e+00
4.100001000000000340e-02 0.000000000000000000e+00
4.200000000000000261e-02 0.000000000000000000e+00
4.299999999999999656e-02 0.000000000000000000e+00
4.399999999999999745e-02 0.000000000000000000e+00
4.499999999999999833e-02 0.000000000000000000e+00
4.599999999999999922e-02 0.000000000000000000e+00
4.700001000000000179e-02 0.000000000000000000e+00
4.800001000000000267e-02 0.000000000000000000e+00
4.900000999999999662e-02 0.000000000000000000e+00
5.000000000000000278e-02 0.000000000000000000e+00
5.099999999999999672e-02 0.000000000000000000e+00
5.199999999999999761e-02 0.000000000000000000e+00
5.299999999999999850e-02 0.000000000000000000e+00
5.400001000000000106e-02 0.000000000000000000e+00
5.500001000000000195e-02 0.000000000000000000e+00
5.600001000000000284e-02 0.000000000000000000e+00
5.700000000000000205e-02 0.000000000000000000e+00
5.800000000000000294e-02 0.000000000000000000e+00
5.899999999999999689e-02 0.000000000000000000e+00
5.999999999999999778e-02 0.000000000000000000e+00
6.099999999999999867e-02 0.000000000000000000e+00
6.200001000000000123e-02 0.000000000000000000e+00
6.300000999999999518e-02 0.000000000000000000e+00
6.400000999999999607e-02 0.000000000000000000e+00
6.500000000000000222e-02 0.000000000000000000e+00
6.600000000000000311e-02 0.000000000000000000e+00
6.700000000000000400e-02 0.000000000000000000e+00
6.800000000000000488e-02 0.000000000000000000e+00
6.900001000000000051e-02 0.000000000000000000e+00
7.000001000000000140e-02 0.000000000000000000e+00
7.100001000000000229e-02 0.000000000000000000e+00
7.199999999999999456e-02 0.000000000000000000e+00
7.299999999999999545e-02 0.000000000000000000e+00
7.399999999999999634e-02 0.000000000000000000e+00
7.499999999999999722e-02 0.000000000000000000e+00
7.600001000000000673e-02 0.000000000000000000e+00
7.700000999999999374e-02 0.000000000000000000e+00
7.800000999999999463e-02 0.000000000000000000e+00
7.900000999999999551e-02 0.000000000000000000e+00
8.000000000000000167e-02 0.000000000000000000e+00
8.100000000000000255e-02 0.000000000000000000e+00
8.200000000000000344e-02 0.000000000000000000e+00
8.300000000000000433e-02 0.000000000000000000e+00
8.400000999999999995e-02 0.000000000000000000e+00
8.500001000000000084e-02 0.000000000000000000e+00
8.600001000000000173e-02 0.000000000000000000e+00
8.700001000000000262e-02 0.000000000000000000e+00
8.799999999999999489e-02 0.000000000000000000e+00
8.899999999999999578e-02 0.000000000000000000e+00
8.999999999999999667e-02 0.000000000000000000e+00
9.100001000000000617e-02 0.000000000000000000e+00
9.200000999999999318e-02 0.000000000000000000e+00
9.300000999999999407e-02 0.000000000000000000e+00
9.400000999999999496e-02 0.000000000000000000e+00
9.500000000000000111e-02 0.000000000000000000e+00
9.600000000000000200e-02 0.000000000000000000e+00
9.700000000000000289e-02 0.000000000000000000e+00
9.800000000000000377e-02 0.000000000000000000e+00
9.900000999999999940e-02 0.000000000000000000e+00
1.000000000000000056e-01 0.000000000000000000e+00
1.010000000000000064e-01 0.000000000000000000e+00
1.019999999999999934e-01 0.000000000000000000e+00
1.029999999999999943e-01 0.000000000000000000e+00
1.039999999999999952e-01 0.000000000000000000e+00
1.049999999999999961e-01 0.000000000000000000e+00
1.059999999999999970e-01 0.000000000000000000e+00
1.069999999999999979e-01 0.000000000000000000e+00
1.079999999999999988e-01 0.000000000000000000e+00
1.089999999999999997e-01 0.000000000000000000e+00
1.100000000000000006e-01 0.000000000000000000e+00
1.110000000000000014e-01 0.000000000000000000e+00
1.120000000000000023e-01 0.000000000000000000e+00
1.130000000000000032e-01 0.000000000000000000e+00
1.140000000000000041e-01 0.000000000000000000e+00
1.150000000000000050e-01 0.000000000000000000e+00
1.160000000000000059e-01 0.000000000000000000e+00
1.170000000000000068e-01 0.000000000000000000e+00
1.179999999999999938e-01 0.000000000000000000e+00
1.189999999999999947e-01 0.000000000000000000e+00
1.199999999999999956e-01 0.000000000000000000e+00
1.209999999999999964e-01 0.000000000000000000e+00
1.219999999999999973e-01 -0.000000000000000000e+00
1.229999999999999982e-01 -0.000000000000000000e+00
1.239999999999999991e-01 -0.000000000000000000e+00
1.250000000000000000e-01 0.000000000000000000e+00
1.260000000000000009e-01 5.184804318001823162e-44
1.270000000000000018e-01 1.140656949960401096e-42
1.280000000000000027e-01 1.560205710179251327e-41
1.290000000000000036e-01 1.605257455807294196e-40
1.300000000000000044e-01 1.248084694130934547e-39
1.310000000000000053e-01 6.012435013105953646e-39
1.320000000000000062e-01 -1.435191530151594989e-38
1.330000000000000071e-01 -7.965044146224479151e-37
1.340000000000000080e-01 -1.232132171162175625e-35
1.350000000000000089e-01 -1.411672862038452394e-34
1.360000000000000098e-01 -1.369586927077774932e-33
1.370000000000000107e-01 -1.180492626270380801e-32
1.380000000000000115e-01 -9.253371041502087978e-32
1.390000000000000124e-01 -6.685217869454116019e-31
1.400000000000000133e-01 -4.489707573813142012e-30
1.409999999999999865e-01 -2.819729656526493362e-29
1.419999999999999873e-01 -1.664048972045507925e-28
1.429999999999999882e-01 -9.271896679186583882e-28
1.439999999999999891e-01 -4.907975159030300437e-27
1.449999999999999900e-01 -2.492037021868442205e-26
1.459999999999999909e-01 -1.232997606729010103e-25
1.469999999999999918e-01 -6.087318637809736303e-25
1.479999999999999927e-01 -3.086941109242143914e-24
1.489999999999999936e-01 -1.645251774916925194e-23
1.499999999999999944e-01 -9.240190946851693006e-23
1.509999999999999953e-01 -5.362002430935017421e-22
1.519999999999999962e-01 -3.122424251041549605e-21
1.529999999999999971e-01 -1.778440578810996951e-20
1.539999999999999980e-01 -9.735518375314198146e-20
1.549999999999999989e-01 -5.068123205403212269e-19
1.559999999999999998e-01 -2.493368866057366214e-18
1.570000000000000007e-01 -1.154629074300820508e-17
1.580000000000000016e-01 -5.017424809351469671e-17
1.590000000000000024e-01 -2.039884565279705912e-16
1.600000000000000033e-01 -7.732208551042253023e-16
1.610000000000000042e-01 -2.720283367798627915e-15
1.620000000000000051e-01 -8.827127702013774085e-15
1.630000000000000060e-01 -2.617688238479992657e-14
1.640000000000000069e-01 -6.991149060489240674e-14
1.650000000000000078e-01 -1.638186521114512462e-13
1.660000000000000087e-01 -3.183819581673713595e-13
1.670000000000000095e-01 -4.312913958262609704e-13
1.680000000000000104e-01 2.520422344003949919e-15
1.690000000000000113e-01 2.519453395910531412e-12
1.700000000000000122e-01 1.066247350828275486e-11
1.710000000000000131e-01 3.073134108300124012e-11
1.719999999999999862e-01 7.060163564887034227e-11
1.729999999999999871e-01 1.339636596098259247e-10
1.739999999999999880e-01 2.089048239950486163e-10
1.749999999999999889e-01 2.566792334235401540e-10
1.759999999999999898e-01 2.170666285605804546e-10
1.769999999999999907e-01 4.820126589533124672e-11
1.779999999999999916e-01 -2.082071876019497836e-10
1.789999999999999925e-01 -3.978371521107249009e-10
1.799999999999999933e-01 -3.417303939823312930e-10
1.809999999999999942e-01 -2.577090624233946414e-11
1.819999999999999951e-01 3.017492089529838495e-10
1.829999999999999960e-01 3.362441713949948507e-10
1.839999999999999969e-01 9.712305959475031614e-11
1.849999999999999978e-01 -2.973506857406604809e-11
1.859999999999999987e-01 1.871131583008889265e-10
1.869999999999999996e-01 4.094985461833289264e-10
1.880000000000000004e-01 2.030035861633194827e-10
1.890000000000000013e-01 -1.969295559955952513e-10
1.900000000000000022e-01 -2.174338625815508408e-10
1.910000000000000031e-01 1.392361573260281205e-11
1.920000000000000040e-01 -9.092687713874170186e-11
1.930000000000000049e-01 -3.405563608893658056e-10
1.940000000000000058e-01 -1.033606880640469683e-10
1.950000000000000067e-01 2.764344031458421114e-10
1.960000000000000075e-01 1.438540259135479005e-10
1.970000000000000084e-01 -1.682237335542957624e-11
1.980000000000000093e-01 2.150497419028951640e-10
1.990000000000000102e-01 1.211218902952282406e-10
2.000000000000000111e-01 -2.970547696712344532e-10
2.010000000000000120e-01 -1.743895583494747825e-10
2.020000000000000129e-01 5.396538077517831766e-11
2.030000000000000138e-01 -1.367184560008283256e-10
2.039999999999999869e-01 4.272863313170560673e-11
2.049999999999999878e-01 3.398167025547849107e-10
2.059999999999999887e-01 7.082551559123295704e-12
2.069999999999999896e-01 -9.139491247145414832e-11
2.079999999999999905e-01 5.177922327015416215e-11
2.089999999999999913e-01 -2.550456790206823143e-10
2.099999999999999922e-01 -1.196065468889173644e-10
2.109999999999999931e-01 2.244088387337583868e-10
2.119999999999999940e-01 3.990269052678296902e-12
2.129999999999999949e-01 1.218526252122487108e-10
2.139999999999999958e-01 1.194147558614133686e-10
2.149999999999999967e-01 -2.807362675660840523e-10
2.159999999999999976e-01 -4.025153474418452504e-11
2.169999999999999984e-01 -7.709667973476719283e-12
2.179999999999999993e-01 -4.909510645245696026e-11
2.190000000000000002e-01 2.932648290876471719e-10
2.200000000000000011e-01 -2.378728290730602879e-11
2.210000000000000020e-01 -8.172785365134771496e-11
2.220000000000000029e-01 -1.828197315756341368e-11
2.230000000000000038e-01 -2.366619955562754285e-10
2.240000000000000047e-01 1.678528982473892484e-10
2.250000000000000056e-01 8.842481608040131391e-11
2.260000000000000064e-01 3.213655730416320466e-11
2.270000000000000073e-01 8.989165661832387855e-11
2.280000000000000082e-01 -2.695936807128873625e-10
2.290000000000000091e-01 3.805873671769433031e-11
2.300000000000000100e-01 -1.083005039814732839e-11
2.310000000000000109e-01 9.587523136511677535e-11
2.320000000000000118e-01 1.711574770801860268e-10
2.330000000000000127e-01 -1.876838684466974883e-10
2.340000000000000135e-01 1.732078890037680452e-11
2.349999999999999867e-01 -1.719410169798152310e-10
2.359999999999999876e-01 1.205207184051815261e-10
2.369999999999999885e-01 1.228707552369812106e-10
2.379999999999999893e-01 -3.063295797578469148e-11
2.389999999999999902e-01 2.356731997055216965e-11
2.399999999999999911e-01 -2.462038628525675676e-10
2.409999999999999920e-01 1.257011578159605847e-10
2.419999999999999929e-01 -8.771721196620951844e-12
2.429999999999999938e-01 1.738906102444204294e-10
2.439999999999999947e-01 -5.726384991189270579e-11
2.449999999999999956e-01 -1.187367287824869777e-10
2.459999999999999964e-01 -4.095029003392536282e-12
2.469999999999999973e-01 -2.288938483197000551e-11
2.479999999999999982e-01 2.314107794276765162e-10
2.489999999999999991e-01 -8.833048875667159905e-11
2.500000000000000000e-01 5.622586077280722350e-11
2.510000000000000009e-01 -1.914273878300676301e-10
2.520000000000000018e-01 1.492857781837386710e-10
2.530000000000000027e-01 4.241805517946062309e-11
2.540000000000000036e-01 1.267827370865504122e-10
2.550000000000000044e-01 -8.908914578276139196e-11
2.560000000000000053e-01 -8.111623872597562013e-11
2.570000000000000062e-01 3.364114889436997657e-11
2.580000000000000071e-01 8.476531282441968074e-11
2.590000000000000080e-01 1.684803130341805399e-10
2.600000000000000089e-01 -8.134730389297573083e-11
2.610000000000000098e-01 4.397445602100091833e-11
2.620000000000000107e-01 -4.784827742354558211e-11
2.630000000000000115e-01 2.812587940326238822e-10
2.640000000000000124e-01 6.331540153281522976e-11
2.650000000000000133e-01 1.894802231783287993e-10
2.660000000000000142e-01 -9.115706800510992025e-11
2.670000000000000151e-01 2.528159070980251499e-10
2.680000000000000160e-01 1.632434465381749078e-10
2.690000000000000169e-01 3.981383001061544746e-10
2.700000000000000178e-01 9.564485314861315146e-11
2.710000000000000187e-01 3.295120010182728265e-10
2.720000000000000195e-01 2.554725320180750714e-10
2.730000000000000204e-01 6.320723944241990466e-10
2.740000000000000213e-01 4.692614075096912529e-10
2.750000000000000222e-01 6.565052945717297916e-10
2.760000000000000231e-01 5.117396506548743673e-10
2.770000000000000240e-01 9.028932046462045946e-10
2.780000000000000249e-01 9.114917709496239695e-10
2.790000000000000258e-01 1.215250788888511124e-09
2.800000000000000266e-01 1.048117481694532671e-09
2.810000000000000275e-01 1.413205774625225786e-09
2.819999999999999729e-01 1.512084679688996403e-09
2.829999999999999738e-01 2.020562384075219597e-09
2.839999999999999747e-01 1.993821552304098077e-09
2.849999999999999756e-01 2.383619968071570838e-09
2.859999999999999765e-01 2.506419516379310153e-09
2.869999999999999774e-01 3.175326002136102943e-09
2.879999999999999782e-01 3.403810122648565084e-09
2.889999999999999791e-01 3.948660509678347807e-09
2.899999999999999800e-01 4.124865782273445802e-09
2.909999999999999809e-01 4.893759619761794966e-09
2.919999999999999818e-01 5.391908253216115554e-09
2.929999999999999827e-01 6.130871366138990197e-09
2.939999999999999836e-01 6.532769880607247615e-09
2.949999999999999845e-01 7.333619045368777734e-09
2.959999999999999853e-01 8.134027673634136590e-09
2.969999999999999862e-01 9.100821429797179007e-09
2.979999999999999871e-01 9.906675479953719332e-09
2.989999999999999880e-01 1.076854339032706775e-08
2.999999999999999889e-01 1.184300391088299875e-08
3.009999999999999898e-01 1.294157936371220785e-08
3.019999999999999907e-01 1.420272610630490817e-08
3.029999999999999916e-01 1.512644409729091421e-08
3.039999999999999925e-01 1.645775427050466533e-08
3.049999999999999933e-01 1.761329038174608286e-08
3.059999999999999942e-01 1.914285086002109892e-08
3.069999999999999951e-01 2.019505984662828268e-08
3.079999999999999960e-01 2.161460521676872304e-08
3.089999999999999969e-01 2.286607703183562990e-08
3.099999999999999978e-01 2.446789082455325115e-08
3.109999999999999987e-01 2.575786517411415844e-08
3.119999999999999996e-01 2.699988321808177716e-08
3.130000000000000004e-01 2.824607392426514707e-08
3.140000000000000013e-01 2.946030619455086708e-08
3.150000000000000022e-01 3.078455534932800219e-08
3.160000000000000031e-01 3.166674389376566978e-08
3.170000000000000040e-01 3.264262105062698538e-08
3.180000000000000049e-01 3.330631415110474336e-08
3.190000000000000058e-01 3.425373762411254575e-08
3.200000000000000067e-01 3.466427500598001643e-08
3.210000000000000075e-01 3.504895218497949827e-08
3.220000000000000084e-01 3.500681700074892433e-08
3.230000000000000093e-01 3.498489320463704644e-08
3.240000000000000102e-01 3.471627252338294056e-08
3.250000000000000111e-01 3.396340630956729001e-08
3.260000000000000120e-01 3.301191853211093985e-08
3.270000000000000129e-01 3.167403761494824721e-08
3.280000000000000138e-01 3.044063490165171970e-08
3.290000000000000147e-01 2.847917457415860554e-08
3.300000000000000155e-01 2.631883688763991813e-08
3.310000000000000164e-01 2.369312390726463491e-08
3.320000000000000173e-01 2.089532991078613122e-08
3.330000000000000182e-01 1.787219439108866936e-08
3.340000000000000191e-01 1.424512507952613305e-08
3.350000000000000200e-01 1.051003462038124781e-08
3.360000000000000209e-01 6.265164831376068832e-09
3.370000000000000218e-01 2.135009724568703859e-09
3.380000000000000226e-01 -2.662446263457241002e-09
3.390000000000000235e-01 -7.567798832042171853e-09
3.400000000000000244e-01 -1.272550687048124018e-08
3.410000000000000253e-01 -1.793202386579650920e-08
3.420000000000000262e-01 -2.315062808122547722e-08
3.430000000000000271e-01 -2.886320338291170629e-08
3.439999999999999725e-01 -3.424895922421455907e-08
3.449999999999999734e-01 -3.984350627206367790e-08
3.459999999999999742e-01 -4.515894502787887177e-08
3.469999999999999751e-01 -5.064197239335044287e-08
3.479999999999999760e-01 -5.595318341988786415e-08
3.489999999999999769e-01 -6.078800396380756865e-08
3.499999999999999778e-01 -6.556955156611365965e-08
3.509999999999999787e-01 -6.994413581651315326e-08
3.519999999999999796e-01 -7.434743309886471252e-08
3.529999999999999805e-01 -7.805834201235484215e-08
3.539999999999999813e-01 -8.122439965063676937e-08
3.549999999999999822e-01 -8.418867736281754333e-08
3.559999999999999831e-01 -8.638889426038076635e-08
3.569999999999999840e-01 -8.840593324066503556e-08
3.579999999999999849e-01 -8.954118158044366282e-08
3.589999999999999858e-01 -9.027522196447534952e-08
3.599999999999999867e-01 -9.039560922019518330e-08
3.609999999999999876e-01 -9.007743528854916804e-08
3.619999999999999885e-01 -8.905161763550495380e-08
3.629999999999999893e-01 -8.715644383983089938e-08
3.639999999999999902e-01 -8.512849092312535504e-08
3.649999999999999911e-01 -8.248848359926341800e-08
3.659999999999999920e-01 -7.924668210534946411e-08
3.669999999999999929e-01 -7.543127367171109654e-08
3.679999999999999938e-01 -7.108027944013883825e-08
3.689999999999999947e-01 -6.673846542071260046e-08
3.699999999999999956e-01 -6.170733968247077428e-08
3.709999999999999964e-01 -5.640841393983464513e-08
3.719999999999999973e-01 -5.085202303689584369e-08
3.729999999999999982e-01 -4.500839523302602174e-08
3.739999999999999991e-01 -3.922661662159043772e-08
3.750000000000000000e-01 -3.302128348536825797e-08
3.760000000000000009e-01 -2.704384627350009396e-08
3.770000000000000018e-01 -2.104147434067726863e-08
3.780000000000000027e-01 -1.492719015061538812e-08
3.790000000000000036e-01 -9.283518842551075068e-09
3.800000000000000044e-01 -3.365844269964668456e-09
3.810000000000000053e-01 2.055278391921433467e-09
3.820000000000000062e-01 7.138696744846129150e-09
3.830000000000000071e-01 1.214020972639673346e-08
3.840000000000000080e-01 1.675635807885100803e-08
3.850000000000000089e-01 2.124881604004258406e-08
3.860000000000000098e-01 2.502761553557775187e-08
3.870000000000000107e-01 2.866692305758533621e-08
3.880000000000000115e-01 3.161262185358282295e-08
3.890000000000000124e-01 3.423941308255962213e-08
3.900000000000000133e-01 3.655608082908656797e-08
3.910000000000000142e-01 3.825343597441133170e-08
3.920000000000000151e-01 3.973404361090615566e-08
3.930000000000000160e-01 4.079429061221162556e-08
3.940000000000000169e-01 4.124195385202256148e-08
3.950000000000000178e-01 4.154487598384548619e-08
3.960000000000000187e-01 4.136365916451723024e-08
3.970000000000000195e-01 4.098765771232137922e-08
3.980000000000000204e-01 4.025959299269743497e-08
3.990000000000000213e-01 3.885159216565625684e-08
4.000000000000000222e-01 3.766571765595472243e-08
4.010000000000000231e-01 3.602997722396139579e-08
4.020000000000000240e-01 3.425247641075657157e-08
4.030000000000000249e-01 3.232662137975239602e-08
4.040000000000000258e-01 3.007997051440725045e-08
4.050000000000000266e-01 2.808554633304538584e-08
4.060000000000000275e-01 2.566055457009497331e-08
4.069999999999999729e-01 2.315720593060177634e-08
4.079999999999999738e-01 2.087053196930810373e-08
4.089999999999999747e-01 1.854755105057392939e-08
4.099999999999999756e-01 1.614126077242872270e-08
4.109999999999999765e-01 1.371826563456579606e-08
4.119999999999999774e-01 1.138833027880536974e-08
4.129999999999999782e-01 9.205559869940316275e-09
4.139999999999999791e-01 6.979737676715558337e-09
4.149999999999999800e-01 4.921564489279717236e-09
4.159999999999999809e-01 2.948314703488108535e-09
4.169999999999999818e-01 1.224004564370773096e-09
4.179999999999999827e-01 -5.580750306322102006e-10
4.189999999999999836e-01 -2.292132483816544664e-09
4.199999999999999845e-01 -3.966163397706168325e-09
4.209999999999999853e-01 -5.212880349603210561e-09
4.220000999999999891e-01 -6.747667757878161865e-09
4.229999999999999871e-01 -7.720342587447248661e-09
4.239999999999999880e-01 -9.022532054814291769e-09
4.249999999999999889e-01 -9.953843083110314183e-09
4.259999999999999898e-01 -1.069451016633138352e-08
4.269999999999999907e-01 -1.162318064018563746e-08
4.279999999999999916e-01 -1.210664013484574753e-08
4.289999999999999925e-01 -1.264714111215425874e-08
4.299999999999999933e-01 -1.324200749053261461e-08
4.309999999999999942e-01 -1.360579737763600860e-08
4.319999999999999951e-01 -1.399873017504660311e-08
4.329999999999999960e-01 -1.426399887094476071e-08
4.339999999999999969e-01 -1.440305030797617292e-08
4.349999999999999978e-01 -1.497667945216107910e-08
4.359999999999999987e-01 -1.502457358526498865e-08
4.369999999999999996e-01 -1.510555946993008547e-08
4.380000000000000004e-01 -1.515769731952332222e-08
4.390000000000000013e-01 -1.522734116576884844e-08
4.400000000000000022e-01 -1.547672745516592840e-08
4.410000000000000031e-01 -1.518765913033348625e-08
4.420000000000000040e-01 -1.527716442240034667e-08
4.430000000000000049e-01 -1.521870451881568442e-08
4.440000000000000058e-01 -1.511869918147112912e-08
4.450000000000000067e-01 -1.499430801743528718e-08
4.460000000000000075e-01 -1.496142054691063095e-08
4.470000000000000084e-01 -1.486294198826954016e-08
4.480000000000000093e-01 -1.504786517614320474e-08
4.490000000000000102e-01 -1.483024281156986035e-08
4.500000000000000111e-01 -1.462529120033195795e-08
4.510000000000000120e-01 -1.481407263526079987e-08
4.520000000000000129e-01 -1.465584276161280286e-08
4.530000000000000138e-01 -1.456735265747965968e-08
4.540000000000000147e-01 -1.466199517352606563e-08
4.550000000000000155e-01 -1.447590047831681659e-08
4.560000000000000164e-01 -1.470879862353058343e-08
4.570000000000000173e-01 -1.450697606486528457e-08
4.580000000000000182e-01 -1.442604435908378946e-08
4.590001000000000220e-01 -1.457230780488316668e-08
4.600000000000000200e-01 -1.448987152485869956e-08
4.610000000000000209e-01 -1.451453890410903114e-08
4.620000000000000218e-01 -1.457725318232405698e-08
4.630000000000000226e-01 -1.447327946380028152e-08
4.640000000000000235e-01 -1.473057498202479110e-08
4.650000000000000244e-01 -1.471421917642601329e-08
4.660000000000000253e-01 -1.448596975706095691e-08
4.670000000000000262e-01 -1.472019484083375573e-08
4.680000000000000271e-01 -1.474179267546560368e-08
4.689999999999999725e-01 -1.473223409931279093e-08
4.699999999999999734e-01 -1.481172517969753244e-08
4.709999999999999742e-01 -1.471116117812698576e-08
4.719999999999999751e-01 -1.481607103670512515e-08