-1.199999999999999956e-01 0.000000000000000000e+00
-1.189999999999999947e-01 0.000000000000000000e+00
-1.179999999999999938e-01 0.000000000000000000e+00
-1.170000000000000068e-01 0.000000000000000000e+00
-1.160000000000000059e-01 0.000000000000000000e+00
-1.150000000000000050e-01 0.000000000000000000e+00
-1.140000000000000041e-01 0.000000000000000000e+00
-1.130000000000000032e-01 0.000000000000000000e+00
-1.120000000000000023e-01 0.000000000000000000e+00
-1.110000000000000014e-01 0.000000000000000000e+00
-1.100000000000000006e-01 0.000000000000000000e+00
-1.089999999999999997e-01 0.000000000000000000e+00
-1.079999999999999988e-01 0.000000000000000000e+00
-1.069999999999999979e-01 0.000000000000000000e+00
-1.059999999999999970e-01 0.000000000000000000e+00
-1.049999999999999961e-01 0.000000000000000000e+00
-1.039999999999999952e-01 0.000000000000000000e+00
-1.029999999999999943e-01 0.000000000000000000e+00
-1.019999999999999934e-01 0.000000000000000000e+00
-1.010000000000000064e-01 0.000000000000000000e+00
-1.000000000000000056e-01 0.000000000000000000e+00
-9.900000999999999940e-02 0.000000000000000000e+00
-9.800000000000000377e-02 0.000000000000000000e+00
-9.700000000000000289e-02 0.000000000000000000e+00
-9.600000000000000200e-02 0.000000000000000000e+00
-9.500000999999999585e-02 0.000000000000000000e+00
-9.400000000000000022e-02 0.000000000000000000e+00
-9.299999999999999933e-02 0.000000000000000000e+00
-9.200000999999999318e-02 0.000000000000000000e+00
-9.100001000000000617e-02 0.000000000000000000e+00
-8.999999999999999667e-02 0.000000000000000000e+00
-8.899999999999999578e-02 0.000000000000000000e+00
-8.799999999999999489e-02 0.000000000000000000e+00
-8.699999999999999400e-02 0.000000000000000000e+00
-8.599999999999999312e-02 0.000000000000000000e+00
-8.500001000000000084e-02 0.000000000000000000e+00
-8.400000999999999995e-02 0.000000000000000000e+00
-8.300000000000000433e-02 0.000000000000000000e+00
-8.200000000000000344e-02 0.000000000000000000e+00
-8.100000000000000255e-02 0.000000000000000000e+00
-8.000000000000000167e-02 0.000000000000000000e+00
-7.900000000000000078e-02 0.000000000000000000e+00
-7.799999999999999989e-02 0.000000000000000000e+00
-7.700000999999999374e-02 0.000000000000000000e+00
-7.600001000000000673e-02 0.000000000000000000e+00
-7.499999999999999722e-02 0.000000000000000000e+00
-7.399999999999999634e-02 0.000000000000000000e+00
-7.299999999999999545e-02 0.000000000000000000e+00
-7.199999999999999456e-02 0.000000000000000000e+00
-7.099999999999999367e-02 0.000000000000000000e+00
-7.000001000000000140e-02 0.000000000000000000e+00
-6.900001000000000051e-02 0.000000000000000000e+00
-6.800000000000000488e-02 0.000000000000000000e+00
-6.700000000000000400e-02 0.000000000000000000e+00
-6.600000000000000311e-02 0.000000000000000000e+00
-6.500000000000000222e-02 0.000000000000000000e+00
-6.400000000000000133e-02 0.000000000000000000e+00
-6.300000000000000044e-02 0.000000000000000000e+00
-6.199999999999999956e-02 0.000000000000000000e+00
-6.099999999999999867e-02 0.000000000000000000e+00
-5.999999999999999778e-02 0.000000000000000000e+00
-5.899999999999999689e-02 0.000000000000000000e+00
-5.800000000000000294e-02 0.000000000000000000e+00
-5.700000000000000205e-02 0.000000000000000000e+00
-5.600000000000000117e-02 0.000000000000000000e+00
-5.500000000000000028e-02 0.000000000000000000e+00
-5.400001000000000106e-02 0.000000000000000000e+00
-5.299999999999999850e-02 0.000000000000000000e+00
-5.199999999999999761e-02 0.000000000000000000e+00
-5.099999999999999672e-02 0.000000000000000000e+00
-5.000000000000000278e-02 0.000000000000000000e+00
-4.900000000000000189e-02 0.000000000000000000e+00
-4.800000000000000100e-02 0.000000000000000000e+00
-4.700000000000000011e-02 0.000000000000000000e+00
-4.599999999999999922e-02 0.000000000000000000e+00
-4.499999999999999833e-02 0.000000000000000000e+00
-4.399999999999999745e-02 0.000000000000000000e+00
-4.299999999999999656e-02 0.000000000000000000e+00
-4.200000000000000261e-02 0.000000000000000000e+00
-4.100000000000000172e-02 0.000000000000000000e+00
-4.000000000000000083e-02 0.000000000000000000e+00
-3.899999999999999994e-02 0.000000000000000000e+00
-3.799999999999999906e-02 0.000000000000000000e+00
-3.699999999999999817e-02 0.000000000000000000e+00
-3.599999999999999728e-02 0.000000000000000000e+00
-3.500000000000000333e-02 0.000000000000000000e+00
-3.400000000000000244e-02 0.000000000000000000e+00
-3.300000000000000155e-02 0.000000000000000000e+00
-3.200000000000000067e-02 0.000000000000000000e+00
-3.099999999999999978e-02 0.000000000000000000e+00
-2.999999999999999889e-02 0.000000000000000000e+00
-2.900000000000000147e-02 0.000000000000000000e+00
-2.800000000000000058e-02 0.000000000000000000e+00
-2.699999999999999969e-02 0.000000000000000000e+00
-2.599999999999999881e-02 0.000000000000000000e+00
-2.500000000000000139e-02 0.000000000000000000e+00
-2.400000000000000050e-02 0.000000000000000000e+00
-2.299999999999999961e-02 0.000000000000000000e+00
-2.199999999999999872e-02 0.000000000000000000e+00
-2.100000000000000130e-02 0.000000000000000000e+00
-2.000000000000000042e-02 0.000000000000000000e+00
-1.899999999999999953e-02 0.000000000000000000e+00
-1.799999999999999864e-02 0.000000000000000000e+00
-1.700000000000000122e-02 0.000000000000000000e+00
-1.600000000000000033e-02 0.000000000000000000e+00
-1.499999999999999944e-02 0.000000000000000000e+00
-1.400000000000000029e-02 0.000000000000000000e+00
-1.299999999999999940e-02 0.000000000000000000e+00
-1.200000000000000025e-02 0.000000000000000000e+00
-1.099999999999999936e-02 0.000000000000000000e+00
-9.999997999999999526e-03 0.000000000000000000e+00
-8.999995999999999691e-03 0.000000000000000000e+00
-8.000000999999999640e-03 0.000000000000000000e+00
-6.999998999999999805e-03 0.000000000000000000e+00
-5.999996999999999969e-03 0.000000000000000000e+00
-5.000003000000000260e-03 0.000000000000000000e+00
-4.000001000000000424e-03 0.000000000000000000e+00
-2.999999000000000155e-03 0.000000000000000000e+00
-1.999996999999999886e-03 0.000000000000000000e+00
-1.000002000000000052e-03 0.000000000000000000e+00
0.000000000000000000e+00 0.000000000000000000e+00
1.000002000000000052e-03 0.000000000000000000e+00
2.000004000000000105e-03 0.000000000000000000e+00
2.999999000000000155e-03 0.000000000000000000e+00
4.000001000000000424e-03 0.000000000000000000e+00
4.999995000000000134e-03 0.000000000000000000e+00
5.999996999999999969e-03 0.000000000000000000e+00
6.999998999999999805e-03 0.000000000000000000e+00
8.000000999999999640e-03 0.000000000000000000e+00
9.000002999999999476e-03 0.000000000000000000e+00
1.000001000000000015e-02 0.000000000000000000e+00
1.100000999999999930e-02 0.000000000000000000e+00
1.199999000000000031e-02 0.000000000000000000e+00
1.299999999999999940e-02 0.000000000000000000e+00
1.400000000000000029e-02 0.000000000000000000e+00
1.499999999999999944e-02 0.000000000000000000e+00
1.600000000000000033e-02 0.000000000000000000e+00
1.700000000000000122e-02 0.000000000000000000e+00
1.800001000000000032e-02 0.000000000000000000e+00
1.900001000000000120e-02 0.000000000000000000e+00
2.000000000000000042e-02 0.000000000000000000e+00
2.100000000000000130e-02 0.000000000000000000e+00
2.199999999999999872e-02 0.000000000000000000e+00
2.299999999999999961e-02 0.000000000000000000e+00
2.400000000000000050e-02 0.000000000000000000e+00
2.500000999999999959e-02 0.000000000000000000e+00
2.600001000000000048e-02 0.000000000000000000e+00
2.699999999999999969e-02 0.000000000000000000e+00
2.800000000000000058e-02 0.000000000000000000e+00
2.900000000000000147e-02 0.000000000000000000e+00
2.999999999999999889e-02 0.000000000000000000e+00
3.099999999999999978e-02 0.000000000000000000e+00
3.200001000000000234e-02 0.000000000000000000e+00
3.300001000000000323e-02 0.000000000000000000e+00
3.400000999999999718e-02 0.000000000000000000e+00
3.500000000000000333e-02 0.000000000000000000e+00
3.599999999999999728e-02 0.000000000000000000e+00
3.699999999999999817e-02 0.000000000000000000e+00
3.799999999999999906e-02 0.000000000000000000e+00
3.899999999999999994e-02 0.000000000000000000e+00
4.000001000000000251e-02 0.000000000000000000e+00
4.100001000000000340e-02 0.000000000000000000e+00
4.200000000000000261e-02 0.000000000000000000e+00
4.299999999999999656e-02 0.000000000000000000e+00
4.399999999999999745e-02 0.000000000000000000e+00
4.499999999999999833e-02 0.000000000000000000e+00
4.599999999999999922e-02 0.000000000000000000e+00
4.700001000000000179e-02 0.000000000000000000e+00
4.800001000000000267e-02 0.000000000000000000e+00
4.900000999999999662e-02 0.000000000000000000e+00
5.000000000000000278e-02 0.000000000000000000e+00
5.099999999999999672e-02 0.000000000000000000e+00
5.199999999999999761e-02 0.000000000000000000e+00
5.299999999999999850e-02 0.000000000000000000e+00
5.400001000000000106e-02 0.000000000000000000e+00
5.500001000000000195e-02 0.000000000000000000e+00
5.600001000000000284e-02 0.000000000000000000e+00
5.700000000000000205e-02 0.000000000000000000e+00
5.800000000000000294e-02 0.000000000000000000e+00
5.899999999999999689e-02 0.000000000000000000e+00
5.999999999999999778e-02 0.000000000000000000e+00
6.099999999999999867e-02 0.000000000000000000e+00
6.200001000000000123e-02 0.000000000000000000e+00
6.300000999999999518e-02 0.000000000000000000e+00
6.400000999999999607e-02 0.000000000000000000e+00
6.500000000000000222e-02 0.000000000000000000e+00
6.600000000000000311e-02 0.000000000000000000e+00
6.700000000000000400e-02 0.000000000000000000e+00
6.800000000000000488e-02 0.000000000000000000e+00
6.900001000000000051e-02 0.000000000000000000e+00
7.000001000000000140e-02 0.000000000000000000e+00
7.100001000000000229e-02 0.000000000000000000e+00
7.199999999999999456e-02 0.000000000000000000e+00
7.299999999999999545e-02 0.000000000000000000e+00
7.399999999999999634e-02 0.000000000000000000e+00
7.499999999999999722e-02 0.000000000000000000e+00
7.600001000000000673e-02 0.000000000000000000e+00
7.700000999999999374e-02 0.000000000000000000e+00
7.800000999999999463e-02 0.000000000000000000e+00
7.900000999999999551e-02 0.000000000000000000e+00
8.000000000000000167e-02 0.000000000000000000e+00
8.100000000000000255e-02 0.000000000000000000e+00
8.200000000000000344e-02 0.000000000000000000e+00
8.300000000000000433e-02 0.000000000000000000e+00
8.400000999999999995e-02 0.000000000000000000e+00
8.500001000000000084e-02 0.000000000000000000e+00
8.600001000000000173e-02 0.000000000000000000e+00
8.700001000000000262e-02 0.000000000000000000e+00
8.799999999999999489e-02 0.000000000000000000e+00
8.899999999999999578e-02 0.000000000000000000e+00
8.999999999999999667e-02 0.000000000000000000e+00
9.100001000000000617e-02 0.000000000000000000e+00
9.200000999999999318e-02 0.000000000000000000e+00
9.300000999999999407e-02 0.000000000000000000e+00
9.400000999999999496e-02 0.000000000000000000e+00
9.500000000000000111e-02 0.000000000000000000e+00
9.600000000000000200e-02 0.000000000000000000e+00
9.700000000000000289e-02 0.000000000000000000e+00
9.800000000000000377e-02 0.000000000000000000e+00
9.900000999999999940e-02 0.000000000000000000e+00
1.000000000000000056e-01 0.000000000000000000e+00
1.010000000000000064e-01 0.000000000000000000e+00
1.019999999999999934e-01 0.000000000000000000e+00
1.029999999999999943e-01 0.000000000000000000e+00
1.039999999999999952e-01 0.000000000000000000e+00
1.049999999999999961e-01 0.000000000000000000e+00
1.059999999999999970e-01 0.000000000000000000e+00
1.069999999999999979e-01 0.000000000000000000e+00
1.079999999999999988e-01 0.000000000000000000e+00
1.089999999999999997e-01 0.000000000000000000e+00
1.100000000000000006e-01 0.000000000000000000e+00
1.110000000000000014e-01 0.000000000000000000e+00
1.120000000000000023e-01 0.000000000000000000e+00
1.130000000000000032e-01 0.000000000000000000e+00
1.140000000000000041e-01 0.000000000000000000e+00
1.150000000000000050e-01 0.000000000000000000e+00
1.160000000000000059e-01 0.000000000000000000e+00
1.170000000000000068e-01 0.000000000000000000e+00
1.179999999999999938e-01 0.000000000000000000e+00
1.189999999999999947e-01 0.000000000000000000e+00
1.199999999999999956e-01 0.000000000000000000e+00
1.209999999999999964e-01 0.000000000000000000e+00
1.219999999999999973e-01 0.000000000000000000e+00
1.229999999999999982e-01 0.000000000000000000e+00
1.239999999999999991e-01 0.000000000000000000e+00
1.250000000000000000e-01 0.000000000000000000e+00
1.260000000000000009e-01 0.000000000000000000e+00
1.270000000000000018e-01 0.000000000000000000e+00
1.280000000000000027e-01 0.000000000000000000e+00
1.290000000000000036e-01 0.000000000000000000e+00
1.300000000000000044e-01 0.000000000000000000e+00
1.310000000000000053e-01 0.000000000000000000e+00
1.320000000000000062e-01 0.000000000000000000e+00
1.330000000000000071e-01 0.000000000000000000e+00
1.340000000000000080e-01 0.000000000000000000e+00
1.350000000000000089e-01 0.000000000000000000e+00
1.360000000000000098e-01 0.000000000000000000e+00
1.370000000000000107e-01 -0.000000000000000000e+00
1.380000000000000115e-01 -8.407790785948902426e-45
1.390000000000000124e-01 -6.992479336980837184e-43
1.400000000000000133e-01 -3.689618856567243348e-41
1.409999999999999865e-01 -1.467132867477261302e-39
1.419999999999999873e-01 -4.196448052155950540e-38
1.429999999999999882e-01 -4.895465107919052101e-37
1.439999999999999891e-01 3.409995465308960546e-35
1.449999999999999900e-01 2.961925074519580815e-33
1.459999999999999909e-01 1.362843347412557786e-31
1.469999999999999918e-01 4.293113008525123228e-30
1.479999999999999927e-01 8.884244416644727332e-29
1.489999999999999936e-01 7.431765469374341096e-28
1.499999999999999944e-01 -2.158958069119962782e-26
1.509999999999999953e-01 -9.335924266410056203e-25
1.519999999999999962e-01 -1.459040369378600136e-23
1.529999999999999971e-01 -1.347225646950763481e-23
1.539999999999999980e-01 3.394614736288729016e-21
1.549999999999999989e-01 4.899732949506541378e-20
1.559999999999999998e-01 -3.234545998133698278e-20
1.570000000000000007e-01 -6.988015197403077373e-18
1.580000000000000016e-01 -4.299848274939678332e-17
1.590000000000000024e-01 4.108769950486622965e-16
1.600000000000000033e-01 4.534195318739529107e-15
1.610000000000000042e-01 -1.240743093797224209e-14
1.620000000000000051e-01 -2.184199950896678621e-13
1.630000000000000060e-01 2.758470535324519801e-13
1.640000000000000069e-01 5.706721987325247269e-12
1.650000000000000078e-01 -7.215233618906857771e-12
1.660000000000000087e-01 -7.613278757423458387e-11
1.670000000000000095e-01 1.320296511009289020e-10
1.680000000000000104e-01 3.953636029674356678e-10
1.690000000000000113e-01 -8.861303357754479748e-10
1.700000000000000122e-01 -2.448421188017135819e-10
1.710000000000000131e-01 8.936885120824911155e-10
1.719999999999999862e-01 -1.491261003572219579e-10
1.729999999999999871e-01 8.151482822071898227e-10
1.739999999999999880e-01 -4.221809013493782459e-10
1.749999999999999889e-01 2.092375162021653523e-10
1.759999999999999898e-01 -2.524964126671136455e-10
1.769999999999999907e-01 -5.497756694339273054e-10
1.779999999999999916e-01 2.808313304125675813e-10
1.789999999999999925e-01 -8.778203719472799094e-10
1.799999999999999933e-01 1.082861317974748161e-11
1.809999999999999942e-01 -4.341007414643272000e-11
1.819999999999999951e-01 -8.235250814614403225e-10
1.829999999999999960e-01 1.556807877056698430e-10
1.839999999999999969e-01 -1.039569333394219086e-10
1.849999999999999978e-01 -7.654691325242879429e-10
1.859999999999999987e-01 9.265169881311763334e-11
1.869999999999999996e-01 7.570521293187582046e-11
1.880000000000000004e-01 -6.568084409686036906e-10
1.890000000000000013e-01 -6.028352816933590930e-11
1.900000000000000022e-01 3.867685893776950934e-10
1.910000000000000031e-01 -2.797086173789153918e-10
1.920000000000000040e-01 -2.066353893548367182e-10
1.930000000000000049e-01 5.405472180974868479e-10
1.940000000000000058e-01 2.816382960180163764e-10
1.950000000000000067e-01 -2.539086441100124603e-10
1.960000000000000075e-01 1.826223755552192074e-10
1.970000000000000084e-01 5.140436964978789547e-10
1.980000000000000093e-01 1.469450082447476547e-11
1.990000000000000102e-01 5.735219590907725262e-11
2.000000000000000111e-01 1.139228711366513380e-09
2.010000000000000120e-01 1.811107930294042490e-09
2.020000000000000129e-01 1.352259304532310580e-09
2.030000000000000138e-01 4.158272337573265531e-10
2.039999999999999869e-01 -4.689217347753071863e-10
2.049999999999999878e-01 -5.050760365499229465e-10
2.059999999999999887e-01 9.538740908254794704e-10
2.069999999999999896e-01 1.713887920473666782e-09
2.079999999999999905e-01 1.630179151390631631e-11
2.089999999999999913e-01 -2.214699534874853271e-10
2.099999999999999922e-01 1.539297578290188540e-09
2.109999999999999931e-01 -2.674898358367983064e-10
2.119999999999999940e-01 -4.305264200699099320e-10
2.129999999999999949e-01 1.819519646062417451e-09
2.139999999999999958e-01 -1.682400774249970254e-09
2.149999999999999967e-01 5.409058756455920047e-10
2.159999999999999976e-01 -2.119586244801047181e-13
2.169999999999999984e-01 -9.861400585009505448e-10
2.179999999999999993e-01 3.235695600345422918e-10
2.190000000000000002e-01 -1.633064461437072623e-09
2.200000000000000011e-01 1.505555125014268469e-09
2.210000000000000020e-01 -6.528426133023401690e-10
2.220000000000000029e-01 6.039439504057497743e-10
2.230000000000000038e-01 1.116780112830895177e-09
2.240000000000000047e-01 -1.774149605004993191e-09
2.250000000000000056e-01 3.330139497492723422e-09
2.260000000000000064e-01 -3.229349676558967985e-09
2.270000000000000073e-01 -1.273593341899470488e-09
2.280000000000000082e-01 4.727830127393417570e-09
2.290000000000000091e-01 -2.787538866400041115e-09
2.300000000000000100e-01 -5.696255911402658967e-09
2.310000000000000109e-01 4.929582964052769967e-09
2.320000000000000118e-01 1.180929753985537900e-08
2.330000000000000127e-01 2.275230892578861130e-09
2.340000000000000135e-01 -2.054332348677689879e-08
2.349999999999999867e-01 -4.940872244674210378e-08
2.359999999999999876e-01 -8.152185415610802011e-08
2.369999999999999885e-01 -1.179867297196324216e-07
2.379999999999999893e-01 -1.605519486247430905e-07
2.389999999999999902e-01 -2.108228756014796090e-07
2.399999999999999911e-01 -2.711882416406297125e-07
2.409999999999999920e-01 -3.448087966262392001e-07
2.419999999999999929e-01 -4.345192508026229916e-07
2.429999999999999938e-01 -5.430963483377126977e-07
2.439999999999999947e-01 -6.744073743902845308e-07
2.449999999999999956e-01 -8.335030656780872960e-07
2.459999999999999964e-01 -1.026044515128887724e-06
2.469999999999999973e-01 -1.258107545254461002e-06
2.479999999999999982e-01 -1.537654611638572533e-06
2.489999999999999991e-01 -1.874259396572597325e-06
2.500000000000000000e-01 -2.278371084685204551e-06
2.510000000000000009e-01 -2.761538098638993688e-06
2.520000000000000018e-01 -3.337928546898183413e-06
2.530000000000000027e-01 -4.025151156383799389e-06
2.540000000000000036e-01 -4.842812813876662403e-06
2.550000000000000044e-01 -5.812980361952213570e-06
2.560000000000000053e-01 -6.961111921555129811e-06
2.570000000000000062e-01 -8.317080755659844726e-06
2.580000000000000071e-01 -9.914870133798103780e-06
2.590000000000000080e-01 -1.179297851194860414e-05
2.600000000000000089e-01 -1.399564735038438812e-05
2.610000000000000098e-01 -1.657342363614588976e-05
2.620000000000000107e-01 -1.958314715011510998e-05
2.630000000000000115e-01 -2.308838884346187115e-05
2.640000000000000124e-01 -2.716069502639584243e-05
2.650000000000000133e-01 -3.188135451637208462e-05
2.660000000000000142e-01 -3.734078200068324804e-05
2.670000000000000151e-01 -4.363909101812168956e-05
2.680000000000000160e-01 -5.088742182124406099e-05
2.690000000000000169e-01 -5.920932744629681110e-05
2.700000000000000178e-01 -6.874077371321618557e-05
2.710000000000000187e-01 -7.963029202073812485e-05
2.720000000000000195e-01 -9.204055095324292779e-05
2.730000000000000204e-01 -1.061493021552450955e-04
2.740000000000000213e-01 -1.221493876073509455e-04
2.750000000000000222e-01 -1.402482157573103905e-04
2.760000000000000231e-01 -1.606689038453623652e-04
2.770000000000000240e-01 -1.836505689425393939e-04
2.780000000000000249e-01 -2.094481169478967786e-04
2.790000000000000258e-01 -2.383311075391247869e-04
2.800000000000000266e-01 -2.705835795495659113e-04
2.810000000000000275e-01 -3.065037308260798454e-04
2.819999999999999729e-01 -3.464014735072851181e-04
2.829999999999999738e-01 -3.905969788320362568e-04
2.839999999999999747e-01 -4.394191491883248091e-04
2.849999999999999756e-01 -4.932033480145037174e-04
2.859999999999999765e-01 -5.522884312085807323e-04
2.869999999999999774e-01 -6.170116248540580273e-04
2.879999999999999782e-01 -6.877059931866824627e-04
2.889999999999999791e-01 -7.646964513696730137e-04
2.899999999999999800e-01 -8.482948760502040386e-04
2.909999999999999809e-01 -9.387935861013829708e-04
2.919999999999999818e-01 -1.036459580063819885e-03
2.929999999999999827e-01 -1.141528598964214325e-03
2.939999999999999836e-01 -1.254199189133942127e-03
2.949999999999999845e-01 -1.374624203890562057e-03
2.959999999999999853e-01 -1.502903876826167107e-03
2.969999999999999862e-01 -1.639078836888074875e-03
2.979999999999999871e-01 -1.783121493645012379e-03
2.989999999999999880e-01 -1.934928121045231819e-03
2.999999999999999889e-01 -2.094311639666557312e-03
3.009999999999999898e-01 -2.260994631797075272e-03
3.019999999999999907e-01 -2.434602472931146622e-03
3.029999999999999916e-01 -2.614654367789626122e-03
3.039999999999999925e-01 -2.800559857860207558e-03
3.049999999999999933e-01 -2.991613000631332397e-03
3.059999999999999942e-01 -3.186989109963178635e-03
3.069999999999999951e-01 -3.385740797966718674e-03
3.079999999999999960e-01 -3.586796345189213753e-03
3.089999999999999969e-01 -3.788960864767432213e-03
3.099999999999999978e-01 -3.990917466580867767e-03
3.109999999999999987e-01 -4.191230516880750656e-03
3.119999999999999996e-01 -4.388350062072277069e-03
3.130000000000000004e-01 -4.580623004585504532e-03
3.140000000000000013e-01 -4.766297060996294022e-03
3.150000000000000022e-01 -4.943534731864929199e-03
3.160000000000000031e-01 -5.110428202897310257e-03
3.170000000000000040e-01 -5.265012849122285843e-03
3.180000000000000049e-01 -5.405285861343145370e-03
3.190000000000000058e-01 -5.529226735234260559e-03
3.200000000000000067e-01 -5.634814035147428513e-03
3.210000000000000075e-01 -5.720053799450397491e-03
3.220000000000000084e-01 -5.782998632639646530e-03
3.230000000000000093e-01 -5.821777042001485825e-03
3.240000000000000102e-01 -5.834614392369985580e-03
3.250000000000000111e-01 -5.819861777126789093e-03
3.260000000000000120e-01 -5.776023026555776596e-03
3.270000000000000129e-01 -5.701776128262281418e-03
3.280000000000000138e-01 -5.596002563834190369e-03
3.290000000000000147e-01 -5.457807332277297974e-03
3.300000000000000155e-01 -5.286541767418384552e-03
3.310000000000000164e-01 -5.081822630017995834e-03
3.320000000000000173e-01 -4.843551199883222580e-03
3.330000000000000182e-01 -4.571925848722457886e-03
3.340000000000000191e-01 -4.267452284693717957e-03
3.350000000000000200e-01 -3.930953796952962875e-03
3.360000000000000209e-01 -3.563571721315383911e-03
3.370000000000000218e-01 -3.166767535731196404e-03
3.380000000000000226e-01 -2.742317738011479378e-03
3.390000000000000235e-01 -2.292304998263716698e-03
3.400000000000000244e-01 -1.819103024899959564e-03
3.410000000000000253e-01 -1.325363060459494591e-03
3.420000000000000262e-01 -8.139912388287484646e-04
3.430000000000000271e-01 -2.881219552364200354e-04
3.439999999999999725e-01 2.489096077624708414e-04
3.449999999999999734e-01 7.935998146422207355e-04
3.459999999999999742e-01 1.342310686595737934e-03
3.469999999999999751e-01 1.891309046186506748e-03
3.479999999999999760e-01 2.436803886666893959e-03
3.489999999999999769e-01 2.974987961351871490e-03
3.499999999999999778e-01 3.502078354358673096e-03
3.509999999999999787e-01 4.014357458800077438e-03
3.519999999999999796e-01 4.508215468376874924e-03
3.529999999999999805e-01 4.980189725756645203e-03
3.539999999999999813e-01 5.427002441138029099e-03
3.549999999999999822e-01 5.845595616847276688e-03
3.559999999999999831e-01 6.233165506273508072e-03
3.569999999999999840e-01 6.587192416191101074e-03
3.579999999999999849e-01 6.905466783791780472e-03
3.589999999999999858e-01 7.186111528426408768e-03
3.599999999999999867e-01 7.427597884088754654e-03
3.609999999999999876e-01 7.628760766237974167e-03
3.619999999999999885e-01 7.788807153701782227e-03
3.629999999999999893e-01 7.907317019999027252e-03
3.639999999999999902e-01 7.984244264662265778e-03
3.649999999999999911e-01 8.019911125302314758e-03
3.659999999999999920e-01 8.014992810785770416e-03
3.669999999999999929e-01 7.970510050654411316e-03
3.679999999999999938e-01 7.887804880738258362e-03
3.689999999999999947e-01 7.768519688397645950e-03
3.699999999999999956e-01 7.614570669829845428e-03
3.709999999999999964e-01 7.428120356053113937e-03
3.719999999999999973e-01 7.211546413600444794e-03
3.729999999999999982e-01 6.967409513890743256e-03
3.739999999999999991e-01 6.698418874293565750e-03
3.750000000000000000e-01 6.407397333532571793e-03
3.760000000000000009e-01 6.097249221056699753e-03
3.770000000000000018e-01 5.770922638475894928e-03
3.780000000000000027e-01 5.431381519883871078e-03
3.790000000000000036e-01 5.081566516309976578e-03
3.800000000000000044e-01 4.724370315670967102e-03
3.810000000000000053e-01 4.362605977803468704e-03
3.820000000000000062e-01 3.998983185738325119e-03
3.830000000000000071e-01 3.636084031313657761e-03
3.840000000000000080e-01 3.276342060416936874e-03
3.850000000000000089e-01 2.922023879364132881e-03
3.860000000000000098e-01 2.575217746198177338e-03
3.870000000000000107e-01 2.237819368019700050e-03
3.880000000000000115e-01 1.911525265313684940e-03
3.890000000000000124e-01 1.597825554199516773e-03
3.900000000000000133e-01 1.298003247939050198e-03
3.910000000000000142e-01 1.013134024105966091e-03
3.920000000000000151e-01 7.440888439305126667e-04
3.930000000000000160e-01 4.915395984426140785e-04
3.940000000000000169e-01 2.559661515988409519e-04
3.950000000000000178e-01 3.766572626773267984e-05
3.960000000000000187e-01 -1.632366183912381530e-04
3.970000000000000195e-01 -3.467761271167546511e-04
3.980000000000000204e-01 -5.131346988491714001e-04
3.990000000000000213e-01 -6.626269314438104630e-04
4.000000000000000222e-01 -7.956870249472558498e-04
4.010000000000000231e-01 -9.128527599386870861e-04
4.020000000000000240e-01 -1.014751265756785870e-03
4.030000000000000249e-01 -1.102084643207490444e-03
4.040000000000000258e-01 -1.175615936517715454e-03
4.050000000000000266e-01 -1.236156094819307327e-03
4.060000000000000275e-01 -1.284549478441476822e-03
4.069999999999999729e-01 -1.321663265116512775e-03
4.079999999999999738e-01 -1.348376041278243065e-03
4.089999999999999747e-01 -1.365566626191139221e-03
4.099999999999999756e-01 -1.374105806462466717e-03
4.109999999999999765e-01 -1.374847721308469772e-03
4.119999999999999774e-01 -1.368623343296349049e-03
4.129999999999999782e-01 -1.356233377009630203e-03
4.139999999999999791e-01 -1.338443602435290813e-03
4.149999999999999800e-01 -1.315980684012174606e-03
4.159999999999999809e-01 -1.289529958739876747e-03
4.169999999999999818e-01 -1.259732409380376339e-03
4.179999999999999827e-01 -1.227181404829025269e-03
4.189999999999999836e-01 -1.192425028420984745e-03
4.199999999999999845e-01 -1.155964448116719723e-03
4.209999999999999853e-01 -1.118254032917320728e-03
4.220000999999999891e-01 -1.079702633433043957e-03
4.229999999999999871e-01 -1.040675910189747810e-03
4.239999999999999880e-01 -1.001497148536145687e-03
4.249999999999999889e-01 -9.624482481740415096e-04
4.259999999999999898e-01 -9.237746708095073700e-04
4.269999999999999907e-01 -8.856859058141708374e-04
4.279999999999999916e-01 -8.483584388159215450e-04
4.289999999999999925e-01 -8.119384292513132095e-04
4.299999999999999933e-01 -7.765442715026438236e-04
4.309999999999999942e-01 -7.422695052810013294e-04
4.319999999999999951e-01 -7.091854349710047245e-04
4.329999999999999960e-01 -6.773422937840223312e-04
4.339999999999999969e-01 -6.467729108408093452e-04
4.349999999999999978e-01 -6.174950394779443741e-04
4.359999999999999987e-01 -5.895131616853177547e-04
4.369999999999999996e-01 -5.628193030133843422e-04
4.380000000000000004e-01 -5.373961175791919231e-04
4.390000000000000013e-01 -5.132184014655649662e-04
4.400000000000000022e-01 -4.902548389509320259e-04
4.410000000000000031e-01 -4.684681771323084831e-04
4.420000000000000040e-01 -4.478167684283107519e-04
4.430000000000000049e-01 -4.282568697817623615e-04
4.440000000000000058e-01 -4.097421478945761919e-04
4.450000000000000067e-01 -3.922257164958864450e-04
4.460000000000000075e-01 -3.756587684620171785e-04
4.470000000000000084e-01 -3.599933697842061520e-04
4.480000000000000093e-01 -3.451823140494525433e-04
4.490000000000000102e-01 -3.311788896098732948e-04
4.500000000000000111e-01 -3.179375489708036184e-04
4.510000000000000120e-01 -3.054139378946274519e-04
4.520000000000000129e-01 -2.935661177616566420e-04
4.530000000000000138e-01 -2.823538379743695259e-04
4.540000000000000147e-01 -2.717374591156840324e-04
4.550000000000000155e-01 -2.616812125779688358e-04
4.560000000000000164e-01 -2.521492424421012402e-04
4.570000000000000173e-01 -2.431109314784407616e-04
4.580000000000000182e-01 -2.345307148061692715e-04
4.590001000000000220e-01 -2.263872156618162990e-04
4.600000000000000200e-01 -2.186424098908901215e-04
4.610000000000000209e-01 -2.112851361744105816e-04
4.620000000000000218e-01 -2.042744308710098267e-04
4.630000000000000226e-01 -1.976064377231523395e-04
4.640000000000000235e-01 -1.912440784508362412e-04
4.650000000000000244e-01 -1.851795968832448125e-04
4.660000000000000253e-01 -1.793906412785872817e-04
4.670000000000000262e-01 -1.738580031087622046e-04
4.680000000000000271e-01 -1.685730239842087030e-04
4.689999999999999725e-01 -1.635157968848943710e-04
4.699999999999999734e-01 -1.586716680321842432e-04
4.709999999999999742e-01 -1.540382654638960958e-04