-1.200000e-01 0.000000e+00
-1.190000e-01 0.000000e+00
-1.180000e-01 0.000000e+00
-1.170000e-01 0.000000e+00
-1.160000e-01 0.000000e+00
-1.150000e-01 0.000000e+00
-1.140000e-01 0.000000e+00
-1.130000e-01 0.000000e+00
-1.120000e-01 0.000000e+00
-1.110000e-01 0.000000e+00
-1.100000e-01 0.000000e+00
-1.090000e-01 0.000000e+00
-1.080000e-01 0.000000e+00
-1.070000e-01 0.000000e+00
-1.060000e-01 0.000000e+00
-1.050000e-01 0.000000e+00
-1.040000e-01 0.000000e+00
-1.030000e-01 0.000000e+00
-1.020000e-01 0.000000e+00
-1.010000e-01 0.000000e+00
-1.000000e-01 0.000000e+00
-9.900001e-02 0.000000e+00
-9.800000e-02 0.000000e+00
-9.700000e-02 0.000000e+00
-9.600000e-02 0.000000e+00
-9.500001e-02 0.000000e+00
-9.400000e-02 0.000000e+00
-9.300000e-02 4.203895e-45
-9.200001e-02 1.121039e-44
-9.100001e-02 -2.522337e-44
-9.000000e-02 -2.578389e-43
-8.900000e-02 -4.876519e-43
-8.800000e-02 1.583467e-42
-8.700000e-02 1.038642e-41
-8.600000e-02 1.538626e-41
-8.500001e-02 -5.410974e-41
-8.400001e-02 -3.011895e-40
-8.300000e-02 -4.249396e-40
-8.200000e-02 1.195372e-39
-8.100000e-02 6.688810e-39
-8.000000e-02 1.030419e-38
-7.900000e-02 -1.745842e-38
-7.800000e-02 -1.167501e-37
-7.700001e-02 -2.096526e-37
-7.600001e-02 1.419715e-37
-7.500000e-02 1.609432e-36
-7.400000e-02 3.478124e-36
-7.300000e-02 3.942713e-37
-7.200000e-02 -1.726423e-35
-7.100000e-02 -4.657097e-35
-7.000001e-02 -3.399142e-35
-6.900001e-02 1.365345e-34
-6.800000e-02 5.007335e-34
-6.700000e-02 6.305807e-34
-6.600000e-02 -6.420085e-34
-6.500000e-02 -4.268801e-33
-6.400000e-02 -7.692194e-33
-6.300000e-02 -1.176623e-33
-6.200000e-02 2.772856e-32
-6.100000e-02 7.038067e-32
-6.000000e-02 6.066322e-32
-5.900000e-02 -1.192512e-31
-5.800000e-02 -4.974179e-31
-5.700000e-02 -7.233740e-31
-5.600000e-02 7.683097e-32
-5.500000e-02 2.648920e-30
-5.400001e-02 5.735670e-30
-5.300000e-02 4.172027e-30
-5.200000e-02 -9.228688e-30
-5.100000e-02 -3.375987e-29
-5.000000e-02 -4.573359e-29
-4.900000e-02 3.261677e-30
-4.800000e-02 1.452926e-28
-4.700000e-02 3.058267e-28
-4.600000e-02 2.353740e-28
-4.500000e-02 -3.756041e-28
-4.400000e-02 -1.470993e-27
-4.300000e-02 -2.077725e-27
-4.200000e-02 -3.413553e-28
-4.100000e-02 4.928462e-27
-4.000000e-02 1.124351e-26
-3.900000e-02 1.042060e-26
-3.800000e-02 -7.698611e-27
-3.700000e-02 -4.274344e-26
-3.600000e-02 -6.837951e-26
-3.500000e-02 -3.280193e-26
-3.400000e-02 1.025872e-25
-3.300000e-02 2.886841e-25
-3.200000e-02 3.357289e-25
-3.100000e-02 -1.387715e-26
-3.000000e-02 -8.211603e-25
-2.900000e-02 -1.608484e-24
-2.800000e-02 -1.304959e-24
-2.700000e-02 1.086548e-24
-2.600000e-02 5.094356e-24
-2.500000e-02 7.596595e-24
-2.400000e-02 3.629189e-24
-2.300000e-02 -9.532243e-24
-2.200000e-02 -2.641241e-23
-2.100000e-02 -3.079545e-23
-2.000000e-02 -3.475601e-24
-1.900000e-02 5.799977e-23
-1.800000e-02 1.185550e-22
-1.700000e-02 1.073058e-22
-1.600000e-02 -3.730483e-23
-1.500000e-02 -2.877474e-22
-1.400000e-02 -4.702999e-22
-1.300000e-02 -3.170938e-22
-1.200000e-02 3.276122e-22
-1.100000e-02 1.232084e-21
-9.999998e-03 1.671498e-21
-8.999996e-03 7.587633e-22
-8.000001e-03 -1.759438e-21
-6.999999e-03 -4.685541e-21
-5.999997e-03 -5.374850e-21
-5.000003e-03 -1.239861e-21
-4.000001e-03 7.569774e-21
-2.999999e-03 1.610595e-20
-1.999997e-03 1.575302e-20
-1.000002e-03 -1.125741e-22
0.000000e+00 -2.811451e-20
1.000002e-03 -5.064869e-20
2.000004e-03 -4.232482e-20
2.999999e-03 1.148010e-20
4.000001e-03 9.318343e-20
4.999995e-03 1.470291e-19
5.999997e-03 1.047182e-19
6.999999e-03 -6.021094e-20
8.000001e-03 -2.807604e-19
9.000003e-03 -3.967462e-19
1.000001e-02 -2.394109e-19
1.100001e-02 2.238907e-19
1.199999e-02 7.780781e-19
1.300000e-02 1.000640e-18
1.400000e-02 5.069156e-19
1.500000e-02 -6.969667e-19
1.600000e-02 -1.999550e-18
1.700000e-02 -2.368944e-18
1.800001e-02 -9.943834e-19
1.900001e-02 1.919079e-18
2.000000e-02 4.793673e-18
2.100000e-02 5.281225e-18
2.200000e-02 1.801242e-18
2.300000e-02 -4.799683e-18
2.400000e-02 -1.077166e-17
2.500001e-02 -1.111170e-17
2.600001e-02 -2.979064e-18
2.700000e-02 1.108203e-17
2.800000e-02 2.277935e-17
2.900000e-02 2.209435e-17
3.000000e-02 4.360721e-18
3.100000e-02 -2.390795e-17
3.200001e-02 -4.551683e-17
3.300001e-02 -4.154907e-17
3.400001e-02 -5.143320e-18
3.500000e-02 4.870139e-17
3.600000e-02 8.632229e-17
3.700000e-02 7.394055e-17
3.800000e-02 2.984124e-18
3.900000e-02 -9.462122e-17
4.000001e-02 -1.562495e-16
4.100001e-02 -1.246806e-16
4.200000e-02 7.710845e-18
4.300000e-02 1.770404e-16
4.400000e-02 2.718540e-16
4.500000e-02 1.998484e-16
4.600000e-02 -3.850830e-17
4.700001e-02 -3.216325e-16
4.800001e-02 -4.584879e-16
4.900001e-02 -3.065617e-16
5.000000e-02 1.103210e-16
5.100000e-02 5.702910e-16
5.200000e-02 7.559297e-16
5.300000e-02 4.552547e-16
5.400001e-02 -2.560632e-16
5.500001e-02 -9.877912e-16
5.600001e-02 -1.225962e-15
5.700000e-02 -6.645349e-16
5.800000e-02 5.206598e-16
5.900000e-02 1.666141e-15
6.000000e-02 1.958364e-15
6.100000e-02 9.658960e-16
6.200001e-02 -9.586974e-16
6.300001e-02 -2.723204e-15
6.400001e-02 -3.068165e-15
6.500000e-02 -1.399107e-15
6.600000e-02 1.637570e-15
6.700000e-02 4.298188e-15
6.800000e-02 4.678604e-15
6.900001e-02 1.984361e-15
7.000001e-02 -2.665229e-15
7.100001e-02 -6.562160e-15
7.200000e-02 -6.899614e-15
7.300000e-02 -2.666514e-15
7.400000e-02 4.263956e-15
7.500000e-02 9.778563e-15
7.600001e-02 9.841442e-15
7.700001e-02 3.262471e-15
7.800001e-02 -6.881919e-15
7.900001e-02 -1.443848e-14
8.000000e-02 -1.372209e-14
8.100000e-02 -3.492720e-15
8.200000e-02 1.126260e-14
8.300000e-02 2.142184e-14
8.400001e-02 1.907797e-14
8.500001e-02 3.178300e-15
8.600001e-02 -1.832732e-14
8.700001e-02 -3.201028e-14
8.800000e-02 -2.692887e-14
8.900000e-02 -2.540923e-15
9.000000e-02 2.879998e-14
9.100001e-02 4.753520e-14
9.200001e-02 3.856994e-14
9.300001e-02 2.252105e-15
9.400001e-02 -4.283581e-14
9.500000e-02 -6.871072e-14
9.600000e-02 -5.475325e-14
9.700000e-02 -2.713501e-15
9.800000e-02 6.034749e-14
9.900001e-02 9.532930e-14
1.000000e-01 7.468463e-14
1.010000e-01 2.532290e-15
1.020000e-01 -8.263225e-14
1.030000e-01 -1.274320e-13
1.040000e-01 -9.621823e-14
1.050000e-01 2.541478e-15
1.060000e-01 1.145928e-13
1.070000e-01 1.681816e-13
1.080000e-01 1.185743e-13
1.090000e-01 -1.794481e-14
1.100000e-01 -1.648324e-13
1.110000e-01 -2.260302e-13
1.120000e-01 -1.463324e-13
1.130000e-01 4.530515e-14
1.140000e-01 2.409244e-13
1.150000e-01 3.117114e-13
1.160000e-01 1.894200e-13
1.170000e-01 -7.876805e-14
1.180000e-01 -3.423008e-13
1.190000e-01 -4.290123e-13
1.200000e-01 -2.540298e-13
1.210000e-01 1.111953e-13
1.220000e-01 4.610542e-13
1.230000e-01 5.687011e-13
1.240000e-01 3.298861e-13
1.250000e-01 -1.513563e-13
1.260000e-01 -5.996212e-13
1.270000e-01 -7.217239e-13
1.280000e-01 -3.941500e-13
1.290000e-01 2.325885e-13
1.300000e-01 7.925130e-13
1.310000e-01 9.110030e-13
1.320000e-01 4.467816e-13
1.330000e-01 -3.829358e-13
1.340000e-01 -1.091764e-12
1.350000e-01 -1.200261e-12
1.360000e-01 -5.464005e-13
1.370000e-01 5.652115e-13
1.380000e-01 1.493532e-12
1.390000e-01 1.624635e-12
1.400000e-01 7.662232e-13
1.410000e-01 -6.757183e-13
1.420000e-01 -1.879083e-12
1.430000e-01 -2.075112e-12
1.440000e-01 -1.040328e-12
1.450000e-01 7.011335e-13
1.460000e-01 2.128933e-12
1.470000e-01 2.323991e-12
1.480000e-01 1.068347e-12
1.490000e-01 -9.392543e-13
1.500000e-01 -2.437400e-12
1.510000e-01 -2.364808e-12
1.520000e-01 -5.860980e-13
1.530000e-01 1.897283e-12
1.540000e-01 3.455514e-12
1.550000e-01 2.822401e-12
1.560000e-01 -9.036175e-15
1.570000e-01 -3.581338e-12
1.580000e-01 -5.685410e-12
1.590000e-01 -4.660007e-12
1.600000e-01 -5.292771e-13
1.610000e-01 4.762368e-12
1.620000e-01 8.279736e-12
1.630000e-01 7.751602e-12
1.640000e-01 3.007746e-12
1.650000e-01 -3.711105e-12
1.660000e-01 -8.871921e-12
1.670000e-01 -9.639322e-12
1.680000e-01 -5.586137e-12
1.690000e-01 9.529070e-13
1.700000e-01 6.203392e-12
1.710000e-01 7.239209e-12
1.720000e-01 3.854709e-12
1.730000e-01 -1.212171e-12
1.740000e-01 -3.985522e-12
1.750000e-01 -1.939035e-12
1.760000e-01 4.019932e-12
1.770000e-01 9.679175e-12
1.780000e-01 9.950858e-12
1.790000e-01 2.303734e-12
1.800000e-01 -1.092190e-11
1.810000e-01 -2.299538e-11
1.820000e-01 -2.618401e-11
1.830000e-01 -1.633339e-11
1.840000e-01 4.036223e-12
1.850000e-01 2.619173e-11
1.860000e-01 3.933309e-11
1.870000e-01 3.633002e-11
1.880000e-01 1.781492e-11
1.890000e-01 -7.866152e-12
1.900000e-01 -2.902929e-11
1.910000e-01 -3.695604e-11
1.920000e-01 -3.044718e-11
1.930000e-01 -1.586560e-11
1.940000e-01 -2.593158e-12
1.950000e-01 3.284902e-12
1.960000e-01 2.980915e-12
1.970000e-01 3.879050e-12
1.980000e-01 1.367911e-11
1.990000e-01 3.344006e-11
2.000000e-01 5.431894e-11
2.010000e-01 6.093476e-11
2.020000e-01 4.027615e-11
2.030000e-01 -8.737761e-12
2.040000e-01 -7.108929e-11
2.050000e-01 -1.204127e-10
2.060000e-01 -1.311798e-10
2.070000e-01 -9.219156e-11
2.080000e-01 -1.384980e-11
2.090000e-01 7.534741e-11
2.100000e-01 1.417575e-10
2.110000e-01 1.622244e-10
2.120000e-01 1.339145e-10
2.130000e-01 7.312956e-11
2.140000e-01 4.307568e-12
2.150000e-01 -5.375793e-11
2.160000e-01 -9.587712e-11
2.170000e-01 -1.278307e-10
2.180000e-01 -1.554082e-10
2.190000e-01 -1.732621e-10
2.200000e-01 -1.625069e-10
2.210000e-01 -1.007690e-10
2.220000e-01 1.998049e-11
2.230000e-01 1.788231e-10
2.240000e-01 3.254720e-10
2.250000e-01 3.978188e-10
2.260000e-01 3.506564e-10
2.270000e-01 1.810110e-10
2.280000e-01 -6.438440e-11
2.290000e-01 -3.053223e-10
2.300000e-01 -4.612203e-10
2.310000e-01 -4.847114e-10
2.320000e-01 -3.787217e-10
2.330000e-01 -1.890774e-10
2.340000e-01 2.167042e-11
2.350000e-01 2.032918e-10
2.360000e-01 3.331936e-10
2.370000e-01 4.110045e-10
2.380000e-01 4.391525e-10
2.390000e-01 4.057973e-10
2.400000e-01 2.850480e-10
2.410000e-01 5.773382e-11
2.420000e-01 -2.591649e-10
2.430000e-01 -5.953572e-10
2.440000e-01 -8.391038e-10
2.450000e-01 -8.792815e-10
2.460000e-01 -6.594243e-10
2.470000e-01 -2.155680e-10
2.480000e-01 3.251002e-10
2.490000e-01 7.892627e-10
2.500000e-01 1.025673e-09
2.510000e-01 9.647203e-10
2.520000e-01 6.407205e-10
2.530000e-01 1.664664e-10
2.540000e-01 -3.215449e-10
2.550000e-01 -7.178530e-10
2.560000e-01 -9.735646e-10
2.570000e-01 -1.083761e-09
2.580000e-01 -1.054194e-09
2.590000e-01 -8.746353e-10
2.600000e-01 -5.232572e-10
2.610000e-01 -3.597123e-14
2.620000e-01 6.300882e-10
2.630000e-01 1.218774e-09
2.640000e-01 1.568238e-09
2.650000e-01 1.511459e-09
2.660000e-01 9.932023e-10
2.670000e-01 1.232319e-10
2.680000e-01 -8.493503e-10
2.690000e-01 -1.621823e-09
2.700000e-01 -1.956997e-09
2.710000e-01 -1.767536e-09
2.720000e-01 -1.144734e-09
2.730000e-01 -2.849188e-10
2.740000e-01 5.819716e-10
2.750000e-01 1.279795e-09
2.760000e-01 1.739692e-09
2.770000e-01 1.958994e-09
2.780000e-01 1.968786e-09
2.790000e-01 1.752169e-09
2.800000e-01 1.279632e-09
2.810000e-01 5.525724e-10
2.820000e-01 -3.106353e-10
2.830000e-01 -1.077107e-09
2.840000e-01 -1.495754e-09
2.850000e-01 -1.368159e-09
2.860000e-01 -6.065126e-10
2.870000e-01 5.775896e-10
2.880000e-01 1.855222e-09
2.890000e-01 2.833549e-09
2.900000e-01 3.308012e-09
2.910000e-01 3.191833e-09
2.920000e-01 2.583705e-09
2.930000e-01 1.692092e-09
2.940000e-01 7.811867e-10
2.950000e-01 6.990142e-11
2.960000e-01 -4.457910e-10
2.970000e-01 -7.985914e-10
2.980000e-01 -1.029058e-09
2.990000e-01 -1.146416e-09
3.000000e-01 -8.697629e-10
3.010000e-01 -4.095524e-10
3.020000e-01 1.833076e-10
3.030000e-01 6.688285e-10
3.040000e-01 8.266507e-10
3.050000e-01 5.898153e-10
3.060000e-01 -2.109797e-10
3.070000e-01 -1.381346e-09
3.080000e-01 -2.631786e-09
3.090000e-01 -3.500621e-09
3.100000e-01 -3.993434e-09
3.110000e-01 -4.083334e-09
3.120000e-01 -3.783279e-09
3.130000e-01 -3.410114e-09
3.140000e-01 -3.192970e-09
3.150000e-01 -3.195540e-09
3.160000e-01 -3.234610e-09
3.170000e-01 -3.385121e-09
3.180000e-01 -3.301029e-09
3.190000e-01 -3.038378e-09
3.200000e-01 -2.802160e-09
3.210000e-01 -2.553776e-09
3.220000e-01 -2.385695e-09
3.230000e-01 -2.354023e-09
3.240000e-01 -2.131566e-09
3.250000e-01 -1.468452e-09
3.260000e-01 -3.334861e-10
3.270000e-01 1.051371e-09
3.280000e-01 2.056890e-09
3.290000e-01 2.451660e-09
3.300000e-01 2.413909e-09
3.310000e-01 2.439631e-09
3.320000e-01 2.641897e-09
3.330000e-01 2.813781e-09
3.340000e-01 3.248623e-09
3.350000e-01 3.971156e-09
3.360000e-01 4.988773e-09
3.370000e-01 5.891367e-09
3.380000e-01 6.322590e-09
3.390000e-01 6.392137e-09
3.400000e-01 6.611128e-09
3.410000e-01 7.112964e-09
3.420000e-01 7.108786e-09
3.430000e-01 6.319235e-09
3.440000e-01 5.100432e-09
3.450000e-01 4.225470e-09
3.460000e-01 3.438766e-09
3.470000e-01 2.376426e-09
3.480000e-01 1.068150e-09
3.490000e-01 1.970868e-11
3.500000e-01 -2.610534e-11
3.510000e-01 5.332126e-10
3.520000e-01 4.515037e-10
3.530000e-01 -6.118590e-10
3.540000e-01 -1.953065e-09
3.550000e-01 -2.413518e-09
3.560000e-01 -2.985272e-09
3.570000e-01 -4.223866e-09
3.580000e-01 -5.612996e-09
3.590000e-01 -5.599070e-09
3.600000e-01 -4.732494e-09
3.610000e-01 -4.435558e-09
3.620000e-01 -5.332152e-09
3.630000e-01 -6.397256e-09
3.640000e-01 -6.374771e-09
3.650000e-01 -5.827869e-09
3.660000e-01 -5.556244e-09
3.670000e-01 -5.600796e-09
3.680000e-01 -5.670317e-09
3.690000e-01 -4.739724e-09
3.700000e-01 -3.433320e-09
3.710000e-01 -2.307566e-09
3.720000e-01 -1.912550e-09
3.730000e-01 -1.100824e-09
3.740000e-01 3.839418e-11
3.750000e-01 8.591492e-10
3.760000e-01 8.826397e-10
3.770000e-01 7.185577e-10
3.780000e-01 1.072689e-09
3.790000e-01 1.653859e-09
3.800000e-01 1.432021e-09
3.810000e-01 7.646861e-10
3.820000e-01 9.892691e-10
3.830000e-01 2.468013e-09
3.840000e-01 3.977234e-09
3.850000e-01 4.389530e-09
3.860000e-01 3.846550e-09
3.870000e-01 3.256536e-09
3.880000e-01 2.864391e-09
3.890000e-01 2.303267e-09
3.900000e-01 1.510156e-09
3.910000e-01 1.180190e-09
3.920000e-01 1.541915e-09
3.930000e-01 1.750328e-09
3.940000e-01 1.278940e-09
3.950000e-01 5.644087e-10
3.960000e-01 7.706965e-10
3.970000e-01 1.928410e-09
3.980000e-01 2.605787e-09
3.990000e-01 1.920322e-09
4.000000e-01 4.327119e-10
4.010000e-01 -4.915421e-10
4.020000e-01 -5.923002e-10
4.030000e-01 -6.009183e-10
4.040000e-01 -1.076710e-09
4.050000e-01 -1.561628e-09
4.060000e-01 -1.404758e-09
4.070000e-01 -7.833405e-10
4.080000e-01 -3.149627e-10
4.090000e-01 -5.008904e-11
4.100000e-01 5.997856e-10
4.110000e-01 1.686363e-09
4.120000e-01 2.215814e-09
4.130000e-01 1.361069e-09
4.140000e-01 -2.289022e-10
4.150000e-01 -1.006572e-09
4.160000e-01 -5.446310e-10
4.170000e-01 -3.532863e-11
4.180000e-01 -3.688085e-10
4.190000e-01 -1.051628e-09
4.200000e-01 -8.423777e-10
4.210000e-01 3.734897e-10
4.220001e-01 1.436148e-09
4.230000e-01 1.539187e-09
4.240000e-01 1.111490e-09
4.250000e-01 7.511822e-10
4.260000e-01 2.862430e-10
4.270000e-01 -7.635022e-10
4.280000e-01 -2.027068e-09
4.290000e-01 -2.419583e-09
4.300000e-01 -1.776251e-09
4.310000e-01 -1.222139e-09
4.320000e-01 -1.562531e-09
4.330000e-01 -2.123582e-09
4.340000e-01 -1.532463e-09
4.350000e-01 2.188607e-10
4.360000e-01 1.398213e-09
4.370000e-01 7.325180e-10
4.380000e-01 -9.712431e-10
4.390000e-01 -2.033403e-09
4.400000e-01 -1.896301e-09
4.410000e-01 -1.420924e-09
4.420000e-01 -1.253924e-09
4.430000e-01 -1.009221e-09
4.440000e-01 -2.911742e-10
4.450000e-01 3.713412e-10
4.460000e-01 3.125997e-10
4.470000e-01 2.123635e-11
4.480000e-01 6.107204e-10
4.490000e-01 2.035511e-09
4.500000e-01 2.733001e-09
4.510000e-01 1.597709e-09
4.520000e-01 -3.591447e-10
4.530000e-01 -1.115178e-09
4.540000e-01 -9.203527e-11
4.550000e-01 1.313921e-09
4.560000e-01 1.731125e-09
4.570000e-01 1.473146e-09
4.580000e-01 1.592381e-09
4.590001e-01 2.151588e-09
4.600000e-01 2.250982e-09
4.610000e-01 1.612116e-09
4.620000e-01 1.027939e-09
4.630000e-01 1.028537e-09
4.640000e-01 9.308021e-10
4.650000e-01 -1.387690e-10
4.660000e-01 -1.617316e-09
4.670000e-01 -2.057050e-09
4.680000e-01 -1.152443e-09
4.690000e-01 -2.920055e-10
4.700000e-01 -6.032153e-10
4.710000e-01 -1.368010e-09
4.720000e-01 -1.060933e-09
4.730000e-01 3.169784e-10
4.740000e-01 1.059061e-09
4.750000e-01 -4.196821e-11
4.760000e-01 -2.137265e-09
4.770000e-01 -3.536963e-09
4.780000e-01 -3.736788e-09
4.790000e-01 -3.542258e-09
4.800000e-01 -3.472509e-09
4.810000e-01 -3.138288e-09
4.820001e-01 -2.409486e-09
4.830000e-01 -2.132847e-09
4.840000e-01 -2.970973e-09
4.850000e-01 -4.023116e-09
4.860000e-01 -3.728109e-09
4.870000e-01 -2.098339e-09
4.880000e-01 -1.111838e-09
4.890000e-01 -2.388608e-09
4.900000e-01 -5.148971e-09
4.910000e-01 -7.208543e-09
4.920000e-01 -7.585718e-09
4.930000e-01 -7.294085e-09
4.940000e-01 -7.555927e-09
4.950000e-01 -8.265401e-09
4.960001e-01 -8.756004e-09
4.970000e-01 -9.289145e-09
4.980000e-01 -1.076427e-08
4.990000e-01 -1.314996e-08
5.000000e-01 -1.528389e-08
5.010000e-01 -1.652732e-08
5.020000e-01 -1.777168e-08
5.030000e-01 -2.014009e-08
5.040000e-01 -2.320976e-08
5.050000e-01 -2.546943e-08
5.060000e-01 -2.647532e-08
5.070000e-01 -2.753356e-08
5.080000e-01 -2.982878e-08
5.090000e-01 -3.264086e-08
5.100001e-01 -3.427374e-08
5.110000e-01 -3.438663e-08
5.120000e-01 -3.443216e-08
5.130000e-01 -3.562104e-08
5.140000e-01 -3.734340e-08
5.150000e-01 -3.807622e-08
5.160000e-01 -3.724597e-08
5.170000e-01 -3.535683e-08
5.180000e-01 -3.263779e-08
5.190001e-01 -2.861589e-08
5.200000e-01 -2.332649e-08
5.210000e-01 -1.796684e-08
5.220000e-01 -1.349235e-08
5.230000e-01 -8.963980e-09
5.240000e-01 -2.289198e-09
5.250000e-01 7.279141e-09
5.260000e-01 1.819626e-08
5.270000e-01 2.857223e-08
5.280000e-01 3.840796e-08
5.290000e-01 4.917365e-08
5.300000e-01 6.154823e-08
5.310000e-01 7.456219e-08
5.320000e-01 8.702318e-08
5.330001e-01 9.886207e-08
5.340000e-01 1.104454e-07
5.350000e-01 1.212247e-07
5.360000e-01 1.299813e-07
5.370000e-01 1.362932e-07
5.380000e-01 1.409226e-07
5.390000e-01 1.441877e-07
5.400000e-01 1.446861e-07
5.410000e-01 1.406115e-07
5.420001e-01 1.317239e-07
5.430000e-01 1.191620e-07
5.440000e-01 1.033623e-07
5.450000e-01 8.288043e-08
5.460000e-01 5.602487e-08
5.470001e-01 2.294109e-08
5.480000e-01 -1.492299e-08
5.490000e-01 -5.704351e-08
5.500000e-01 -1.043081e-07
5.510000e-01 -1.569133e-07
5.520000e-01 -2.136221e-07
5.530000e-01 -2.728921e-07
5.540000e-01 -3.341120e-07
5.550000e-01 -3.973255e-07
5.560001e-01 -4.611356e-07
5.570000e-01 -5.232578e-07
5.580000e-01 -5.818001e-07
5.590000e-01 -6.358605e-07
5.600000e-01 -6.846822e-07
5.610000e-01 -7.258786e-07
5.620000e-01 -7.565250e-07
5.630000e-01 -7.743947e-07
5.640000e-01 -7.786439e-07
5.650001e-01 -7.688504e-07
5.660000e-01 -7.434573e-07
5.670000e-01 -6.998307e-07
5.680000e-01 -6.358023e-07
5.690000e-01 -5.509646e-07
5.700001e-01 -4.458561e-07
5.710000e-01 -3.211026e-07
5.720000e-01 -1.766457e-07
5.730000e-01 -1.302396e-08
5.740000e-01 1.684384e-07
5.750000e-01 3.655878e-07
5.760000e-01 5.765614e-07
5.770000e-01 7.996350e-07
5.780000e-01 1.031127e-06
5.790001e-01 1.266089e-06
5.800000e-01 1.499728e-06
5.810000e-01 1.727603e-06
5.820000e-01 1.946957e-06
5.830000e-01 2.154466e-06
5.840001e-01 2.344124e-06
5.850000e-01 2.509805e-06
5.860000e-01 2.647583e-06
5.870000e-01 2.754256e-06
5.880000e-01 2.825254e-06
5.890000e-01 2.856294e-06
5.900000e-01 2.843852e-06
5.910000e-01 2.786255e-06
5.920000e-01 2.683926e-06
5.930001e-01 2.535206e-06
5.940000e-01 2.338318e-06
5.950000e-01 2.093904e-06
5.960000e-01 1.804903e-06
5.970000e-01 1.475186e-06
5.980000e-01 1.108419e-06
5.990000e-01 7.074850e-07
6.000000e-01 2.785819e-07
6.010000e-01 -1.718290e-07
6.020001e-01 -6.371411e-07
6.030000e-01 -1.111825e-06
6.040000e-01 -1.589011e-06
6.050000e-01 -2.060260e-06
6.060000e-01 -2.517132e-06
6.070001e-01 -2.951710e-06
6.080000e-01 -3.357651e-06
6.090000e-01 -3.728142e-06
6.100000e-01 -4.054862e-06
6.110000e-01 -4.331523e-06
6.120000e-01 -4.554226e-06
6.130000e-01 -4.720176e-06
6.140000e-01 -4.825095e-06
6.150000e-01 -4.864763e-06
6.160001e-01 -4.838454e-06
6.170000e-01 -4.748319e-06
6.180000e-01 -4.596834e-06
6.190000e-01 -4.384274e-06
6.200000e-01 -4.111556e-06
6.210001e-01 -3.783236e-06
6.220000e-01 -3.405177e-06
6.230000e-01 -2.984849e-06
6.240000e-01 -2.527503e-06
6.250001e-01 -2.038887e-06
6.260000e-01 -1.526510e-06
6.270000e-01 -1.001259e-06
6.280000e-01 -4.715694e-07
6.290000e-01 5.721813e-08
6.300001e-01 5.777401e-07
6.310000e-01 1.081469e-06
6.320000e-01 1.560082e-06
6.330000e-01 2.007349e-06
6.340000e-01 2.418761e-06
6.350001e-01 2.790592e-06
6.360000e-01 3.118475e-06
6.370000e-01 3.397581e-06
6.380000e-01 3.623543e-06
6.390001e-01 3.796857e-06
6.400000e-01 3.917288e-06
6.410000e-01 3.984373e-06
6.420000e-01 3.997324e-06
6.430000e-01 3.958441e-06
6.440001e-01 3.873371e-06
6.450000e-01 3.745576e-06
6.460000e-01 3.576948e-06
6.470000e-01 3.370398e-06
6.480000e-01 3.131514e-06
6.490000e-01 2.867106e-06
6.500000e-01 2.582296e-06
6.510000e-01 2.280809e-06
6.520000e-01 1.967215e-06
6.530001e-01 1.647481e-06
6.540000e-01 1.327920e-06
6.550000e-01 1.012348e-06
6.560000e-01 7.029157e-07
6.570000e-01 4.029716e-07
6.580001e-01 1.179724e-07
6.590000e-01 -1.469889e-07
6.600000e-01 -3.898022e-07
6.610000e-01 -6.107948e-07
6.620001e-01 -8.092393e-07
6.630000e-01 -9.827781e-07
6.640000e-01 -1.129978e-06
6.650000e-01 -1.251705e-06
6.660000e-01 -1.349250e-06
6.670001e-01 -1.422228e-06
6.680000e-01 -1.470088e-06
6.690000e-01 -1.494334e-06
6.700000e-01 -1.498992e-06
6.710000e-01 -1.487344e-06
6.720001e-01 -1.459463e-06
6.730000e-01 -1.414166e-06
6.740000e-01 -1.353588e-06
6.750000e-01 -1.282362e-06
6.760001e-01 -1.204200e-06
6.770000e-01 -1.120097e-06
6.780000e-01 -1.029610e-06
6.790000e-01 -9.348769e-07
6.800000e-01 -8.390452e-07
6.810001e-01 -7.440831e-07
6.820000e-01 -6.499868e-07
6.830000e-01 -5.569673e-07
6.840000e-01 -4.674512e-07
6.850001e-01 -3.839814e-07
6.860000e-01 -3.064815e-07
6.870000e-01 -2.329398e-07
6.880000e-01 -1.634944e-07
6.890000e-01 -1.009103e-07
6.900001e-01 -4.727190e-08
6.910000e-01 -8.985808e-10
6.920000e-01 4.170943e-08
6.930000e-01 8.102506e-08
6.940000e-01 1.142325e-07
6.950001e-01 1.393018e-07
6.960000e-01 1.578737e-07
6.970000e-01 1.728731e-07
6.980000e-01 1.848293e-07
6.990001e-01 1.922035e-07
7.000000e-01 1.950848e-07
7.010000e-01 1.954613e-07
7.020000e-01 1.946955e-07
7.030000e-01 1.913868e-07
7.040001e-01 1.841581e-07
7.050000e-01 1.747721e-07
7.060000e-01 1.665176e-07
7.070000e-01 1.597236e-07
7.080001e-01 1.509416e-07
7.090001e-01 1.378703e-07
7.100000e-01 1.230546e-07
7.110000e-01 1.108838e-07
7.120000e-01 1.022954e-07
7.130001e-01 9.415635e-08
7.140000e-01 8.383995e-08
7.150000e-01 7.245762e-08
7.160000e-01 6.235041e-08
7.170000e-01 5.361926e-08
7.180001e-01 4.478170e-08
7.190000e-01 3.613332e-08
7.200000e-01 2.974411e-08
7.210000e-01 2.578599e-08
7.220001e-01 2.138586e-08
7.230000e-01 1.430726e-08
7.240000e-01 6.673872e-09
7.250000e-01 2.560682e-09
7.260000e-01 2.401976e-09
7.270001e-01 2.283741e-09
7.280000e-01 -9.058567e-10
7.290000e-01 -5.402399e-09
7.300000e-01 -7.398285e-09
7.310000e-01 -6.312803e-09
7.320001e-01 -5.151833e-09
7.330000e-01 -5.929905e-09
7.340000e-01 -7.095423e-09
7.350000e-01 -6.518349e-09
7.360001e-01 -4.892627e-09
7.370000e-01 -4.317371e-09
7.380000e-01 -4.614776e-09
7.390000e-01 -3.552032e-09
7.400000e-01 -7.307790e-10
7.410001e-01 1.246462e-09
7.420000e-01 5.670699e-10
7.430000e-01 -4.079084e-10
7.440000e-01 1.950866e-09
7.450001e-01 7.080871e-09
7.460001e-01 1.028093e-08
7.470000e-01 8.632469e-09
7.480000e-01 4.915364e-09
7.490000e-01 4.021103e-09
7.500001e-01 6.992877e-09
7.510000e-01 1.044145e-08
7.520000e-01 1.148760e-08
7.530000e-01 1.072635e-08
7.540000e-01 9.870973e-09
7.550001e-01 8.833467e-09
7.560000e-01 6.921937e-09
7.570000e-01 5.471747e-09
7.580000e-01 6.567689e-09
7.590001e-01 9.204086e-09
7.600001e-01 9.283212e-09
7.610000e-01 4.804406e-09
7.620000e-01 -7.569270e-10
7.630000e-01 -2.316938e-09
7.640001e-01 3.357172e-10
7.650000e-01 2.246907e-09
7.660000e-01 -3.359446e-10
7.670000e-01 -5.480047e-09
7.680001e-01 -8.606548e-09
7.690001e-01 -8.252982e-09
7.700000e-01 -6.706500e-09
7.710000e-01 -6.046434e-09
7.720000e-01 -5.931611e-09
7.730001e-01 -5.817697e-09
7.740000e-01 -6.755272e-09
7.750000e-01 -9.222958e-09
7.760000e-01 -1.086175e-08
7.770000e-01 -8.877350e-09
7.780001e-01 -4.465960e-09
7.790000e-01 -2.296019e-09
7.800000e-01 -4.574758e-09
7.810000e-01 -7.668746e-09
7.820001e-01 -6.411483e-09
7.830001e-01 -7.493099e-10
7.840000e-01 4.169692e-09
7.850000e-01 4.439357e-09
7.860000e-01 1.683588e-09
7.870001e-01 1.454055e-10
7.880000e-01 1.422677e-09
7.890000e-01 3.864500e-09
7.900000e-01 5.885852e-09
7.910001e-01 7.372819e-09
7.920001e-01 7.897427e-09
7.930000e-01 6.136077e-09
7.940000e-01 2.585352e-09
7.950000e-01 8.519123e-10
7.960001e-01 3.847674e-09
7.970001e-01 9.187545e-09
7.980000e-01 1.086960e-08
7.990000e-01 6.314394e-09
8.000000e-01 -1.570584e-10
8.010001e-01 -2.284651e-09
8.020000e-01 9.925998e-10
8.030000e-01 5.012339e-09
8.040000e-01 5.383356e-09
8.050001e-01 2.337742e-09
8.060001e-01 -1.134083e-09
8.070000e-01 -3.146056e-09
8.080000e-01 -3.489049e-09
8.090000e-01 -2.064553e-09
8.100001e-01 8.042775e-10
8.110000e-01 2.773049e-09
8.120000e-01 8.432721e-10
8.130000e-01 -4.466983e-09
8.140000e-01 -8.251902e-09
8.150001e-01 -6.336677e-09
8.160000e-01 -6.559162e-10
8.170000e-01 2.560284e-09
8.180000e-01 3.547029e-11
8.190001e-01 -4.925482e-09
8.200001e-01 -6.783750e-09
8.210000e-01 -4.138599e-09
8.220000e-01 -3.293508e-10
8.230000e-01 1.243393e-09
8.240001e-01 3.379341e-10
8.250000e-01 -1.452975e-09
8.260000e-01 -2.927607e-09
8.270000e-01 -3.133721e-09
8.280001e-01 -8.807888e-10
8.290001e-01 3.576815e-09
8.300000e-01 7.056542e-09
8.310000e-01 6.027363e-09
8.320000e-01 1.273520e-09
8.330001e-01 -1.854886e-09
8.340001e-01 6.936034e-10
8.350000e-01 6.567518e-09
8.360000e-01 9.470625e-09
8.370000e-01 6.398636e-09
8.380001e-01 7.904646e-10
8.390000e-01 -1.837179e-09
8.400000e-01 2.277432e-10
8.410000e-01 4.195869e-09
8.420001e-01 6.497345e-09
8.430001e-01 5.540699e-09
8.440000e-01 1.595907e-09
8.450000e-01 -3.745129e-09
8.460000e-01 -7.509414e-09
8.470001e-01 -6.837013e-09
8.480000e-01 -2.356870e-09
8.490000e-01 9.390817e-10
8.500000e-01 -1.717723e-09
8.510001e-01 -9.099836e-09
8.520001e-01 -1.445031e-08
8.530000e-01 -1.259207e-08
8.540000e-01 -5.556558e-09
8.550000e-01 -1.496403e-10
8.560001e-01 -6.835990e-10
8.570001e-01 -5.350216e-09
8.580000e-01 -9.235862e-09
8.590000e-01 -9.145964e-09
8.600000e-01 -5.198814e-09
8.610001e-01 4.051799e-10
8.620000e-01 4.684495e-09
8.630000e-01 5.120711e-09
8.640000e-01 1.851419e-09
8.650001e-01 -1.190841e-09
8.660001e-01 7.193819e-10
8.670000e-01 7.753556e-09
8.680000e-01 1.427352e-08
8.690000e-01 1.440512e-08
8.700001e-01 8.585232e-09
8.710001e-01 3.195368e-09
8.720000e-01 3.586621e-09
8.730000e-01 8.696873e-09
8.740000e-01 1.301748e-08
8.750001e-01 1.258311e-08
8.760000e-01 8.052382e-09
8.770000e-01 2.924139e-09
8.780000e-01 4.297505e-10
8.790001e-01 1.881403e-09
