-1.199999999999999956e-01 0.000000000000000000e+00
-1.189999999999999947e-01 0.000000000000000000e+00
-1.179999999999999938e-01 0.000000000000000000e+00
-1.170000000000000068e-01 0.000000000000000000e+00
-1.160000000000000059e-01 0.000000000000000000e+00
-1.150000000000000050e-01 0.000000000000000000e+00
-1.140000000000000041e-01 0.000000000000000000e+00
-1.130000000000000032e-01 0.000000000000000000e+00
-1.120000000000000023e-01 0.000000000000000000e+00
-1.110000000000000014e-01 0.000000000000000000e+00
-1.100000000000000006e-01 0.000000000000000000e+00
-1.089999999999999997e-01 0.000000000000000000e+00
-1.079999999999999988e-01 0.000000000000000000e+00
-1.069999999999999979e-01 0.000000000000000000e+00
-1.059999999999999970e-01 0.000000000000000000e+00
-1.049999999999999961e-01 0.000000000000000000e+00
-1.039999999999999952e-01 0.000000000000000000e+00
-1.029999999999999943e-01 0.000000000000000000e+00
-1.019999999999999934e-01 0.000000000000000000e+00
-1.010000000000000064e-01 0.000000000000000000e+00
-1.000000000000000056e-01 0.000000000000000000e+00
-9.900000999999999940e-02 0.000000000000000000e+00
-9.800000000000000377e-02 0.000000000000000000e+00
-9.700000000000000289e-02 0.000000000000000000e+00
-9.600000000000000200e-02 0.000000000000000000e+00
-9.500000999999999585e-02 0.000000000000000000e+00
-9.400000000000000022e-02 0.000000000000000000e+00
-9.299999999999999933e-02 0.000000000000000000e+00
-9.200000999999999318e-02 0.000000000000000000e+00
-9.100001000000000617e-02 0.000000000000000000e+00
-8.999999999999999667e-02 0.000000000000000000e+00
-8.899999999999999578e-02 0.000000000000000000e+00
-8.799999999999999489e-02 0.000000000000000000e+00
-8.699999999999999400e-02 0.000000000000000000e+00
-8.599999999999999312e-02 0.000000000000000000e+00
-8.500001000000000084e-02 0.000000000000000000e+00
-8.400000999999999995e-02 0.000000000000000000e+00
-8.300000000000000433e-02 0.000000000000000000e+00
-8.200000000000000344e-02 0.000000000000000000e+00
-8.100000000000000255e-02 0.000000000000000000e+00
-8.000000000000000167e-02 0.000000000000000000e+00
-7.900000000000000078e-02 0.000000000000000000e+00
-7.799999999999999989e-02 0.000000000000000000e+00
-7.700000999999999374e-02 0.000000000000000000e+00
-7.600001000000000673e-02 0.000000000000000000e+00
-7.499999999999999722e-02 0.000000000000000000e+00
-7.399999999999999634e-02 0.000000000000000000e+00
-7.299999999999999545e-02 0.000000000000000000e+00
-7.199999999999999456e-02 0.000000000000000000e+00
-7.099999999999999367e-02 0.000000000000000000e+00
-7.000001000000000140e-02 0.000000000000000000e+00
-6.900001000000000051e-02 0.000000000000000000e+00
-6.800000000000000488e-02 0.000000000000000000e+00
-6.700000000000000400e-02 0.000000000000000000e+00
-6.600000000000000311e-02 0.000000000000000000e+00
-6.500000000000000222e-02 0.000000000000000000e+00
-6.400000000000000133e-02 0.000000000000000000e+00
-6.300000000000000044e-02 0.000000000000000000e+00
-6.199999999999999956e-02 0.000000000000000000e+00
-6.099999999999999867e-02 0.000000000000000000e+00
-5.999999999999999778e-02 0.000000000000000000e+00
-5.899999999999999689e-02 0.000000000000000000e+00
-5.800000000000000294e-02 0.000000000000000000e+00
-5.700000000000000205e-02 0.000000000000000000e+00
-5.600000000000000117e-02 0.000000000000000000e+00
-5.500000000000000028e-02 0.000000000000000000e+00
-5.400001000000000106e-02 0.000000000000000000e+00
-5.299999999999999850e-02 0.000000000000000000e+00
-5.199999999999999761e-02 0.000000000000000000e+00
-5.099999999999999672e-02 0.000000000000000000e+00
-5.000000000000000278e-02 0.000000000000000000e+00
-4.900000000000000189e-02 0.000000000000000000e+00
-4.800000000000000100e-02 0.000000000000000000e+00
-4.700000000000000011e-02 0.000000000000000000e+00
-4.599999999999999922e-02 0.000000000000000000e+00
-4.499999999999999833e-02 0.000000000000000000e+00
-4.399999999999999745e-02 0.000000000000000000e+00
-4.299999999999999656e-02 0.000000000000000000e+00
-4.200000000000000261e-02 0.000000000000000000e+00
-4.100000000000000172e-02 0.000000000000000000e+00
-4.000000000000000083e-02 0.000000000000000000e+00
-3.899999999999999994e-02 0.000000000000000000e+00
-3.799999999999999906e-02 0.000000000000000000e+00
-3.699999999999999817e-02 0.000000000000000000e+00
-3.599999999999999728e-02 0.000000000000000000e+00
-3.500000000000000333e-02 0.000000000000000000e+00
-3.400000000000000244e-02 0.000000000000000000e+00
-3.300000000000000155e-02 0.000000000000000000e+00
-3.200000000000000067e-02 0.000000000000000000e+00
-3.099999999999999978e-02 0.000000000000000000e+00
-2.999999999999999889e-02 0.000000000000000000e+00
-2.900000000000000147e-02 0.000000000000000000e+00
-2.800000000000000058e-02 0.000000000000000000e+00
-2.699999999999999969e-02 0.000000000000000000e+00
-2.599999999999999881e-02 0.000000000000000000e+00
-2.500000000000000139e-02 0.000000000000000000e+00
-2.400000000000000050e-02 0.000000000000000000e+00
-2.299999999999999961e-02 0.000000000000000000e+00
-2.199999999999999872e-02 0.000000000000000000e+00
-2.100000000000000130e-02 0.000000000000000000e+00
-2.000000000000000042e-02 0.000000000000000000e+00
-1.899999999999999953e-02 0.000000000000000000e+00
-1.799999999999999864e-02 0.000000000000000000e+00
-1.700000000000000122e-02 0.000000000000000000e+00
-1.600000000000000033e-02 0.000000000000000000e+00
-1.499999999999999944e-02 0.000000000000000000e+00
-1.400000000000000029e-02 0.000000000000000000e+00
-1.299999999999999940e-02 0.000000000000000000e+00
-1.200000000000000025e-02 0.000000000000000000e+00
-1.099999999999999936e-02 0.000000000000000000e+00
-9.999997999999999526e-03 0.000000000000000000e+00
-8.999995999999999691e-03 0.000000000000000000e+00
-8.000000999999999640e-03 0.000000000000000000e+00
-6.999998999999999805e-03 0.000000000000000000e+00
-5.999996999999999969e-03 0.000000000000000000e+00
-5.000003000000000260e-03 0.000000000000000000e+00
-4.000001000000000424e-03 0.000000000000000000e+00
-2.999999000000000155e-03 0.000000000000000000e+00
-1.999996999999999886e-03 0.000000000000000000e+00
-1.000002000000000052e-03 0.000000000000000000e+00
0.000000000000000000e+00 0.000000000000000000e+00
1.000002000000000052e-03 0.000000000000000000e+00
2.000004000000000105e-03 0.000000000000000000e+00
2.999999000000000155e-03 0.000000000000000000e+00
4.000001000000000424e-03 0.000000000000000000e+00
4.999995000000000134e-03 0.000000000000000000e+00
5.999996999999999969e-03 0.000000000000000000e+00
6.999998999999999805e-03 0.000000000000000000e+00
8.000000999999999640e-03 0.000000000000000000e+00
9.000002999999999476e-03 0.000000000000000000e+00
1.000001000000000015e-02 0.000000000000000000e+00
1.100000999999999930e-02 0.000000000000000000e+00
1.199999000000000031e-02 0.000000000000000000e+00
1.299999999999999940e-02 0.000000000000000000e+00
1.400000000000000029e-02 0.000000000000000000e+00
1.499999999999999944e-02 0.000000000000000000e+00
1.600000000000000033e-02 0.000000000000000000e+00
1.700000000000000122e-02 0.000000000000000000e+00
1.800001000000000032e-02 0.000000000000000000e+00
1.900001000000000120e-02 0.000000000000000000e+00
2.000000000000000042e-02 0.000000000000000000e+00
2.100000000000000130e-02 0.000000000000000000e+00
2.199999999999999872e-02 0.000000000000000000e+00
2.299999999999999961e-02 0.000000000000000000e+00
2.400000000000000050e-02 0.000000000000000000e+00
2.500000999999999959e-02 0.000000000000000000e+00
2.600001000000000048e-02 0.000000000000000000e+00
2.699999999999999969e-02 0.000000000000000000e+00
2.800000000000000058e-02 0.000000000000000000e+00
2.900000000000000147e-02 0.000000000000000000e+00
2.999999999999999889e-02 0.000000000000000000e+00
3.099999999999999978e-02 0.000000000000000000e+00
3.200001000000000234e-02 0.000000000000000000e+00
3.300001000000000323e-02 0.000000000000000000e+00
3.400000999999999718e-02 0.000000000000000000e+00
3.500000000000000333e-02 0.000000000000000000e+00
3.599999999999999728e-02 0.000000000000000000e+00
3.699999999999999817e-02 0.000000000000000000e+00
3.799999999999999906e-02 0.000000000000000000e+00
3.899999999999999994e-02 0.000000000000000000e+00
4.000001000000000251e-02 -0.000000000000000000e+00
4.100001000000000340e-02 0.000000000000000000e+00
4.200000000000000261e-02 9.809089250273719496e-45
4.299999999999999656e-02 2.031882773270984753e-43
4.399999999999999745e-02 -3.137927651162562867e-41
4.499999999999999833e-02 -2.446368642138229420e-39
4.599999999999999922e-02 -7.870606382766298181e-38
4.700001000000000179e-02 -3.091464405617374896e-37
4.800001000000000267e-02 1.071815060313540565e-34
4.900000999999999662e-02 7.146745574874388617e-33
5.000000000000000278e-02 3.084740033690562306e-31
5.099999999999999672e-02 1.065684746704064961e-29
5.199999999999999761e-02 3.107505780120790631e-28
5.299999999999999850e-02 7.591160727879175800e-27
5.400001000000000106e-02 1.452024837063624031e-25
5.500001000000000195e-02 1.710779373756104283e-24
5.600001000000000284e-02 -7.852789245086747571e-24
5.700000000000000205e-02 -9.871383800667991624e-22
5.800000000000000294e-02 -2.636398126264679269e-20
5.899999999999999689e-02 -3.951700538601177447e-19
5.999999999999999778e-02 -2.795678150936814962e-18
6.099999999999999867e-02 1.463263478452217237e-17
6.200001000000000123e-02 5.375092676961274515e-16
6.300000999999999518e-02 4.504248045372879691e-15
6.400000999999999607e-02 1.693680362168701963e-16
6.500000000000000222e-02 -2.468316620974492226e-13
6.600000000000000311e-02 -1.269566700032309647e-12
6.700000000000000400e-02 2.785943134173129998e-12
6.800000000000000488e-02 3.576702475860393804e-11
6.900001000000000051e-02 2.040686369886302032e-11
7.000001000000000140e-02 -3.608604248750424404e-10
7.100001000000000229e-02 -3.460671471611220795e-10
7.199999999999999456e-02 1.395430104800254867e-09
7.299999999999999545e-02 5.327718266556757953e-10
7.399999999999999634e-02 -7.905643917283100564e-10
7.499999999999999722e-02 7.285281822255740281e-10
7.600001000000000673e-02 -1.403958393986215469e-09
7.700000999999999374e-02 7.440243976475358068e-10
7.800000999999999463e-02 -1.374397040621033739e-09
7.900000999999999551e-02 3.028489403700262983e-10
8.000000000000000167e-02 -1.861385351409339250e-10
8.100000000000000255e-02 -1.493982493272483225e-09
8.200000000000000344e-02 1.843334485052139371e-09
8.300000000000000433e-02 -1.882005218334370511e-09
8.400000999999999995e-02 -5.083439919006949026e-11
8.500001000000000084e-02 2.000329901719055670e-09
8.600001000000000173e-02 -1.821027884041370726e-09
8.700001000000000262e-02 5.017798954121133193e-10
8.799999999999999489e-02 1.110294300943337475e-09
8.899999999999999578e-02 -1.468164201323673979e-10
8.999999999999999667e-02 8.504936754860636938e-10
9.100001000000000617e-02 -1.180055608784869037e-09
9.200000999999999318e-02 -3.427134132039100223e-10
9.300000999999999407e-02 9.191857830437299981e-10
9.400000999999999496e-02 -6.401203456185555751e-10
9.500000000000000111e-02 5.168430683433200556e-10
9.600000000000000200e-02 -1.182256931242520182e-10
9.700000000000000289e-02 -9.301451830978635371e-10
9.800000000000000377e-02 6.199264435124973716e-10
9.900000999999999940e-02 -4.261997144094920031e-10
1.000000000000000056e-01 -1.041926545042315411e-10
1.010000000000000064e-01 7.073599483931047871e-10
1.019999999999999934e-01 -5.975626105048092995e-10
1.029999999999999943e-01 4.619144233775074326e-10
1.039999999999999952e-01 5.594133489772445955e-10
1.049999999999999961e-01 -2.215600064525702351e-10
1.059999999999999970e-01 9.711035309223348122e-10
1.069999999999999979e-01 5.801576580255485283e-11
1.079999999999999988e-01 -3.892088040746699562e-10
1.089999999999999997e-01 4.306781875573761909e-10
1.100000000000000006e-01 -6.394770268869365282e-10
1.110000000000000014e-01 -4.225829408621706307e-11
1.120000000000000023e-01 5.656540236209650629e-10
1.130000000000000032e-01 -4.846738566044450636e-10
1.140000000000000041e-01 2.351526195987219126e-10
1.150000000000000050e-01 -4.318206903164423238e-11
1.160000000000000059e-01 -7.795422085621339647e-10
1.170000000000000068e-01 3.883787180747333423e-10
1.179999999999999938e-01 -1.344473317399508261e-11
1.189999999999999947e-01 -2.291854622749056603e-10
1.199999999999999956e-01 5.376207257157261665e-10
1.209999999999999964e-01 -4.889257887441544881e-10
1.219999999999999973e-01 -2.884128491587034659e-10
1.229999999999999982e-01 4.836670508545637404e-10
1.239999999999999991e-01 -2.683193667252226078e-10
1.250000000000000000e-01 3.017815441985760572e-10
1.260000000000000009e-01 3.611520804636114690e-10
1.270000000000000018e-01 -6.006937725011596285e-10
1.280000000000000027e-01 2.726620318416195232e-10
1.290000000000000036e-01 3.871814258094019578e-10
1.300000000000000044e-01 -1.366072116537608849e-10
1.310000000000000053e-01 4.971624223415460619e-10
1.320000000000000062e-01 -2.362257889299002045e-10
1.330000000000000071e-01 -3.878778687127493185e-10
1.340000000000000080e-01 9.081020380108384416e-10
1.350000000000000089e-01 1.918844388937301915e-10
1.360000000000000098e-01 -5.595442442718479015e-10
1.370000000000000107e-01 -9.640231668495147233e-11
1.380000000000000115e-01 -1.672732612145733100e-11
1.390000000000000124e-01 5.742128994512540885e-10
1.400000000000000133e-01 1.386135928260756600e-10
1.409999999999999865e-01 -1.043626518537621450e-09
1.419999999999999873e-01 2.791693265447037220e-10
1.429999999999999882e-01 4.176207712980328779e-10
1.439999999999999891e-01 -1.106512215187649417e-09
1.449999999999999900e-01 4.182661161866718658e-10
1.459999999999999909e-01 9.954386204213960809e-10
1.469999999999999918e-01 -1.137334226797293013e-09
1.479999999999999927e-01 -2.244450181265733590e-10
1.489999999999999936e-01 8.064511836103349651e-10
1.499999999999999944e-01 -7.399095780513675891e-10
1.509999999999999953e-01 3.839378537318083318e-10
1.519999999999999962e-01 9.892513475051600835e-10
1.529999999999999971e-01 -1.123876436359694253e-09
1.539999999999999980e-01 3.959303995770824258e-10
1.549999999999999989e-01 6.303814692465437020e-10
1.559999999999999998e-01 -1.161875928801237023e-09
1.570000000000000007e-01 8.983361832193281771e-10
1.580000000000000016e-01 -1.326468518358936421e-10
1.590000000000000024e-01 -1.225745283051082879e-09
1.600000000000000033e-01 3.624638922339329383e-10
1.610000000000000042e-01 -4.916673734811638496e-09
1.620000000000000051e-01 -1.193432641599656563e-08
1.630000000000000060e-01 -2.898107887006062811e-08
1.640000000000000069e-01 -6.292616916425686213e-08
1.650000000000000078e-01 -1.077671356597420527e-07
1.660000000000000087e-01 -1.624919718778983224e-07
1.670000000000000095e-01 -2.135426910854221205e-07
1.680000000000000104e-01 -2.709373632114875363e-07
1.690000000000000113e-01 -3.442798970354488119e-07
1.700000000000000122e-01 -4.346873367921944009e-07
1.710000000000000131e-01 -5.411407641986443195e-07
1.719999999999999862e-01 -6.723931278429517988e-07
1.729999999999999871e-01 -8.451573876300244592e-07
1.739999999999999880e-01 -1.031780470839294139e-06
1.749999999999999889e-01 -1.259084910998353735e-06
1.759999999999999898e-01 -1.545647933198779356e-06
1.769999999999999907e-01 -1.886766540337703191e-06
1.779999999999999916e-01 -2.294148089276859537e-06
1.789999999999999925e-01 -2.782286856017890386e-06
1.799999999999999933e-01 -3.358176172696403228e-06
1.809999999999999942e-01 -4.054305918543832377e-06
1.819999999999999951e-01 -4.882608664047438651e-06
1.829999999999999960e-01 -5.862154466740321368e-06
1.839999999999999969e-01 -7.023708803899353370e-06
1.849999999999999978e-01 -8.389787581108976156e-06
1.859999999999999987e-01 -1.001181681203888729e-05
1.869999999999999996e-01 -1.190879174828296527e-05
1.880000000000000004e-01 -1.414687085343757644e-05
1.890000000000000013e-01 -1.675269777479115874e-05
1.900000000000000022e-01 -1.980803608603309840e-05
1.910000000000000031e-01 -2.335884164494927973e-05
1.920000000000000040e-01 -2.749801024037878960e-05
1.930000000000000049e-01 -3.228703280910849571e-05
1.940000000000000058e-01 -3.783779175137169659e-05
1.950000000000000067e-01 -4.423636346473358572e-05
1.960000000000000075e-01 -5.160984073881991208e-05
1.970000000000000084e-01 -6.007678166497498751e-05
1.980000000000000093e-01 -6.977999873925000429e-05
1.990000000000000102e-01 -8.087234164122492075e-05
2.000000000000000111e-01 -9.351607150165364146e-05
2.010000000000000120e-01 -1.079056237358599901e-04
2.020000000000000129e-01 -1.242189173353835940e-04
2.030000000000000138e-01 -1.426957023795694113e-04
2.039999999999999869e-01 -1.635388180147856474e-04
2.049999999999999878e-01 -1.870187406893819571e-04
2.059999999999999887e-01 -2.133776142727583647e-04
2.069999999999999896e-01 -2.429064625175669789e-04
2.079999999999999905e-01 -2.758963673841208220e-04
2.089999999999999913e-01 -3.126452793367207050e-04
2.099999999999999922e-01 -3.534940478857606649e-04
2.109999999999999931e-01 -3.987422678619623184e-04
2.119999999999999940e-01 -4.487616242840886116e-04
2.129999999999999949e-01 -5.038752569817006588e-04
2.139999999999999958e-01 -5.644429475069046021e-04
2.149999999999999967e-01 -6.308169104158878326e-04
2.159999999999999976e-01 -7.033212459646165371e-04
2.169999999999999984e-01 -7.823205669410526752e-04
2.179999999999999993e-01 -8.681044564582407475e-04
2.190000000000000002e-01 -9.610006236471235752e-04
2.200000000000000011e-01 -1.061267685145139694e-03
2.210000000000000020e-01 -1.169137656688690186e-03
2.220000000000000029e-01 -1.284843776375055313e-03
2.230000000000000038e-01 -1.408491632901132107e-03
2.240000000000000047e-01 -1.540229422971606255e-03
2.250000000000000056e-01 -1.680051907896995544e-03
2.260000000000000064e-01 -1.827922998927533627e-03
2.270000000000000073e-01 -1.983764348551630974e-03
2.280000000000000082e-01 -2.147289691492915154e-03
2.290000000000000091e-01 -2.318292856216430664e-03
2.300000000000000100e-01 -2.496272325515747070e-03
2.310000000000000109e-01 -2.680759411305189133e-03
2.320000000000000118e-01 -2.871116157621145248e-03
2.330000000000000127e-01 -3.066537668928503990e-03
2.340000000000000135e-01 -3.266196232289075851e-03
2.349999999999999867e-01 -3.469015937298536301e-03
2.359999999999999876e-01 -3.673871979117393494e-03
2.369999999999999885e-01 -3.879476338624954224e-03
2.379999999999999893e-01 -4.084403626620769501e-03
2.389999999999999902e-01 -4.287109244614839554e-03
2.399999999999999911e-01 -4.485946614295244217e-03
2.409999999999999920e-01 -4.679093137383460999e-03
2.419999999999999929e-01 -4.864710848778486252e-03
2.429999999999999938e-01 -5.040797404944896698e-03
2.439999999999999947e-01 -5.205295979976654053e-03
2.449999999999999956e-01 -5.356112029403448105e-03
2.459999999999999964e-01 -5.491071846336126328e-03
2.469999999999999973e-01 -5.608001258224248886e-03
2.479999999999999982e-01 -5.704739596694707870e-03
2.489999999999999991e-01 -5.779129918664693832e-03
2.500000000000000000e-01 -5.829067900776863098e-03
2.510000000000000009e-01 -5.852571688592433929e-03
2.520000000000000018e-01 -5.847697146236896515e-03
2.530000000000000027e-01 -5.812705960124731064e-03
2.540000000000000036e-01 -5.745985545217990875e-03
2.550000000000000044e-01 -5.646119825541973114e-03
2.560000000000000053e-01 -5.511919502168893814e-03
2.570000000000000062e-01 -5.342458374798297882e-03
2.580000000000000071e-01 -5.137044005095958710e-03
2.590000000000000080e-01 -4.895295016467571259e-03
2.600000000000000089e-01 -4.617167636752128601e-03
2.610000000000000098e-01 -4.302884917706251144e-03
2.620000000000000107e-01 -3.953067120164632797e-03
2.630000000000000115e-01 -3.568658139556646347e-03
2.640000000000000124e-01 -3.150950185954570770e-03
2.650000000000000133e-01 -2.701595192775130272e-03
2.660000000000000142e-01 -2.222602022811770439e-03
2.670000000000000151e-01 -1.716305501759052277e-03
2.680000000000000160e-01 -1.185354893095791340e-03
2.690000000000000169e-01 -6.327498704195022583e-04
2.700000000000000178e-01 -6.171962741063907743e-05
2.710000000000000187e-01 5.242287297733128071e-04
2.720000000000000195e-01 1.121348235756158829e-03
2.730000000000000204e-01 1.725732930935919285e-03
2.740000000000000213e-01 2.333314158022403717e-03
2.750000000000000222e-01 2.939917612820863724e-03
2.760000000000000231e-01 3.541294485330581665e-03
2.770000000000000240e-01 4.133203998208045959e-03
2.780000000000000249e-01 4.711410962045192719e-03
2.790000000000000258e-01 5.271745380014181137e-03
2.800000000000000266e-01 5.810196045786142349e-03
2.810000000000000275e-01 6.322881672531366348e-03
2.819999999999999729e-01 6.806134711951017380e-03
2.829999999999999738e-01 7.256552111357450485e-03
2.839999999999999747e-01 7.671006023883819580e-03
2.849999999999999756e-01 8.046690374612808228e-03
2.859999999999999765e-01 8.381141349673271179e-03
2.869999999999999774e-01 8.672296069562435150e-03
2.879999999999999782e-01 8.918464183807373047e-03
2.889999999999999791e-01 9.118361398577690125e-03
2.899999999999999800e-01 9.271160699427127838e-03
2.909999999999999809e-01 9.376425296068191528e-03
2.919999999999999818e-01 9.434150531888008118e-03
2.929999999999999827e-01 9.444762952625751495e-03
2.939999999999999836e-01 9.409087710082530975e-03
2.949999999999999845e-01 9.328336454927921295e-03
2.959999999999999853e-01 9.204087778925895691e-03
2.969999999999999862e-01 9.038277901709079742e-03
2.979999999999999871e-01 8.833149448037147522e-03
2.989999999999999880e-01 8.591205812990665436e-03
2.999999999999999889e-01 8.315233513712882996e-03
3.009999999999999898e-01 8.008211851119995117e-03
3.019999999999999907e-01 7.673278916627168655e-03
3.029999999999999916e-01 7.313723210245370865e-03
3.039999999999999925e-01 6.932917051017284393e-03
3.049999999999999933e-01 6.534286309033632278e-03
3.059999999999999942e-01 6.121266167610883713e-03
3.069999999999999951e-01 5.697274580597877502e-03
3.079999999999999960e-01 5.265680607408285141e-03
3.089999999999999969e-01 4.829737823456525803e-03
3.099999999999999978e-01 4.392589442431926727e-03
3.109999999999999987e-01 3.957249224185943604e-03
3.119999999999999996e-01 3.526530927047133446e-03
3.130000000000000004e-01 3.103064140304923058e-03
3.140000000000000013e-01 2.689275890588760376e-03
3.150000000000000022e-01 2.287362702190876007e-03
3.160000000000000031e-01 1.899289665743708611e-03
3.170000000000000040e-01 1.526775769889354706e-03
3.180000000000000049e-01 1.171306008473038673e-03
3.190000000000000058e-01 8.341252105310559273e-04
3.200000000000000067e-01 5.162172601558268070e-04
3.210000000000000075e-01 2.183530450565740466e-04
3.220000000000000084e-01 -5.891979890293441713e-05
3.230000000000000093e-01 -3.152876161038875580e-04
3.240000000000000102e-01 -5.506288725882768631e-04
3.250000000000000111e-01 -7.650063489563763142e-04
3.260000000000000120e-01 -9.586612577550113201e-04
3.270000000000000129e-01 -1.131987199187278748e-03
3.280000000000000138e-01 -1.285530393943190575e-03
3.290000000000000147e-01 -1.419946434907615185e-03
3.300000000000000155e-01 -1.535994117148220539e-03
3.310000000000000164e-01 -1.634540152736008167e-03
3.320000000000000173e-01 -1.716507948003709316e-03
3.330000000000000182e-01 -1.782872132025659084e-03
3.340000000000000191e-01 -1.834664377383887768e-03
3.350000000000000200e-01 -1.872933935374021530e-03
3.360000000000000209e-01 -1.898741349577903748e-03
3.370000000000000218e-01 -1.913148909807205200e-03
3.380000000000000226e-01 -1.917207031510770321e-03
3.390000000000000235e-01 -1.911958912387490273e-03
3.400000000000000244e-01 -1.898404443636536598e-03
3.410000000000000253e-01 -1.877502421848475933e-03
3.420000000000000262e-01 -1.850190339609980583e-03
3.430000000000000271e-01 -1.817350508645176888e-03
3.439999999999999725e-01 -1.779801212251186371e-03
3.449999999999999734e-01 -1.738321851007640362e-03
3.459999999999999742e-01 -1.693635014817118645e-03
3.469999999999999751e-01 -1.646401360630989075e-03
3.479999999999999760e-01 -1.597227295860648155e-03
3.489999999999999769e-01 -1.546661369502544403e-03
3.499999999999999778e-01 -1.495201955549418926e-03
3.509999999999999787e-01 -1.443295273929834366e-03
3.519999999999999796e-01 -1.391320256516337395e-03
3.529999999999999805e-01 -1.339624519459903240e-03
3.539999999999999813e-01 -1.288513070903718472e-03
3.549999999999999822e-01 -1.238227472640573978e-03
3.559999999999999831e-01 -1.188982045277953148e-03
3.569999999999999840e-01 -1.140956883318722248e-03
3.579999999999999849e-01 -1.094291801564395428e-03
3.589999999999999858e-01 -1.049101469106972218e-03
3.599999999999999867e-01 -1.005465863272547722e-03
3.609999999999999876e-01 -9.634419693611562252e-04
3.619999999999999885e-01 -9.230755968019366264e-04
3.629999999999999893e-01 -8.843821124173700809e-04
3.639999999999999902e-01 -8.473572670482099056e-04
3.649999999999999911e-01 -8.120000129565596581e-04
3.659999999999999920e-01 -7.782864267937839031e-04
3.669999999999999929e-01 -7.461819332093000412e-04
3.679999999999999938e-01 -7.156499195843935013e-04
3.689999999999999947e-01 -6.866487092338502407e-04
3.699999999999999956e-01 -6.591284181922674179e-04
3.709999999999999964e-01 -6.330368341878056526e-04
3.719999999999999973e-01 -6.083102780394256115e-04
3.729999999999999982e-01 -5.848955479450523853e-04
3.739999999999999991e-01 -5.627360660582780838e-04
3.750000000000000000e-01 -5.417613429017364979e-04
3.760000000000000009e-01 -5.219122394919395447e-04
3.770000000000000018e-01 -5.031424225308001041e-04
3.780000000000000027e-01 -4.853970312979072332e-04
3.790000000000000036e-01 -4.686274915002286434e-04
3.800000000000000044e-01 -4.527985292952507734e-04
3.810000000000000053e-01 -4.378726298455148935e-04
3.820000000000000062e-01 -4.238204855937510729e-04
3.830000000000000071e-01 -4.106119449716061354e-04
3.840000000000000080e-01 -3.982171183452010155e-04
3.850000000000000089e-01 -3.866197366733103991e-04
3.860000000000000098e-01 -3.758067032322287560e-04
3.870000000000000107e-01 -3.657639026641845703e-04
3.880000000000000115e-01 -3.564977378118783236e-04
3.890000000000000124e-01 -3.480269224382936954e-04
3.900000000000000133e-01 -3.403715381864458323e-04
3.910000000000000142e-01 -3.335651126690208912e-04
3.920000000000000151e-01 -3.276505158282816410e-04
3.930000000000000160e-01 -3.226785047445446253e-04
3.940000000000000169e-01 -3.187170077580958605e-04
3.950000000000000178e-01 -3.158386680297553539e-04
3.960000000000000187e-01 -3.141328343190252781e-04
3.970000000000000195e-01 -3.137194144073873758e-04
3.980000000000000204e-01 -3.147336246911436319e-04
3.990000000000000213e-01 -3.173206932842731476e-04
4.000000000000000222e-01 -3.216570185031741858e-04
4.010000000000000231e-01 -3.279438242316246033e-04
4.020000000000000240e-01 -3.363945579621940851e-04
4.030000000000000249e-01 -3.472516546025872231e-04
4.040000000000000258e-01 -3.607895923778414726e-04
4.050000000000000266e-01 -3.773134085349738598e-04
4.060000000000000275e-01 -3.971654805354773998e-04
4.069999999999999729e-01 -4.207173478789627552e-04
4.079999999999999738e-01 -4.483748343773186207e-04
4.089999999999999747e-01 -4.805866337846964598e-04
4.099999999999999756e-01 -5.178313003852963448e-04
4.109999999999999765e-01 -5.606166669167578220e-04
4.119999999999999774e-01 -6.094971904531121254e-04
4.129999999999999782e-01 -6.650685099884867668e-04
4.139999999999999791e-01 -7.279588608071208000e-04
4.149999999999999800e-01 -7.988366996869444847e-04
4.159999999999999809e-01 -8.784002275206148624e-04
4.169999999999999818e-01 -9.673764579929411411e-04
4.179999999999999827e-01 -1.066521159373223782e-03
4.189999999999999836e-01 -1.176603953354060650e-03
4.199999999999999845e-01 -1.298407325521111488e-03
4.209999999999999853e-01 -1.432733144611120224e-03
4.220000999999999891e-01 -1.580385607667267323e-03
4.229999999999999871e-01 -1.742148888297379017e-03
4.239999999999999880e-01 -1.918793888762593269e-03
4.249999999999999889e-01 -2.111061243340373039e-03
4.259999999999999898e-01 -2.319639548659324646e-03
4.269999999999999907e-01 -2.545156748965382576e-03
4.279999999999999916e-01 -2.788170007988810539e-03
4.289999999999999925e-01 -3.049146384000778198e-03
4.299999999999999933e-01 -3.328451421111822128e-03
4.309999999999999942e-01 -3.626319579780101776e-03
4.319999999999999951e-01 -3.942835610359907150e-03
4.329999999999999960e-01 -4.277923144400119781e-03
4.339999999999999969e-01 -4.631324671208858490e-03
4.349999999999999978e-01 -5.002572666853666306e-03
4.359999999999999987e-01 -5.390982143580913544e-03
4.369999999999999996e-01 -5.795638542622327805e-03
4.380000000000000004e-01 -6.215368397533893585e-03
4.390000000000000013e-01 -6.648728158324956894e-03
4.400000000000000022e-01 -7.093993946909904480e-03
4.410000000000000031e-01 -7.549139205366373062e-03
4.420000000000000040e-01 -8.011844940483570099e-03
4.430000000000000049e-01 -8.479492738842964172e-03
4.440000000000000058e-01 -8.949148468673229218e-03
4.450000000000000067e-01 -9.417587891221046448e-03
4.460000000000000075e-01 -9.881295263767242432e-03
4.470000000000000084e-01 -1.033647079020738602e-02
4.480000000000000093e-01 -1.077904459089040756e-02
4.490000000000000102e-01 -1.120470743626356125e-02
4.500000000000000111e-01 -1.160894613713026047e-02
4.510000000000000120e-01 -1.198706403374671936e-02
4.520000000000000129e-01 -1.233422756195068359e-02
4.530000000000000138e-01 -1.264550071209669113e-02
4.540000000000000147e-01 -1.291589904576539993e-02
4.550000000000000155e-01 -1.314044464379549026e-02
4.560000000000000164e-01 -1.331421174108982086e-02
4.570000000000000173e-01 -1.343238633126020432e-02
4.580000000000000182e-01 -1.349034998565912247e-02
4.590001000000000220e-01 -1.348372828215360641e-02
4.600000000000000200e-01 -1.340844854712486267e-02
4.610000000000000209e-01 -1.326081808656454086e-02
4.620000000000000218e-01 -1.303758006542921066e-02
4.630000000000000226e-01 -1.273597683757543564e-02
4.640000000000000235e-01 -1.235381420701742172e-02
4.650000000000000244e-01 -1.188951730728149414e-02
4.660000000000000253e-01 -1.134217251092195511e-02
4.670000000000000262e-01 -1.071158517152070999e-02
4.680000000000000271e-01 -9.998307563364505768e-03
4.689999999999999725e-01 -9.203657507896423340e-03
4.699999999999999734e-01 -8.329753763973712921e-03