-1.199999999999999956e-01 0.000000000000000000e+00
-1.189999999999999947e-01 0.000000000000000000e+00
-1.179999999999999938e-01 0.000000000000000000e+00
-1.170000000000000068e-01 0.000000000000000000e+00
-1.160000000000000059e-01 0.000000000000000000e+00
-1.150000000000000050e-01 0.000000000000000000e+00
-1.140000000000000041e-01 0.000000000000000000e+00
-1.130000000000000032e-01 0.000000000000000000e+00
-1.120000000000000023e-01 0.000000000000000000e+00
-1.110000000000000014e-01 0.000000000000000000e+00
-1.100000000000000006e-01 0.000000000000000000e+00
-1.089999999999999997e-01 0.000000000000000000e+00
-1.079999999999999988e-01 0.000000000000000000e+00
-1.069999999999999979e-01 0.000000000000000000e+00
-1.059999999999999970e-01 0.000000000000000000e+00
-1.049999999999999961e-01 0.000000000000000000e+00
-1.039999999999999952e-01 0.000000000000000000e+00
-1.029999999999999943e-01 0.000000000000000000e+00
-1.019999999999999934e-01 0.000000000000000000e+00
-1.010000000000000064e-01 0.000000000000000000e+00
-1.000000000000000056e-01 0.000000000000000000e+00
-9.900000999999999940e-02 0.000000000000000000e+00
-9.800000000000000377e-02 0.000000000000000000e+00
-9.700000000000000289e-02 0.000000000000000000e+00
-9.600000000000000200e-02 0.000000000000000000e+00
-9.500000999999999585e-02 0.000000000000000000e+00
-9.400000000000000022e-02 0.000000000000000000e+00
-9.299999999999999933e-02 0.000000000000000000e+00
-9.200000999999999318e-02 0.000000000000000000e+00
-9.100001000000000617e-02 0.000000000000000000e+00
-8.999999999999999667e-02 0.000000000000000000e+00
-8.899999999999999578e-02 0.000000000000000000e+00
-8.799999999999999489e-02 0.000000000000000000e+00
-8.699999999999999400e-02 0.000000000000000000e+00
-8.599999999999999312e-02 0.000000000000000000e+00
-8.500001000000000084e-02 0.000000000000000000e+00
-8.400000999999999995e-02 0.000000000000000000e+00
-8.300000000000000433e-02 0.000000000000000000e+00
-8.200000000000000344e-02 0.000000000000000000e+00
-8.100000000000000255e-02 0.000000000000000000e+00
-8.000000000000000167e-02 0.000000000000000000e+00
-7.900000000000000078e-02 0.000000000000000000e+00
-7.799999999999999989e-02 0.000000000000000000e+00
-7.700000999999999374e-02 0.000000000000000000e+00
-7.600001000000000673e-02 0.000000000000000000e+00
-7.499999999999999722e-02 0.000000000000000000e+00
-7.399999999999999634e-02 0.000000000000000000e+00
-7.299999999999999545e-02 0.000000000000000000e+00
-7.199999999999999456e-02 0.000000000000000000e+00
-7.099999999999999367e-02 0.000000000000000000e+00
-7.000001000000000140e-02 0.000000000000000000e+00
-6.900001000000000051e-02 0.000000000000000000e+00
-6.800000000000000488e-02 0.000000000000000000e+00
-6.700000000000000400e-02 0.000000000000000000e+00
-6.600000000000000311e-02 0.000000000000000000e+00
-6.500000000000000222e-02 0.000000000000000000e+00
-6.400000000000000133e-02 0.000000000000000000e+00
-6.300000000000000044e-02 0.000000000000000000e+00
-6.199999999999999956e-02 0.000000000000000000e+00
-6.099999999999999867e-02 0.000000000000000000e+00
-5.999999999999999778e-02 0.000000000000000000e+00
-5.899999999999999689e-02 0.000000000000000000e+00
-5.800000000000000294e-02 0.000000000000000000e+00
-5.700000000000000205e-02 0.000000000000000000e+00
-5.600000000000000117e-02 0.000000000000000000e+00
-5.500000000000000028e-02 0.000000000000000000e+00
-5.400001000000000106e-02 0.000000000000000000e+00
-5.299999999999999850e-02 0.000000000000000000e+00
-5.199999999999999761e-02 0.000000000000000000e+00
-5.099999999999999672e-02 0.000000000000000000e+00
-5.000000000000000278e-02 0.000000000000000000e+00
-4.900000000000000189e-02 0.000000000000000000e+00
-4.800000000000000100e-02 0.000000000000000000e+00
-4.700000000000000011e-02 0.000000000000000000e+00
-4.599999999999999922e-02 0.000000000000000000e+00
-4.499999999999999833e-02 0.000000000000000000e+00
-4.399999999999999745e-02 0.000000000000000000e+00
-4.299999999999999656e-02 1.401298464324817071e-45
-4.200000000000000261e-02 -3.534074727027188653e-42
-4.100000000000000172e-02 1.002687765630061824e-38
-4.000000000000000083e-02 -1.556764336390313696e-35
-3.899999999999999994e-02 1.230284877198083593e-32
-3.799999999999999906e-02 -4.297815738244796904e-30
-3.699999999999999817e-02 4.333196967160479433e-28
-3.599999999999999728e-02 2.338437483604551453e-26
-3.500000000000000333e-02 -4.498443813282084875e-25
-3.400000000000000244e-02 -8.188609067933323783e-23
-3.300000000000000155e-02 -4.388303009518916514e-21
-3.200000000000000067e-02 -1.571411811773179157e-19
-3.099999999999999978e-02 -3.967604068154486811e-18
-2.999999999999999889e-02 -5.717559082494722846e-17
-2.900000000000000147e-02 1.062842582359262145e-16
-2.800000000000000058e-02 2.154256692466199191e-14
-2.699999999999999969e-02 3.504781371805459900e-13
-2.599999999999999881e-02 1.539436004886762799e-12
-2.500000000000000139e-02 -1.169724733740551414e-11
-2.400000000000000050e-02 -1.097880952816154831e-10
-2.299999999999999961e-02 -5.126999866322812238e-11
-2.199999999999999872e-02 1.141436389850980504e-09
-2.100000000000000130e-02 1.158042772786416208e-09
-2.000000000000000042e-02 -2.088413886269790964e-09
-1.899999999999999953e-02 -5.731915983520075031e-11
-1.799999999999999864e-02 -9.281379553804924853e-10
-1.700000000000000122e-02 -6.069039715228541354e-10
-1.600000000000000033e-02 -4.886835380801812789e-10
-1.499999999999999944e-02 -1.511990116442873955e-10
-1.400000000000000029e-02 -5.054135998605602254e-10
-1.299999999999999940e-02 9.391029065497491501e-10
-1.200000000000000025e-02 -6.172505284673945880e-10
-1.099999999999999936e-02 1.637334601234385900e-09
-9.999997999999999526e-03 -4.244679052689548371e-10
-8.999995999999999691e-03 4.832938493848359940e-10
-8.000000999999999640e-03 -3.593781383592897782e-10
-6.999998999999999805e-03 -8.263058015600677209e-10
-5.999996999999999969e-03 3.623633393345926379e-09
-5.000003000000000260e-03 -4.710437373489639867e-09
-4.000001000000000424e-03 2.792109876637027810e-09
-2.999999000000000155e-03 -5.086372656393223224e-09
-1.999996999999999886e-03 5.724024365605373532e-09
-1.000002000000000052e-03 4.260401809119684913e-09
0.000000000000000000e+00 -2.307244706400979339e-08
1.000002000000000052e-03 -5.837085126358942944e-08
2.000004000000000105e-03 -9.138907586248024018e-08
2.999999000000000155e-03 -1.289890434463814017e-07
4.000001000000000424e-03 -1.741587283277112874e-07
4.999995000000000134e-03 -2.250487369792608661e-07
5.999996999999999969e-03 -2.877441147575154901e-07
6.999998999999999805e-03 -3.642554133875819389e-07
8.000000999999999640e-03 -4.539131452929723309e-07
9.000002999999999476e-03 -5.641514349008502904e-07
1.000001000000000015e-02 -6.990421752561815083e-07
1.100000999999999930e-02 -8.595506528763507959e-07
1.199999000000000031e-02 -1.054230551744694822e-06
1.299999999999999940e-02 -1.290095610784192104e-06
1.400000000000000029e-02 -1.571329789840092417e-06
1.499999999999999944e-02 -1.909681259348872118e-06
1.600000000000000033e-02 -2.317018015673966147e-06
1.700000000000000122e-02 -2.801531763907405548e-06
1.800001000000000032e-02 -3.378648443685960956e-06
1.900001000000000120e-02 -4.067369445692747831e-06
2.000000000000000042e-02 -4.883742349193198606e-06
2.100000000000000130e-02 -5.849844001204473898e-06
2.199999999999999872e-02 -6.993588158366037533e-06
2.299999999999999961e-02 -8.341316060977987945e-06
2.400000000000000050e-02 -9.924995538312941790e-06
2.500000999999999959e-02 -1.178559705294901505e-05
2.600001000000000048e-02 -1.396448897139634937e-05
2.699999999999999969e-02 -1.650718149903696030e-05
2.800000000000000058e-02 -1.947082819242496043e-05
2.900000000000000147e-02 -2.291763485118281096e-05
2.999999999999999889e-02 -2.691347799554932863e-05
3.099999999999999978e-02 -3.153622310492210090e-05
3.200001000000000234e-02 -3.687303615151904523e-05
3.300001000000000323e-02 -4.301622539060190320e-05
3.400000999999999718e-02 -5.007057916373014450e-05
3.500000000000000333e-02 -5.815407712361775339e-05
3.599999999999999728e-02 -6.739155651303008199e-05
3.699999999999999817e-02 -7.791972166160121560e-05
3.799999999999999906e-02 -8.989188063424080610e-05
3.899999999999999994e-02 -1.034714077832177281e-04
4.000001000000000251e-02 -1.188309906865470111e-04
4.100001000000000340e-02 -1.361605391139164567e-04
4.200000000000000261e-02 -1.556641072966158390e-04
4.299999999999999656e-02 -1.775540731614455581e-04
4.399999999999999745e-02 -2.020561369135975838e-04
4.499999999999999833e-02 -2.294103178428485990e-04
4.599999999999999922e-02 -2.598643477540463209e-04
4.700001000000000179e-02 -2.936745295301079750e-04
4.800001000000000267e-02 -3.311079926788806915e-04
4.900000999999999662e-02 -3.724359849002212286e-04
5.000000000000000278e-02 -4.179296374786645174e-04
5.099999999999999672e-02 -4.678641853388398886e-04
5.199999999999999761e-02 -5.225130007602274418e-04
5.299999999999999850e-02 -5.821386585012078285e-04
5.400001000000000106e-02 -6.469929357990622520e-04
5.500001000000000195e-02 -7.173164049163460732e-04
5.600001000000000284e-02 -7.933269953355193138e-04
5.700000000000000205e-02 -8.752134745009243488e-04
5.800000000000000294e-02 -9.631353314034640789e-04
5.899999999999999689e-02 -1.057215151377022266e-03
5.999999999999999778e-02 -1.157527556642889977e-03
6.099999999999999867e-02 -1.264095422811806202e-03
6.200001000000000123e-02 -1.376885338686406612e-03
6.300000999999999518e-02 -1.495796022936701775e-03
6.400000999999999607e-02 -1.620652037672698498e-03
6.500000000000000222e-02 -1.751199597492814064e-03
6.600000000000000311e-02 -1.887099002487957478e-03
6.700000000000000400e-02 -2.027913695201277733e-03
6.800000000000000488e-02 -2.173110144212841988e-03
6.900001000000000051e-02 -2.322053303942084312e-03
7.000001000000000140e-02 -2.473996952176094055e-03
7.100001000000000229e-02 -2.628080314025282860e-03
7.199999999999999456e-02 -2.783339237794280052e-03
7.299999999999999545e-02 -2.938678022474050522e-03
7.399999999999999634e-02 -3.092920407652854919e-03
7.499999999999999722e-02 -3.244711784645915031e-03
7.600001000000000673e-02 -3.392706857994198799e-03
7.700000999999999374e-02 -3.535301191732287407e-03
7.800000999999999463e-02 -3.670969512313604355e-03
7.900000999999999551e-02 -3.797956742346286774e-03
8.000000000000000167e-02 -3.914520610123872757e-03
8.100000000000000255e-02 -4.018859937787055969e-03
8.200000000000000344e-02 -4.109076689928770065e-03
8.300000000000000433e-02 -4.183308687061071396e-03
8.400000999999999995e-02 -4.239681176841259003e-03
8.500001000000000084e-02 -4.276298452168703079e-03
8.600001000000000173e-02 -4.291350953280925751e-03
8.700001000000000262e-02 -4.283093847334384918e-03
8.799999999999999489e-02 -4.249834455549716949e-03
8.899999999999999578e-02 -4.190026782453060150e-03
8.999999999999999667e-02 -4.102280363440513611e-03
9.100001000000000617e-02 -3.985329065471887589e-03
9.200000999999999318e-02 -3.838113509118556976e-03
9.300000999999999407e-02 -3.659819019958376884e-03
9.400000999999999496e-02 -3.449832787737250328e-03
9.500000000000000111e-02 -3.207789268344640732e-03
9.600000000000000200e-02 -2.933645388111472130e-03
9.700000000000000289e-02 -2.627647016197443008e-03
9.800000000000000377e-02 -2.290315460413694382e-03
9.900000999999999940e-02 -1.922515570186078548e-03
1.000000000000000056e-01 -1.525470870546996593e-03
1.010000000000000064e-01 -1.100716181099414825e-03
1.019999999999999934e-01 -6.500868475995957851e-04
1.029999999999999943e-01 -1.757504360284656286e-04
1.039999999999999952e-01 3.197829646524041891e-04
1.049999999999999961e-01 8.337259641848504543e-04
1.059999999999999970e-01 1.363065559417009354e-03
1.069999999999999979e-01 1.904497155919671059e-03
1.079999999999999988e-01 2.454432426020503044e-03
1.089999999999999997e-01 3.009137697517871857e-03
1.100000000000000006e-01 3.564725397154688835e-03
1.110000000000000014e-01 4.117105156183242798e-03
1.120000000000000023e-01 4.662111401557922363e-03
1.130000000000000032e-01 5.195576231926679611e-03
1.140000000000000041e-01 5.713267717510461807e-03
1.150000000000000050e-01 6.210977677255868912e-03
1.160000000000000059e-01 6.684608757495880127e-03
1.170000000000000068e-01 7.130133919417858124e-03
1.179999999999999938e-01 7.543653249740600586e-03
1.189999999999999947e-01 7.921461015939712524e-03
1.199999999999999956e-01 8.260048925876617432e-03
1.209999999999999964e-01 8.556156419217586517e-03
1.219999999999999973e-01 8.806801401078701019e-03
1.229999999999999982e-01 9.009264409542083740e-03
1.239999999999999991e-01 9.161171503365039825e-03
1.250000000000000000e-01 9.260480292141437531e-03
1.260000000000000009e-01 9.305421262979507446e-03
1.270000000000000018e-01 9.294566698372364044e-03
1.280000000000000027e-01 9.226857684552669525e-03
1.290000000000000036e-01 9.101529605686664581e-03
1.300000000000000044e-01 8.918140083551406860e-03
1.310000000000000053e-01 8.676576428115367889e-03
1.320000000000000062e-01 8.377004414796829224e-03
1.330000000000000071e-01 8.019850589334964752e-03
1.340000000000000080e-01 7.605781313031911850e-03
1.350000000000000089e-01 7.135664112865924835e-03
1.360000000000000098e-01 6.610584910959005356e-03
1.370000000000000107e-01 6.031808909028768539e-03
1.380000000000000115e-01 5.400712601840496063e-03
1.390000000000000124e-01 4.718815442174673080e-03
1.400000000000000133e-01 3.987752366811037064e-03
1.409999999999999865e-01 3.209202317520976067e-03
1.419999999999999873e-01 2.384902676567435265e-03
1.429999999999999882e-01 1.516649383120238781e-03
1.439999999999999891e-01 6.062644533812999725e-04
1.449999999999999900e-01 -3.443779132794588804e-04
1.459999999999999909e-01 -1.333367195911705494e-03
1.469999999999999918e-01 -2.358773490414023399e-03
1.479999999999999927e-01 -3.418593900278210640e-03
1.489999999999999936e-01 -4.510758444666862488e-03
1.499999999999999944e-01 -5.633146967738866806e-03
1.509999999999999953e-01 -6.783514749258756638e-03
1.519999999999999962e-01 -7.959453389048576355e-03
1.529999999999999971e-01 -9.158391505479812622e-03
1.539999999999999980e-01 -1.037754677236080170e-02
1.549999999999999989e-01 -1.161388773471117020e-02
1.559999999999999998e-01 -1.286411564797163010e-02
1.570000000000000007e-01 -1.412459369748830795e-02
1.580000000000000016e-01 -1.539133675396442413e-02
1.590000000000000024e-01 -1.665998995304107666e-02
1.600000000000000033e-01 -1.792574301362037659e-02
1.610000000000000042e-01 -1.918332464993000031e-02
1.620000000000000051e-01 -2.042702212929725647e-02
1.630000000000000060e-01 -2.165064215660095215e-02
1.640000000000000069e-01 -2.284748852252960205e-02
1.650000000000000078e-01 -2.401039935648441315e-02
1.660000000000000087e-01 -2.513173967599868774e-02
1.670000000000000095e-01 -2.620342373847961426e-02
1.680000000000000104e-01 -2.721697278320789337e-02
1.690000000000000113e-01 -2.816352434456348419e-02
1.700000000000000122e-01 -2.903392352163791656e-02
1.710000000000000131e-01 -2.981881611049175262e-02
1.719999999999999862e-01 -3.050868771970272064e-02
1.729999999999999871e-01 -3.109395317733287811e-02
1.739999999999999880e-01 -3.156509250402450562e-02
1.749999999999999889e-01 -3.191274031996726990e-02
1.759999999999999898e-01 -3.212780132889747620e-02
1.769999999999999907e-01 -3.220161795616149902e-02
1.779999999999999916e-01 -3.212605789303779602e-02
1.789999999999999925e-01 -3.189364448189735413e-02
1.799999999999999933e-01 -3.149774298071861267e-02
1.809999999999999942e-01 -3.093263506889343262e-02
1.819999999999999951e-01 -3.019364736974239349e-02
1.829999999999999960e-01 -2.927730605006217957e-02
1.839999999999999969e-01 -2.818145789206027985e-02
1.849999999999999978e-01 -2.690532803535461426e-02
1.859999999999999987e-01 -2.544963918626308441e-02
1.869999999999999996e-01 -2.381667308509349823e-02
1.880000000000000004e-01 -2.201032452285289764e-02
1.890000000000000013e-01 -2.003614604473114014e-02
1.900000000000000022e-01 -1.790136098861694336e-02
1.910000000000000031e-01 -1.561484299600124359e-02
1.920000000000000040e-01 -1.318713091313838959e-02
1.930000000000000049e-01 -1.063035055994987488e-02
1.940000000000000058e-01 -7.958118803799152374e-03
1.950000000000000067e-01 -5.185465794056653976e-03
1.960000000000000075e-01 -2.328737173229455948e-03
1.970000000000000084e-01 5.945707089267671108e-04
1.980000000000000093e-01 3.565951716154813766e-03
1.990000000000000102e-01 6.566072814166545868e-03
2.000000000000000111e-01 9.574972093105316162e-03
2.010000000000000120e-01 1.257225312292575836e-02
2.020000000000000129e-01 1.553729176521301270e-02
2.030000000000000138e-01 1.844948530197143555e-02
2.039999999999999869e-01 2.128843963146209717e-02
2.049999999999999878e-01 2.403419464826583862e-02
2.059999999999999887e-01 2.666745334863662720e-02
2.069999999999999896e-01 2.916981466114521027e-02
2.079999999999999905e-01 3.152395784854888916e-02
2.089999999999999913e-01 3.371383622288703918e-02
2.099999999999999922e-01 3.572483733296394348e-02
2.109999999999999931e-01 3.754396736621856689e-02
2.119999999999999940e-01 3.915995731949806213e-02
2.129999999999999949e-01 4.056341573596000671e-02
2.139999999999999958e-01 4.174687340855598450e-02
2.149999999999999967e-01 4.270487278699874878e-02
2.159999999999999976e-01 4.343402385711669922e-02
2.169999999999999984e-01 4.393297061324119568e-02
2.179999999999999993e-01 4.420239850878715515e-02
2.190000000000000002e-01 4.424499347805976868e-02
2.200000000000000011e-01 4.406538605690002441e-02
2.210000000000000020e-01 4.367004334926605225e-02
2.220000000000000029e-01 4.306719452142715454e-02
2.230000000000000038e-01 4.226664453744888306e-02
2.240000000000000047e-01 4.127965867519378662e-02
2.250000000000000056e-01 4.011881723999977112e-02
2.260000000000000064e-01 3.879781067371368408e-02
2.270000000000000073e-01 3.733126819133758545e-02
2.280000000000000082e-01 3.573459014296531677e-02
2.290000000000000091e-01 3.402373939752578735e-02
2.300000000000000100e-01 3.221503645181655884e-02
2.310000000000000109e-01 3.032499551773071289e-02
2.320000000000000118e-01 2.837011776864528656e-02
2.330000000000000127e-01 2.636673487722873688e-02
2.340000000000000135e-01 2.433085069060325623e-02
2.349999999999999867e-01 2.227797545492649078e-02
2.359999999999999876e-01 2.022296562790870667e-02
2.369999999999999885e-01 1.817992702126502991e-02
2.379999999999999893e-01 1.616209745407104492e-02
2.389999999999999902e-01 1.418175082653760910e-02
2.399999999999999911e-01 1.225012633949518204e-02
2.409999999999999920e-01 1.037737540900707245e-02
2.419999999999999929e-01 8.572502993047237396e-03
2.429999999999999938e-01 6.843360606580972672e-03
2.439999999999999947e-01 5.196631886065006256e-03
2.449999999999999956e-01 3.637825604528188705e-03
2.459999999999999964e-01 2.171313622966408730e-03
2.469999999999999973e-01 8.003787370398640633e-04
2.479999999999999982e-01 -4.727651539724320173e-04
2.489999999999999991e-01 -1.646925578825175762e-03
2.500000000000000000e-01 -2.721851225942373276e-03
2.510000000000000009e-01 -3.698162036016583443e-03
2.520000000000000018e-01 -4.577277693897485733e-03
2.530000000000000027e-01 -5.361331626772880554e-03
2.540000000000000036e-01 -6.053098011761903763e-03
2.550000000000000044e-01 -6.655910518020391464e-03
2.560000000000000053e-01 -7.173571269959211349e-03
2.570000000000000062e-01 -7.610272150486707687e-03
2.580000000000000071e-01 -7.970530539751052856e-03
2.590000000000000080e-01 -8.259087800979614258e-03
2.600000000000000089e-01 -8.480844087898731232e-03
2.610000000000000098e-01 -8.640802465379238129e-03
2.620000000000000107e-01 -8.744010701775550842e-03
2.630000000000000115e-01 -8.795491419732570648e-03
2.640000000000000124e-01 -8.800206705927848816e-03
2.650000000000000133e-01 -8.762995712459087372e-03
2.660000000000000142e-01 -8.688535541296005249e-03
2.670000000000000151e-01 -8.581327274441719055e-03
2.680000000000000160e-01 -8.445671759545803070e-03
2.690000000000000169e-01 -8.285625837743282318e-03
2.700000000000000178e-01 -8.104998618364334106e-03
2.710000000000000187e-01 -7.907344028353691101e-03
2.720000000000000195e-01 -7.695945911109447479e-03
2.730000000000000204e-01 -7.473810575902462006e-03
2.740000000000000213e-01 -7.243683561682701111e-03
2.750000000000000222e-01 -7.008047308772802353e-03
2.760000000000000231e-01 -6.769125349819660187e-03
2.770000000000000240e-01 -6.528899073600769043e-03
2.780000000000000249e-01 -6.289102602750062943e-03
2.790000000000000258e-01 -6.051233038306236267e-03
2.800000000000000266e-01 -5.816589109599590302e-03
2.810000000000000275e-01 -5.586281418800354004e-03
2.819999999999999729e-01 -5.361226387321949005e-03
2.829999999999999738e-01 -5.142173729836940765e-03
2.839999999999999747e-01 -4.929722752422094345e-03
2.849999999999999756e-01 -4.724327474832534790e-03
2.859999999999999765e-01 -4.526322241872549057e-03
2.869999999999999774e-01 -4.335939418524503708e-03
2.879999999999999782e-01 -4.153310786932706833e-03
2.889999999999999791e-01 -3.978482447564601898e-03
2.899999999999999800e-01 -3.811434376984834671e-03
2.909999999999999809e-01 -3.652081126347184181e-03
2.919999999999999818e-01 -3.500277874991297722e-03
2.929999999999999827e-01 -3.355846973136067390e-03
2.939999999999999836e-01 -3.218583762645721436e-03
2.949999999999999845e-01 -3.088251454755663872e-03
2.959999999999999853e-01 -2.964593237265944481e-03
2.969999999999999862e-01 -2.847332740202546120e-03
2.979999999999999871e-01 -2.736182650551199913e-03
2.989999999999999880e-01 -2.630858682096004486e-03
2.999999999999999889e-01 -2.531083067879080772e-03
3.009999999999999898e-01 -2.436568494886159897e-03
3.019999999999999907e-01 -2.347028348594903946e-03
3.029999999999999916e-01 -2.262193709611892700e-03
3.039999999999999925e-01 -2.181796357035636902e-03
3.049999999999999933e-01 -2.105574589222669601e-03
3.059999999999999942e-01 -2.033284632489085197e-03
3.069999999999999951e-01 -1.964696682989597321e-03
3.079999999999999960e-01 -1.899586059153079987e-03
3.089999999999999969e-01 -1.837740070186555386e-03
3.099999999999999978e-01 -1.778956619091331959e-03
3.109999999999999987e-01 -1.723039895296096802e-03
3.119999999999999996e-01 -1.669814926572144032e-03
3.130000000000000004e-01 -1.619125599972903728e-03
3.140000000000000013e-01 -1.570814056321978569e-03
3.150000000000000022e-01 -1.524727558717131615e-03
3.160000000000000031e-01 -1.480730017647147179e-03
3.170000000000000040e-01 -1.438692910596728325e-03
3.180000000000000049e-01 -1.398499240167438984e-03
3.190000000000000058e-01 -1.360045978799462318e-03
3.200000000000000067e-01 -1.323228469118475914e-03
3.210000000000000075e-01 -1.287946477532386780e-03
3.220000000000000084e-01 -1.254111994057893753e-03
3.230000000000000093e-01 -1.221645274199545383e-03
3.240000000000000102e-01 -1.190464943647384644e-03
3.250000000000000111e-01 -1.160500687547028065e-03
3.260000000000000120e-01 -1.131693017669022083e-03
3.270000000000000129e-01 -1.103979768231511116e-03
3.280000000000000138e-01 -1.077296677976846695e-03
3.290000000000000147e-01 -1.051588449627161026e-03
3.300000000000000155e-01 -1.026805723085999489e-03
3.310000000000000164e-01 -1.002905308268964291e-03
3.320000000000000173e-01 -9.798492537811398506e-04
3.330000000000000182e-01 -9.575933800078928471e-04
3.340000000000000191e-01 -9.360906551592051983e-04
3.350000000000000200e-01 -9.153077844530344009e-04
3.360000000000000209e-01 -8.952155476436018944e-04
3.370000000000000218e-01 -8.757818141020834446e-04
3.380000000000000226e-01 -8.569774799980223179e-04
3.390000000000000235e-01 -8.387762936763465405e-04
3.400000000000000244e-01 -8.211477543227374554e-04
3.410000000000000253e-01 -8.040635730139911175e-04
3.420000000000000262e-01 -7.875058799982070923e-04
3.430000000000000271e-01 -7.714524981565773487e-04
3.439999999999999725e-01 -7.558807265013456345e-04
3.449999999999999734e-01 -7.407760131172835827e-04
3.459999999999999742e-01 -7.261180435307323933e-04
3.469999999999999751e-01 -7.118817884474992752e-04
3.479999999999999760e-01 -6.980504840612411499e-04
3.489999999999999769e-01 -6.846152828074991703e-04
3.499999999999999778e-01 -6.715626223012804985e-04
3.509999999999999787e-01 -6.588769028894603252e-04
3.519999999999999796e-01 -6.465411861427128315e-04
3.529999999999999805e-01 -6.345381261780858040e-04
3.539999999999999813e-01 -6.228567799553275108e-04
3.549999999999999822e-01 -6.114933057688176632e-04
3.559999999999999831e-01 -6.004355964250862598e-04
3.569999999999999840e-01 -5.896676448173820972e-04
3.579999999999999849e-01 -5.791806033812463284e-04
3.589999999999999858e-01 -5.689644603990018368e-04
3.599999999999999867e-01 -5.590067594312131405e-04
3.609999999999999876e-01 -5.493023199960589409e-04
3.619999999999999885e-01 -5.398460198193788528e-04
3.629999999999999893e-01 -5.306272068992257118e-04
3.639999999999999902e-01 -5.216354620642960072e-04
3.649999999999999911e-01 -5.128644406795501709e-04
3.659999999999999920e-01 -5.043037817813456059e-04
3.669999999999999929e-01 -4.959477228112518787e-04
3.679999999999999938e-01 -4.877960309386253357e-04
3.689999999999999947e-01 -4.798434092663228512e-04
3.699999999999999956e-01 -4.720759461633861065e-04
3.709999999999999964e-01 -4.644861037377268076e-04
3.719999999999999973e-01 -4.570703022181987762e-04
3.729999999999999982e-01 -4.498262132983654737e-04
3.739999999999999991e-01 -4.427519452292472124e-04
3.750000000000000000e-01 -4.358412988949567080e-04
3.760000000000000009e-01 -4.290830111131072044e-04
3.770000000000000018e-01 -4.224707663524895906e-04
3.780000000000000027e-01 -4.160073294769972563e-04
3.790000000000000036e-01 -4.096881311852484941e-04
3.800000000000000044e-01 -4.035057791043072939e-04
3.810000000000000053e-01 -3.974597784690558910e-04
3.820000000000000062e-01 -3.915457054972648621e-04
3.830000000000000071e-01 -3.857552364934235811e-04
3.840000000000000080e-01 -3.800850536208599806e-04
3.850000000000000089e-01 -3.745356807485222816e-04
3.860000000000000098e-01 -3.691043821163475513e-04
3.870000000000000107e-01 -3.637884801719337702e-04
3.880000000000000115e-01 -3.585841041058301926e-04
3.890000000000000124e-01 -3.534829011186957359e-04
3.900000000000000133e-01 -3.484800690785050392e-04
3.910000000000000142e-01 -3.435823309700936079e-04
3.920000000000000151e-01 -3.387876786291599274e-04
3.930000000000000160e-01 -3.340893308632075787e-04
3.940000000000000169e-01 -3.294833877589553595e-04
3.950000000000000178e-01 -3.249655710533261299e-04
3.960000000000000187e-01 -3.205333487130701542e-04
3.970000000000000195e-01 -3.161897184327244759e-04
3.980000000000000204e-01 -3.119363100267946720e-04
3.990000000000000213e-01 -3.077633737120777369e-04
4.000000000000000222e-01 -3.036662237718701363e-04
4.010000000000000231e-01 -2.996480325236916542e-04
4.020000000000000240e-01 -2.957062097266316414e-04
4.030000000000000249e-01 -2.918367681559175253e-04
4.040000000000000258e-01 -2.880411338992416859e-04
4.050000000000000266e-01 -2.843193360604345798e-04
4.060000000000000275e-01 -2.806646516546607018e-04
4.069999999999999729e-01 -2.770751307252794504e-04
4.079999999999999738e-01 -2.735492889769375324e-04
4.089999999999999747e-01 -2.700875338632613420e-04
4.099999999999999756e-01 -2.666910004336386919e-04
4.109999999999999765e-01 -2.633594849612563848e-04
4.119999999999999774e-01 -2.600855368655174971e-04
4.129999999999999782e-01 -2.568640047684311867e-04
4.139999999999999791e-01 -2.536987594794481993e-04
4.149999999999999800e-01 -2.505929442122578621e-04
4.159999999999999809e-01 -2.475425717420876026e-04
4.169999999999999818e-01 -2.445464488118886948e-04
4.179999999999999827e-01 -2.416006318526342511e-04
4.189999999999999836e-01 -2.387006825301796198e-04
4.199999999999999845e-01 -2.358497004024684429e-04
4.209999999999999853e-01 -2.330524002900347114e-04
4.220000999999999891e-01 -2.303037181263789535e-04
4.229999999999999871e-01 -2.275986335007473826e-04
4.239999999999999880e-01 -2.249384706374257803e-04
4.249999999999999889e-01 -2.223223418695852160e-04
4.259999999999999898e-01 -2.197476424043998122e-04
4.269999999999999907e-01 -2.172158274333924055e-04
4.279999999999999916e-01 -2.147287304978817701e-04
4.289999999999999925e-01 -2.122826408594846725e-04
4.299999999999999933e-01 -2.098743862006813288e-04
4.309999999999999942e-01 -2.075036463793367147e-04
4.319999999999999951e-01 -2.051681804005056620e-04
4.329999999999999960e-01 -2.028719900408759713e-04
4.339999999999999969e-01 -2.006169524975121021e-04
4.349999999999999978e-01 -1.983989059226587415e-04
4.359999999999999987e-01 -1.962100213859230280e-04
4.369999999999999996e-01 -1.940532383741810918e-04
4.380000000000000004e-01 -1.919319038279354572e-04
4.390000000000000013e-01 -1.898452901514247060e-04
4.400000000000000022e-01 -1.877930480986833572e-04
4.410000000000000031e-01 -1.857720199041068554e-04
4.420000000000000040e-01 -1.837785093812271953e-04
4.430000000000000049e-01 -1.818130258470773697e-04
4.440000000000000058e-01 -1.798796001821756363e-04
4.450000000000000067e-01 -1.779780577635392547e-04
4.460000000000000075e-01 -1.761047169566154480e-04
4.470000000000000084e-01 -1.742588210618123412e-04
4.480000000000000093e-01 -1.724392786854878068e-04
4.490000000000000102e-01 -1.706446782918646932e-04
4.500000000000000111e-01 -1.688769989414140582e-04
4.510000000000000120e-01 -1.671373174758628011e-04
4.520000000000000129e-01 -1.654241932556033134e-04
4.530000000000000138e-01 -1.637353125261142850e-04
4.540000000000000147e-01 -1.620701368665322661e-04
4.550000000000000155e-01 -1.604260905878618360e-04
4.560000000000000164e-01 -1.588044979143887758e-04
4.570000000000000173e-01 -1.572107576066628098e-04
4.580000000000000182e-01 -1.556429342599585652e-04
4.590001000000000220e-01 -1.540938392281532288e-04
4.600000000000000200e-01 -1.525624393252655864e-04
4.610000000000000209e-01 -1.510531146777793765e-04
4.620000000000000218e-01 -1.495668111601844430e-04
4.630000000000000226e-01 -1.481031649746000767e-04
4.640000000000000235e-01 -1.466608227929100394e-04
4.650000000000000244e-01 -1.452362630516290665e-04
4.660000000000000253e-01 -1.438273611711338162e-04
4.670000000000000262e-01 -1.424393267370760441e-04
4.680000000000000271e-01 -1.410734112141653895e-04