 -0.12000000000000000          0.0000000000000000
 -0.11889999999999999          0.0000000000000000
 -0.11780000000000000          0.0000000000000000
 -0.11670000000000000          0.0000000000000000
 -0.11559999999999999          0.0000000000000000
 -0.11449999999999999          0.0000000000000000
 -0.11340000000000000          0.0000000000000000
 -0.11230000000000000          0.0000000000000000
 -0.11119999999999999          0.0000000000000000
 -0.11009999999999999          0.0000000000000000
 -0.10900000000000000          0.0000000000000000
 -0.10790000000000000          0.0000000000000000
 -0.10679999999999999          0.0000000000000000
 -0.10569999999999999          0.0000000000000000
 -0.10460000000000000          0.0000000000000000
 -0.10349999999999999          0.0000000000000000
 -0.10239999999999999          0.0000000000000000
 -0.10130000000000000          1.9314121957161312E-038
 -0.10020000000000000         -7.5781256857342652E-038
  -9.9099999999999994E-002    -2.3686053775225580E-037
  -9.7999999999999990E-002     2.3040955601513076E-036
  -9.6899999999999986E-002     5.7889943295933543E-038
  -9.5799999999999996E-002    -3.4944961751831832E-035
  -9.4699999999999993E-002     2.8432806274194752E-035
  -9.3599999999999989E-002     3.9417053097307192E-034
  -9.2499999999999999E-002    -4.1312657124153136E-034
  -9.1399999999999995E-002    -3.7573909179286539E-033
  -9.0299999999999991E-002     3.4174489719303874E-033
  -8.9200000000000002E-002     3.1596338938414799E-032
  -8.8099999999999984E-002    -1.6453964543219707E-032
  -8.6999999999999994E-002    -2.3471843317275738E-031
  -8.5899999999999990E-002    -3.1437534794406493E-033
  -8.4799999999999986E-002     1.5118062938580821E-030
  -8.3699999999999997E-002     9.6947758705536566E-031
  -8.2599999999999993E-002    -8.1690605632993569E-030
  -8.1499999999999989E-002    -1.1438210034857088E-029
  -8.0399999999999999E-002     3.4766285502970761E-029
  -7.9299999999999995E-002     8.7477814467289545E-029
  -7.8199999999999992E-002    -9.6454862827570109E-029
  -7.7100000000000002E-002    -5.0348662089742201E-028
  -7.5999999999999984E-002    -2.3846316885074819E-029
  -7.4899999999999994E-002     2.2161866537128417E-027
  -7.3799999999999991E-002     2.2836546759666487E-027
  -7.2699999999999987E-002    -6.9387920185608429E-027
  -7.1599999999999997E-002    -1.6393025730046299E-026
  -7.0499999999999993E-002     9.9998589091940935E-027
  -6.9399999999999989E-002     7.3272963076952715E-026
  -6.8300000000000000E-002     4.2752332165892290E-026
  -6.7199999999999996E-002    -2.1728798925382790E-025
  -6.6099999999999992E-002    -3.9428342865929534E-025
  -6.5000000000000002E-002     2.9600886272009186E-025
  -6.3899999999999985E-002     1.6577880368783354E-024
  -6.2799999999999995E-002     9.6610039846903199E-025
  -6.1699999999999991E-002    -4.1325038611245410E-024
  -6.0599999999999994E-002    -7.9081041717608449E-024
  -5.9499999999999990E-002     3.0338766055154158E-024
  -5.8399999999999994E-002     2.7065599932523074E-023
  -5.7299999999999990E-002     2.4240648010159559E-023
  -5.6199999999999986E-002    -4.6631423508463088E-023
  -5.5099999999999996E-002    -1.2461344156785754E-022
  -5.3999999999999992E-002    -2.9612412121480144E-023
  -5.2899999999999989E-002     2.9122242985057119E-022
  -5.1799999999999985E-002     4.4413192081369743E-022
  -5.0699999999999995E-002    -1.6841956921060243E-022
  -4.9599999999999991E-002    -1.3077783039755012E-021
  -4.8499999999999988E-002    -1.2784091513136423E-021
  -4.7399999999999998E-002     1.4145183283762618E-021
  -4.6299999999999994E-002     4.7750333719008984E-021
  -4.5199999999999990E-002     3.0985761654613770E-021
  -4.4099999999999986E-002    -6.3425309391660825E-021
  -4.2999999999999997E-002    -1.5058559710825044E-020
  -4.1899999999999993E-002    -7.0256617638934083E-021
  -4.0799999999999989E-002     2.1064180148056992E-020
  -3.9699999999999985E-002     4.2842236551792854E-020
  -3.8599999999999995E-002     1.8789796970641292E-020
  -3.7499999999999992E-002    -5.4608454250356325E-020
  -3.6399999999999988E-002    -1.1360081065087884E-019
  -3.5299999999999984E-002    -6.7716501074148589E-020
  -3.4199999999999994E-002     1.0299799663447706E-019
  -3.3099999999999991E-002     2.8347321910887990E-019
  -3.1999999999999987E-002     2.7091398077212243E-019
  -3.0899999999999997E-002    -7.3058885834413532E-020
  -2.9799999999999993E-002    -6.4252412132913999E-019
  -2.8699999999999989E-002    -9.8929219278420602E-019
  -2.7599999999999986E-002    -4.7437034861477977E-019
  -2.6499999999999996E-002     1.1668177667424272E-018
  -2.5399999999999992E-002     3.0402353398090364E-018
  -2.4299999999999988E-002     2.9736237258510599E-018
  -2.3199999999999985E-002    -9.1920611006077711E-019
  -2.2099999999999995E-002    -7.4135276578483180E-018
  -2.0999999999999991E-002    -1.0854286331797368E-017
  -1.9899999999999987E-002    -4.4719952310418653E-018
  -1.8799999999999983E-002     1.2324350062065384E-017
  -1.7699999999999994E-002     2.8849948800926370E-017
  -1.6599999999999990E-002     2.7391998303548581E-017
  -1.5499999999999986E-002    -2.9333733240393827E-018
  -1.4399999999999996E-002    -5.2092145753057696E-017
  -1.3299999999999992E-002    -8.7133346224318916E-017
  -1.2199999999999989E-002    -6.7578902422683749E-017
  -1.1099999999999985E-002     2.7003547670448779E-017
  -9.9999999999999950E-003     1.6931198645856360E-016
  -8.8999999999999913E-003     2.7278259314961314E-016
  -7.7999999999999875E-003     2.1641715625149015E-016
  -6.6999999999999837E-003    -8.0199627162323819E-017
  -5.5999999999999939E-003    -5.5099572628231042E-016
  -4.4999999999999901E-003    -9.1909332232989428E-016
  -3.3999999999999864E-003    -7.7278495077374456E-016
  -2.2999999999999826E-003     1.7499283791245118E-016
  -1.1999999999999927E-003     1.7388301034633328E-015
  -9.9999999999988987E-005     3.0624020927770080E-015
   1.0000000000000148E-003     2.8381528728485105E-015
   2.1000000000000185E-003     5.3843895914763295E-017
   3.2000000000000084E-003    -4.9650204161520630E-015
   4.3000000000000121E-003    -9.8359075197769139E-015
   5.4000000000000159E-003    -1.0521842423759972E-014
   6.5000000000000058E-003    -3.3292782457760781E-015
   7.6000000000000234E-003     1.1960211941382075E-014
   8.7000000000000133E-003     2.9482069319490198E-014
   9.8000000000000032E-003     3.7523569727760872E-014
   1.0900000000000021E-002     2.3234991269318814E-014
   1.2000000000000011E-002    -1.8785505174535345E-014
   1.3100000000000001E-002    -7.7669736419337665E-014
   1.4200000000000018E-002    -1.2313801779455236E-013
   1.5300000000000008E-002    -1.1368801679147861E-013
   1.6400000000000026E-002    -1.7686966122384615E-014
   1.7500000000000016E-002     1.5864662827793502E-013
   1.8600000000000005E-002     3.5069608892226989E-013
   1.9700000000000023E-002     4.4054335375000309E-013
   2.0800000000000013E-002     3.0007731867918996E-013
   2.1900000000000003E-002    -1.3280362595215200E-013
   2.3000000000000020E-002    -7.7358697789589592E-013
   2.4100000000000010E-002    -1.3536791045737351E-012
   2.5200000000000000E-002    -1.4736813115298619E-012
   2.6300000000000018E-002    -7.6680518488678184E-013
   2.7400000000000008E-002     8.6273951307655472E-013
   2.8500000000000025E-002     3.0244771530990588E-012
   2.9600000000000015E-002     4.7866185841349829E-012
   3.0700000000000005E-002     4.8986105970205696E-012
   3.1800000000000023E-002     2.3125401333451423E-012
   3.2900000000000013E-002    -3.1295957578919564E-012
   3.4000000000000002E-002    -1.0129808450387578E-011
   3.5100000000000020E-002    -1.5848227244430468E-011
   3.6200000000000010E-002    -1.6574934133539720E-011
   3.7300000000000028E-002    -9.1790542181002799E-012
   3.8400000000000017E-002     7.0256972982407628E-012
   3.9500000000000007E-002     2.8727542913942195E-011
   4.0600000000000025E-002     4.8272958547146416E-011
   4.1700000000000015E-002     5.5237373702832215E-011
   4.2800000000000005E-002     4.0005998513947816E-011
   4.3900000000000022E-002    -1.4371131238158363E-012
   4.5000000000000012E-002    -6.3189321830581235E-011
   4.6100000000000002E-002    -1.2770226542890839E-010
   4.7200000000000020E-002    -1.6843310080005836E-010
   4.8300000000000010E-002    -1.5741821735026917E-010
   4.9400000000000027E-002    -7.6404473026148167E-011
   5.0500000000000017E-002     7.1805061896412781E-011
   5.1600000000000007E-002     2.5637331146910469E-010
   5.2700000000000025E-002     4.2017656021187122E-010
   5.3800000000000014E-002     4.9261683621182328E-010
   5.4900000000000004E-002     4.1231992820023322E-010
   5.6000000000000022E-002     1.5443687995109201E-010
   5.7100000000000012E-002    -2.4606042203778600E-010
   5.8200000000000002E-002    -6.8483146931086480E-010
   5.9300000000000019E-002    -1.0000578143376515E-009
   6.0400000000000009E-002    -1.0082013002232770E-009
   6.1500000000000027E-002    -5.5865045922587342E-010
   6.2600000000000017E-002     4.0509257059895276E-010
   6.3700000000000007E-002     1.7948552644142524E-009
   6.4800000000000024E-002     3.3552389755442391E-009
   6.5900000000000014E-002     4.6811461373863494E-009
   6.7000000000000004E-002     5.2776081282956966E-009
   6.8100000000000022E-002     4.6519459395710783E-009
   6.9200000000000012E-002     2.4171227241964743E-009
   7.0300000000000029E-002    -1.6214904974276578E-009
   7.1400000000000019E-002    -7.4229236091127859E-009
   7.2500000000000009E-002    -1.4729622854758873E-008
   7.3600000000000027E-002    -2.3152040284912800E-008
   7.4700000000000016E-002    -3.2304111385883516E-008
   7.5800000000000006E-002    -4.1959843599670421E-008
   7.6900000000000024E-002    -5.2192696387010074E-008
   7.8000000000000014E-002    -6.3462600508046307E-008
   7.9100000000000004E-002    -7.6628090539543336E-008
   8.0200000000000021E-002    -9.2882693536466832E-008
   8.1300000000000011E-002    -1.1363651708506950E-007
   8.2400000000000029E-002    -1.4038069195976277E-007
   8.3500000000000019E-002    -1.7458236811762617E-007
   8.4600000000000009E-002    -2.1764806490409683E-007
   8.5700000000000026E-002    -2.7097766519545985E-007
   8.6800000000000016E-002    -3.3610518812565715E-007
   8.7900000000000006E-002    -4.1489641944281175E-007
   8.9000000000000024E-002    -5.0975131671293639E-007
   9.0100000000000013E-002    -6.2377051790463156E-007
   9.1200000000000003E-002    -7.6084785405328148E-007
   9.2300000000000021E-002    -9.2568012632909813E-007
   9.3400000000000011E-002    -1.1237190165047650E-006
   9.4500000000000028E-002    -1.3611083886644337E-006
   9.5600000000000018E-002    -1.6446566633021575E-006
   9.6700000000000008E-002    -1.9818810415017651E-006
   9.7800000000000026E-002    -2.3811367100279313E-006
   9.8900000000000016E-002    -2.8518350063677644E-006
  0.10000000000000001         -3.4046768178086495E-006
  0.10110000000000002         -4.0518907553632744E-006
  0.10220000000000001         -4.8073834477690980E-006
  0.10330000000000003         -5.6868288993427996E-006
  0.10440000000000002         -6.7076684899802785E-006
  0.10550000000000001         -7.8890052463975735E-006
  0.10660000000000003         -9.2515301730600186E-006
  0.10770000000000002         -1.0817461770784575E-005
  0.10880000000000001         -1.2610517842404079E-005
  0.10990000000000003         -1.4655925042461604E-005
  0.11100000000000002         -1.6980424334178679E-005
  0.11210000000000001         -1.9612180039985105E-005
  0.11320000000000002         -2.2580712538911030E-005
  0.11430000000000001         -2.5916684535332024E-005
  0.11540000000000003         -2.9651531804120168E-005
  0.11650000000000002         -3.3817035728134215E-005
  0.11760000000000001         -3.8444712117780000E-005
  0.11870000000000003         -4.3565112719079480E-005
  0.11980000000000002         -4.9207283154828474E-005
  0.12090000000000001         -5.5397886171704158E-005
  0.12200000000000003         -6.2160317611414939E-005
  0.12310000000000001         -6.9513793278019875E-005
  0.12420000000000003         -7.7472039265558124E-005
  0.12530000000000002         -8.6042717157397419E-005
  0.12640000000000001         -9.5225987024605274E-005
  0.12750000000000003         -1.0501364886295050E-004
  0.12860000000000002         -1.1538752733031288E-004
  0.12970000000000001         -1.2631836580112576E-004
  0.13080000000000003         -1.3776477135252208E-004
  0.13190000000000002         -1.4967203605920076E-004
  0.13300000000000001         -1.6197130025830120E-004
  0.13410000000000000         -1.7457794456277043E-004
  0.13520000000000004         -1.8739077495411038E-004
  0.13630000000000003         -2.0029132429044694E-004
  0.13740000000000002         -2.1314354671631008E-004
  0.13850000000000001         -2.2579418146051466E-004
  0.13960000000000000         -2.3807268007658422E-004
  0.14070000000000005         -2.4979177396744490E-004
  0.14180000000000004         -2.6074843481183052E-004
  0.14290000000000003         -2.7072569355368614E-004
  0.14400000000000002         -2.7949444483965635E-004
  0.14510000000000001         -2.8681621188297868E-004
  0.14620000000000000         -2.9244454344734550E-004
  0.14730000000000004         -2.9612911748699844E-004
  0.14840000000000003         -2.9761873884126544E-004
  0.14950000000000002         -2.9666544287465513E-004
  0.15060000000000001         -2.9302909388206899E-004
  0.15170000000000000         -2.8648209990933537E-004
  0.15280000000000005         -2.7681491337716579E-004
  0.15390000000000004         -2.6384042575955391E-004
  0.15500000000000003         -2.4740016669966280E-004
  0.15610000000000002         -2.2736859682481736E-004
  0.15720000000000001         -2.0365799719002098E-004
  0.15830000000000000         -1.7622399900574237E-004
  0.15940000000000004         -1.4506925072055310E-004
  0.16050000000000003         -1.1024718696717173E-004
  0.16160000000000002         -7.1864356868900359E-005
  0.16270000000000001         -3.0083352612564340E-005
  0.16380000000000000          1.4874907719786279E-005
  0.16490000000000005          6.2730388890486211E-005
  0.16600000000000004          1.1314474249957129E-004
  0.16710000000000003          1.6572320600971580E-004
  0.16820000000000002          2.2001710021868348E-004
  0.16930000000000001          2.7552794199436903E-004
  0.17040000000000000          3.3171227551065385E-004
  0.17150000000000004          3.8798872265033424E-004
  0.17260000000000003          4.4374412391334772E-004
  0.17370000000000002          4.9834296805784106E-004
  0.17480000000000001          5.5113498819991946E-004
  0.17590000000000000          6.0146412579342723E-004
  0.17700000000000005          6.4867996843531728E-004
  0.17810000000000004          6.9214770337566733E-004
  0.17920000000000003          7.3125911876559258E-004
  0.18030000000000002          7.6544284820556641E-004
  0.18140000000000001          7.9417356755584478E-004
  0.18250000000000000          8.1698386929929256E-004
  0.18360000000000004          8.3347322652116418E-004
  0.18470000000000003          8.4331457037478685E-004
  0.18580000000000002          8.4626174066215754E-004
  0.18690000000000001          8.4215536480769515E-004
  0.18800000000000000          8.3092600107192993E-004
  0.18910000000000005          8.1259658327326179E-004
  0.19020000000000004          7.8728160588070750E-004
  0.19130000000000003          7.5518991798162460E-004
  0.19240000000000002          7.1662315167486668E-004
  0.19350000000000001          6.7196984309703112E-004
  0.19460000000000005          6.2169617740437388E-004
  0.19570000000000004          5.6634173961356282E-004
  0.19680000000000003          5.0651270430535078E-004
  0.19790000000000002          4.4287377386353910E-004
  0.19900000000000001          3.7613546010106802E-004
  0.20010000000000000          3.0704119126312435E-004
  0.20120000000000005          2.3635421530343592E-004
  0.20230000000000004          1.6484766092617065E-004
  0.20340000000000003          9.3295049737207592E-005
  0.20450000000000002          2.2457548766396940E-005
  0.20560000000000000         -4.6928962547099218E-005
  0.20670000000000005         -1.1416562483645976E-004
  0.20780000000000004         -1.7859997751656920E-004
  0.20890000000000003         -2.3963375133462250E-004
