 -0.12000000000000000          0.0000000000000000
 -0.11889999999999999          0.0000000000000000
 -0.11780000000000000          0.0000000000000000
 -0.11670000000000000          0.0000000000000000
 -0.11559999999999999          0.0000000000000000
 -0.11449999999999999          0.0000000000000000
 -0.11340000000000000          0.0000000000000000
 -0.11230000000000000          0.0000000000000000
 -0.11119999999999999          0.0000000000000000
 -0.11009999999999999          0.0000000000000000
 -0.10900000000000000          0.0000000000000000
 -0.10790000000000000          0.0000000000000000
 -0.10679999999999999          0.0000000000000000
 -0.10569999999999999          0.0000000000000000
 -0.10460000000000000          0.0000000000000000
 -0.10349999999999999          0.0000000000000000
 -0.10239999999999999          0.0000000000000000
 -0.10130000000000000         -1.9314127562355169E-038
 -0.10020000000000000          7.5856540216040038E-038
  -9.9099999999999994E-002     2.3697185690226177E-037
  -9.7999999999999990E-002    -2.3039947563449780E-036
  -9.6899999999999986E-002    -5.7818449048283691E-038
  -9.5799999999999996E-002     3.4944996190142891E-035
  -9.4699999999999993E-002    -2.8432737397572634E-035
  -9.3599999999999989E-002    -3.9417020954883537E-034
  -9.2499999999999999E-002     4.1312634165279097E-034
  -9.1399999999999995E-002     3.7573883465347615E-033
  -9.0299999999999991E-002    -3.4174478699044335E-033
  -8.9200000000000002E-002    -3.1596321305999537E-032
  -8.8099999999999984E-002     1.6454010093625801E-032
  -8.6999999999999994E-002     2.3471829211343528E-031
  -8.5899999999999990E-002     3.1434952380254530E-033
  -8.4799999999999986E-002    -1.5118060117394379E-030
  -8.3699999999999997E-002    -9.6947514202711595E-031
  -8.2599999999999993E-002     8.1690628202485104E-030
  -8.1499999999999989E-002     1.1438198750111320E-029
  -8.0399999999999999E-002    -3.4766291521501837E-029
  -7.9299999999999995E-002    -8.7477790393165240E-029
  -7.8199999999999992E-002     9.6454923012880871E-029
  -7.7100000000000002E-002     5.0348638015617896E-028
  -7.5999999999999984E-002     2.3846052069707466E-029
  -7.4899999999999994E-002    -2.2161860759338584E-027
  -7.3799999999999991E-002    -2.2836529426296988E-027
  -7.2699999999999987E-002     6.9387889370729319E-027
  -7.1599999999999997E-002     1.6393013404094655E-026
  -7.0499999999999993E-002    -9.9998473536144272E-027
  -6.9399999999999989E-002    -7.3272919936121961E-026
  -6.8300000000000000E-002    -4.2752304432501091E-026
  -6.7199999999999996E-002     2.1728786599431146E-025
  -6.6099999999999992E-002     3.9428315748835917E-025
  -6.5000000000000002E-002    -2.9600873946057542E-025
  -6.3899999999999985E-002    -1.6577870508022039E-024
  -6.2799999999999995E-002    -9.6609921517767416E-025
  -6.1699999999999991E-002     4.1325030722636358E-024
  -6.0599999999999994E-002     7.9081025940390345E-024
  -5.9499999999999990E-002    -3.0338764083001895E-024
  -5.8399999999999994E-002    -2.7065596777079453E-023
  -5.7299999999999990E-002    -2.4240636966106886E-023
  -5.6199999999999986E-002     4.6631414042132225E-023
  -5.5099999999999996E-002     1.2461346681140651E-022
  -5.3999999999999992E-002     2.9612402655149281E-023
  -5.2899999999999989E-002    -2.9122250558121809E-022
  -5.1799999999999985E-002    -4.4413202178789330E-022
  -5.0699999999999995E-002     1.6841954396705347E-022
  -4.9599999999999991E-002     1.3077784049496971E-021
  -4.8499999999999988E-002     1.2784095552104258E-021
  -4.7399999999999998E-002    -1.4145189342214370E-021
  -4.6299999999999994E-002    -4.7750345835912488E-021
  -4.5199999999999990E-002    -3.0985761654613770E-021
  -4.4099999999999986E-002     6.3425305352692990E-021
  -4.2999999999999997E-002     1.5058559710825044E-020
  -4.1899999999999993E-002     7.0256682262419439E-021
  -4.0799999999999989E-002    -2.1064180148056992E-020
  -3.9699999999999985E-002    -4.2842252707664193E-020
  -3.8599999999999995E-002    -1.8789827666796836E-020
  -3.7499999999999992E-002     5.4608473637401931E-020
  -3.6399999999999988E-002     1.1360088819906127E-019
  -3.5299999999999984E-002     6.7716513998845660E-020
  -3.4199999999999994E-002    -1.0299808710735656E-019
  -3.3099999999999991E-002    -2.8347332250645647E-019
  -3.1999999999999987E-002    -2.7091392907333415E-019
  -3.0899999999999997E-002     7.3059047393126921E-020
  -2.9799999999999993E-002     6.4252417302792827E-019
  -2.8699999999999989E-002     9.8929239957935916E-019
  -2.7599999999999986E-002     4.7436998672326177E-019
  -2.6499999999999996E-002    -1.1668182837303100E-018
  -2.5399999999999992E-002    -3.0402355466041896E-018
  -2.4299999999999988E-002    -2.9736226918752942E-018
  -2.3199999999999985E-002     9.1920941878322732E-019
  -2.2099999999999995E-002     7.4135301393901557E-018
  -2.0999999999999991E-002     1.0854282195894305E-017
  -1.9899999999999987E-002     4.4719832369229833E-018
  -1.8799999999999983E-002    -1.2324357506690897E-017
  -1.7699999999999994E-002    -2.8849942183481470E-017
  -1.6599999999999990E-002    -2.7391966870685304E-017
  -1.5499999999999986E-002     2.9333909016273995E-018
  -1.4399999999999996E-002     5.2092132518167896E-017
  -1.3299999999999992E-002     8.7133293284759713E-017
  -1.2199999999999989E-002     6.7578836248234744E-017
  -1.1099999999999985E-002    -2.7003567522783480E-017
  -9.9999999999999950E-003    -1.6931192028411460E-016
  -8.8999999999999913E-003    -2.7278238139137633E-016
  -7.7999999999999875E-003    -2.1641687831880433E-016
  -6.6999999999999837E-003     8.0199647014658521E-017
  -5.5999999999999939E-003     5.5099530276583679E-016
  -4.4999999999999901E-003     9.1909268705518384E-016
  -3.3999999999999864E-003     7.7278442137815252E-016
  -2.2999999999999826E-003    -1.7499275850311238E-016
  -1.1999999999999927E-003    -1.7388289387930303E-015
  -9.9999999999988987E-005    -3.0623999751946398E-015
   1.0000000000000148E-003    -2.8381505435079056E-015
   2.1000000000000185E-003    -5.3844637068592143E-017
   3.2000000000000084E-003     4.9650140634049586E-015
   4.3000000000000121E-003     9.8358990494474413E-015
   5.4000000000000159E-003     1.0521839882661130E-014
   6.5000000000000058E-003     3.3292869278637874E-015
   7.6000000000000234E-003    -1.1960203471052602E-014
   8.7000000000000133E-003    -2.9482065931358409E-014
   9.8000000000000032E-003    -3.7523569727760872E-014
   1.0900000000000021E-002    -2.3234986187121130E-014
   1.2000000000000011E-002     1.8785496704205873E-014
   1.3100000000000001E-002     7.7669688985492619E-014
   1.4200000000000018E-002     1.2313793647938942E-013
   1.5300000000000008E-002     1.1368796258136998E-013
   1.6400000000000026E-002     1.7687055907877024E-014
   1.7500000000000016E-002    -1.5864645209508199E-013
   1.8600000000000005E-002    -3.5069589918688970E-013
   1.9700000000000023E-002    -4.4054324532978584E-013
   2.0800000000000013E-002    -3.0007737288929859E-013
   2.1900000000000003E-002     1.3280324648139163E-013
   2.3000000000000020E-002     7.7358621895437518E-013
   2.4100000000000010E-002     1.3536784540524316E-012
   2.5200000000000000E-002     1.4736815283702964E-012
   2.6300000000000018E-002     7.6680675697993195E-013
   2.7400000000000008E-002    -8.6273734467220975E-013
   2.8500000000000025E-002    -3.0244754183755829E-012
   2.9600000000000015E-002    -4.7866194514967209E-012
   3.0700000000000005E-002    -4.8986140664675215E-012
   3.1800000000000023E-002    -2.3125420849090528E-012
   3.2900000000000013E-002     3.1295983599771704E-012
   3.4000000000000002E-002     1.0129813654558006E-011
   3.5100000000000020E-002     1.5848228979153944E-011
   3.6200000000000010E-002     1.6574930664092768E-011
   3.7300000000000028E-002     9.1790507486533279E-012
   3.8400000000000017E-002    -7.0257012013685838E-012
   3.9500000000000007E-002    -2.8727553322283050E-011
   4.0600000000000025E-002    -4.8272965486040320E-011
   4.1700000000000015E-002    -5.5237377172279167E-011
   4.2800000000000005E-002    -4.0005991575053912E-011
   4.3900000000000022E-002     1.4371747064992335E-012
   4.5000000000000012E-002     6.3189446730671506E-011
   4.6100000000000002E-002     1.2770234869563524E-010
   4.7200000000000020E-002     1.6843301753333151E-010
   4.8300000000000010E-002     1.5741787040557398E-010
   4.9400000000000027E-002     7.6404056692513933E-011
   5.0500000000000017E-002    -7.1805186796503051E-011
   5.1600000000000007E-002    -2.5637300615777292E-010
   5.2700000000000025E-002    -4.2017575530017837E-010
   5.3800000000000014E-002    -4.9261594803340358E-010
   5.4900000000000004E-002    -4.1231931757756968E-010
   5.6000000000000022E-002    -1.5443661627312366E-010
   5.7100000000000012E-002     2.4606022774875669E-010
   5.8200000000000002E-002     6.8482969295402540E-010
   5.9300000000000019E-002     1.0000542616239727E-009
   6.0400000000000009E-002     1.0081986356880179E-009
   6.1500000000000027E-002     5.5865162496004928E-010
   6.2600000000000017E-002    -4.0508779663994687E-010
   6.3700000000000007E-002    -1.7948537101020179E-009
   6.4800000000000024E-002    -3.3552403078118687E-009
   6.5900000000000014E-002    -4.6811443610295100E-009
   6.7000000000000004E-002    -5.2776041314928079E-009
   6.8100000000000022E-002    -4.6519397223221404E-009
   6.9200000000000012E-002    -2.4171142865014872E-009
   7.0300000000000029E-002     1.6214726228369614E-009
   7.1400000000000019E-002     7.4228800883702206E-009
   7.2500000000000009E-002     1.4729594433049442E-008
   7.3600000000000027E-002     2.3152018968630728E-008
   7.4700000000000016E-002     3.2304114938597195E-008
   7.5800000000000006E-002     4.1959854257811458E-008
   7.6900000000000024E-002     5.2192735466860540E-008
   7.8000000000000014E-002     6.3462643140610453E-008
   7.9100000000000004E-002     7.6628126066680124E-008
   8.0200000000000021E-002     9.2882750379885692E-008
   8.1300000000000011E-002     1.1363653840135157E-007
   8.2400000000000029E-002     1.4038059248377976E-007
   8.3500000000000019E-002     1.7458219758736959E-007
   8.4600000000000009E-002     2.1764789437384024E-007
   8.5700000000000026E-002     2.7097760835204099E-007
   8.6800000000000016E-002     3.3610555760787975E-007
   8.7900000000000006E-002     4.1489650470794004E-007
   8.9000000000000024E-002     5.0975148724319297E-007
   9.0100000000000013E-002     6.2377108633882017E-007
   9.1200000000000003E-002     7.6084842248747009E-007
   9.2300000000000021E-002     9.2568012632909813E-007
   9.3400000000000011E-002     1.1237183343837387E-006
   9.4500000000000028E-002     1.3611085023512715E-006
   9.5600000000000018E-002     1.6446557538074558E-006
   9.6700000000000008E-002     1.9818771761492826E-006
   9.7800000000000026E-002     2.3811342089175014E-006
   9.8900000000000016E-002     2.8518361432361417E-006
  0.10000000000000001          3.4046813652821584E-006
  0.10110000000000002          4.0518912101106253E-006
  0.10220000000000001          4.8073789002955891E-006
  0.10330000000000003          5.6868243518692907E-006
  0.10440000000000002          6.7076675804855768E-006
  0.10550000000000001          7.8890088843763806E-006
  0.10660000000000003          9.2515319920494221E-006
  0.10770000000000002          1.0817463589773979E-005
  0.10880000000000001          1.2610517842404079E-005
  0.10990000000000003          1.4655931408924516E-005
  0.11100000000000002          1.6980418877210468E-005
  0.11210000000000001          1.9612169126048684E-005
  0.11320000000000002          2.2580696168006398E-005
  0.11430000000000001          2.5916666345437989E-005
  0.11540000000000003          2.9651533623109572E-005
  0.11650000000000002          3.3817050280049443E-005
  0.11760000000000001          3.8444701203843579E-005
  0.11870000000000003          4.3565134546952322E-005
  0.11980000000000002          4.9207334086531773E-005
  0.12090000000000001          5.5397966207237914E-005
  0.12200000000000003          6.2160353991203010E-005
  0.12310000000000001          6.9513691414613277E-005
  0.12420000000000003          7.7471944678109139E-005
  0.12530000000000002          8.6042804468888789E-005
  0.12640000000000001          9.5226234407164156E-005
  0.12750000000000003          1.0501384531380609E-004
  0.12860000000000002          1.1538751277839765E-004
  0.12970000000000001          1.2631811841856688E-004
  0.13080000000000003          1.3776445121038705E-004
  0.13190000000000002          1.4967190509196371E-004
  0.13300000000000001          1.6197122749872506E-004
  0.13410000000000000          1.7457774083595723E-004
  0.13520000000000004          1.8739049846772105E-004
  0.13630000000000003          2.0029130973853171E-004
  0.13740000000000002          2.1314405603334308E-004
  0.13850000000000001          2.2579521464649588E-004
  0.13960000000000000          2.3807364050298929E-004
  0.14070000000000005          2.4979203590191901E-004
  0.14180000000000004          2.6074802735820413E-004
  0.14290000000000003          2.7072508237324655E-004
  0.14400000000000002          2.7949409559369087E-004
  0.14510000000000001          2.8681571711786091E-004
  0.14620000000000000          2.9244393226690590E-004
  0.14730000000000004          2.9612844809889793E-004
  0.14840000000000003          2.9761824407614768E-004
  0.14950000000000002          2.9666550108231604E-004
  0.15060000000000001          2.9302973416633904E-004
  0.15170000000000000          2.8648329316638410E-004
  0.15280000000000005          2.7681607753038406E-004
  0.15390000000000004          2.6384118245914578E-004
  0.15500000000000003          2.4740002118051052E-004
  0.15610000000000002          2.2736766550224274E-004
  0.15720000000000001          2.0365726959425956E-004
  0.15830000000000000          1.7622407176531851E-004
  0.15940000000000004          1.4506978914141655E-004
  0.16050000000000003          1.1024715058738366E-004
  0.16160000000000002          7.1863381890580058E-005
  0.16270000000000001          3.0082195735303685E-005
  0.16380000000000000         -1.4875126908009406E-005
  0.16490000000000005         -6.2729559431318194E-005
  0.16600000000000004         -1.1314378207316622E-004
  0.16710000000000003         -1.6572288586758077E-004
  0.16820000000000002         -2.2001737670507282E-004
  0.16930000000000001         -2.7552791289053857E-004
  0.17040000000000000         -3.3171160612255335E-004
  0.17150000000000004         -3.8798747118562460E-004
  0.17260000000000003         -4.4374362914822996E-004
  0.17370000000000002         -4.9834384117275476E-004
  0.17480000000000001         -5.5113690905272961E-004
  0.17590000000000000         -6.0146616306155920E-004
  0.17700000000000005         -6.4868084155023098E-004
  0.17810000000000004         -6.9214723771438003E-004
  0.17920000000000003         -7.3125789640471339E-004
  0.18030000000000002         -7.6544150942936540E-004
  0.18140000000000001         -7.9417269444093108E-004
  0.18250000000000000         -8.1698293797671795E-004
  0.18360000000000004         -8.3347177132964134E-004
  0.18470000000000003         -8.4331393009051681E-004
  0.18580000000000002         -8.4626348689198494E-004
  0.18690000000000001         -8.4215949755162001E-004
  0.18800000000000000         -8.3093042485415936E-004
  0.18910000000000005         -8.1259838771075010E-004
  0.19020000000000004         -7.8728067455813289E-004
  0.19130000000000003         -7.5518869562074542E-004
  0.19240000000000002         -7.1662239497527480E-004
  0.19350000000000001         -6.7196815507486463E-004
  0.19460000000000005         -6.2169320881366730E-004
  0.19570000000000004         -5.6633847998455167E-004
  0.19680000000000003         -5.0651072524487972E-004
  0.19790000000000002         -4.4287371565587819E-004
  0.19900000000000001         -3.7613708991557360E-004
  0.20010000000000000         -3.0704395612701774E-004
  0.20120000000000005         -2.3635786783415824E-004
  0.20230000000000004         -1.6485141532029957E-004
  0.20340000000000003         -9.3297268904279917E-005
  0.20450000000000002         -2.2457334125647321E-005
  0.20560000000000000          4.6930697862990201E-005
  0.20670000000000005          1.1416757479310036E-004
  0.20780000000000004          1.7860202933661640E-004
  0.20890000000000003          2.3963692365214229E-004
