  -1.3200000000000002E-002     0.0000000000000000
  -1.2100000000000001E-002     0.0000000000000000
  -1.1000000000000001E-002     0.0000000000000000
  -9.9000000000000025E-003     0.0000000000000000
  -8.8000000000000023E-003     0.0000000000000000
  -7.7000000000000011E-003     0.0000000000000000
  -6.6000000000000017E-003     0.0000000000000000
  -5.5000000000000014E-003     0.0000000000000000
  -4.4000000000000011E-003     0.0000000000000000
  -3.3000000000000008E-003     0.0000000000000000
  -2.2000000000000006E-003     0.0000000000000000
  -1.1000000000000003E-003     0.0000000000000000
  -1.7347234759768071E-018     0.0000000000000000
   1.0999999999999985E-003     0.0000000000000000
   2.1999999999999988E-003     0.0000000000000000
   3.2999999999999991E-003     0.0000000000000000
   4.3999999999999994E-003     0.0000000000000000
   5.4999999999999997E-003     0.0000000000000000
   6.6000000000000000E-003     0.0000000000000000
   7.7000000000000002E-003     0.0000000000000000
   8.8000000000000005E-003     0.0000000000000000
   9.9000000000000008E-003    -8.6886385455492530E-029
   1.1000000000000001E-002     5.5120365379255460E-028
   1.2100000000000001E-002     1.3972860561842500E-027
   1.3199999999999998E-002    -5.1274479725168478E-027
   1.4299999999999998E-002    -2.6451519961583251E-026
   1.5399999999999999E-002     7.5248902488647888E-027
   1.6500000000000001E-002     3.2672910317356440E-025
   1.7599999999999998E-002     5.7962146656792758E-025
   1.8700000000000001E-002    -2.4602049251098914E-024
   1.9799999999999998E-002    -1.0580887980950847E-023
   2.0900000000000002E-002     5.6971278195267276E-024
   2.1999999999999999E-002     1.0754799467254966E-022
   2.3099999999999996E-002     1.2318666355846412E-022
   2.4199999999999999E-002    -6.9239747911764846E-022
   2.5299999999999996E-002    -2.0080877676717033E-021
   2.6400000000000000E-002     2.1042545820747036E-021
   2.7499999999999997E-002     1.7098908936025058E-020
   2.8600000000000000E-002     1.0746782217077220E-020
   2.9699999999999997E-002    -9.2906477171861087E-020
   3.0800000000000001E-002    -1.9701600421680482E-019
   3.1899999999999998E-002     2.6013447322206108E-019
   3.3000000000000002E-002     1.4607148315873648E-018
   3.4099999999999998E-002     6.5729451684082827E-019
   3.5200000000000002E-002    -6.5881201069382977E-018
   3.6299999999999999E-002    -1.2448123578663531E-017
   3.7400000000000003E-002     1.4134188982287519E-017
   3.8500000000000000E-002     7.7172655663637071E-017
   3.9599999999999996E-002     4.4379877681082790E-017
   4.0700000000000000E-002    -2.7192174297740676E-016
   4.1799999999999997E-002    -5.6514281762779254E-016
   4.2900000000000001E-002     3.1728369249510436E-016
   4.3999999999999997E-002     2.6744192865618861E-015
   4.5100000000000001E-002     2.5215798145263729E-015
   4.6199999999999998E-002    -6.4469820608881352E-015
   4.7300000000000002E-002    -1.8186683374012656E-014
   4.8399999999999999E-002    -2.7405348667762942E-015
   4.9500000000000002E-002     5.8745719335069613E-014
   5.0600000000000006E-002     9.1861170363125022E-014
   5.1699999999999996E-002    -6.2674549523768913E-014
   5.2800000000000000E-002    -3.8151345147299787E-013
   5.3900000000000003E-002    -3.4418461461981076E-013
   5.5000000000000007E-002     6.7197484555914233E-013
   5.6099999999999997E-002     1.9739594073892031E-012
   5.7200000000000001E-002     8.5643596164572400E-013
   5.8300000000000005E-002    -4.3688100012650999E-012
   5.9399999999999994E-002    -8.5938027527543426E-012
   6.0499999999999998E-002    -4.6138380659435652E-013
   6.1600000000000002E-002     2.2035968536004980E-011
   6.2700000000000006E-002     3.2764010254870968E-011
   6.3799999999999996E-002    -8.5556796022845383E-012
   6.4899999999999999E-002    -9.3108805387931426E-011
   6.6000000000000003E-002    -1.1366604879547992E-010
   6.7100000000000007E-002     5.5007855909172676E-011
   6.8199999999999997E-002     3.4153799233216375E-010
   6.9300000000000000E-002     3.7312836154157480E-010
   7.0400000000000004E-002    -2.0640661402282490E-010
   7.1500000000000008E-002    -1.1049828829712283E-009
   7.2599999999999998E-002    -1.1949357059393151E-009
   7.3700000000000002E-002     4.9861931250561042E-010
   7.4800000000000005E-002     3.1450169135638362E-009
   7.5899999999999995E-002     3.7522225326824810E-009
   7.6999999999999999E-002    -3.5484032379073938E-010
   7.8100000000000003E-002    -7.6300485929436945E-009
   7.9200000000000007E-002    -1.1220604001493939E-008
   8.0299999999999996E-002    -3.7878047365325074E-009
   8.1400000000000000E-002     1.4200915998685559E-008
   8.2500000000000004E-002     3.0109688964330417E-008
   8.3600000000000008E-002     2.4952109711762205E-008
   8.4699999999999998E-002    -1.1568010549467544E-008
   8.5800000000000001E-002    -6.5531402526630700E-008
   8.6900000000000005E-002    -9.5197826510684536E-008
   8.8000000000000009E-002    -4.9983224670313575E-008
   8.9099999999999999E-002     8.6952965716591279E-008
   9.0200000000000002E-002     2.5283989657509665E-007
   9.1300000000000006E-002     3.0112846616248135E-007
   9.2399999999999996E-002     8.1865643153378187E-008
   9.3500000000000000E-002    -4.0734303752287815E-007
   9.4600000000000004E-002    -9.0282992459833622E-007
   9.5700000000000007E-002    -9.3126919864516822E-007
   9.6799999999999997E-002    -1.0053292243128453E-007
   9.7900000000000001E-002     1.4942651205274160E-006
   9.9000000000000005E-002     3.0196301850082818E-006
  0.10010000000000001          3.0854166652716231E-006
  0.10120000000000000          4.7989840368245495E-007
  0.10230000000000000         -4.7102107600949239E-006
  0.10340000000000001         -1.0147614375455305E-005
  0.10450000000000001         -1.1361204997228924E-005
  0.10560000000000000         -3.7688034808525117E-006
  0.10670000000000000          1.3488715921994299E-005
  0.10780000000000001          3.3746415283530951E-005
  0.10890000000000001          4.2407940782140940E-005
  0.11000000000000000          2.2908210667083040E-005
  0.11110000000000000         -3.1232186302077025E-005
  0.11220000000000001         -1.0368484072387218E-004
  0.11330000000000000         -1.5140381583478302E-004
  0.11440000000000002         -1.1838664067909122E-004
  0.11550000000000001          3.1413223041454330E-005
  0.11660000000000000          2.7334754122421145E-004
  0.11770000000000001          4.9746490549296141E-004
  0.11880000000000000          5.2774779032915831E-004
  0.11989999999999999          2.0012554887216538E-004
  0.12100000000000001         -5.1611056551337242E-004
  0.12210000000000000         -1.4066807925701141E-003
  0.12320000000000002         -1.9895217847079039E-003
  0.12430000000000001         -1.6516097821295261E-003
  0.12540000000000001          4.0370774513576180E-005
  0.12650000000000003          2.9409085400402546E-003
  0.12760000000000002          6.0321125201880932E-003
  0.12870000000000001          7.4854195117950439E-003
  0.12980000000000003          5.2620512433350086E-003
  0.13090000000000002         -1.7838233616203070E-003
  0.13200000000000001         -1.2658680789172649E-002
  0.13310000000000002         -2.3484032601118088E-002
  0.13420000000000001         -2.7956126257777214E-002
  0.13530000000000003         -1.9416144117712975E-002
  0.13640000000000002          5.7237306609749794E-003
  0.13750000000000001          4.4285796582698822E-002
  0.13860000000000003          8.4123194217681885E-002
  0.13970000000000002         0.10527946054935455
  0.14080000000000001          8.5637494921684265E-002
  0.14190000000000003          1.0554469190537930E-002
  0.14300000000000002        -0.11614154279232025
  0.14410000000000003        -0.26424744725227356
  0.14520000000000002        -0.37738707661628723
  0.14630000000000001        -0.38486155867576599
  0.14740000000000003        -0.22507403790950775
  0.14850000000000002         0.12450150400400162
  0.14960000000000001         0.62038093805313110
  0.15070000000000003          1.1408606767654419
  0.15180000000000002          1.4983032941818237
  0.15290000000000001          1.4793869256973267
  0.15400000000000003         0.90754699707031250
  0.15510000000000002        -0.28760805726051331
  0.15620000000000003         -2.0154857635498047
  0.15730000000000002         -4.0059366226196289
  0.15840000000000001         -5.8414916992187500
  0.15950000000000003         -7.0411138534545898
  0.16060000000000002         -7.1794443130493164
  0.16170000000000001         -6.0111165046691895
  0.16280000000000003         -3.5635378360748291
  0.16390000000000002        -0.16640891134738922
  0.16500000000000001          3.5973503589630127
  0.16610000000000003          7.0129365921020508
  0.16720000000000002          9.3982858657836914
  0.16830000000000003          10.269384384155273
  0.16940000000000002          9.4617824554443359
  0.17050000000000001          7.1746034622192383
  0.17160000000000003          3.9229180812835693
  0.17270000000000002         0.41152745485305786
  0.17380000000000001         -2.6378231048583984
  0.17490000000000003         -4.6580209732055664
  0.17600000000000002         -5.3619761466979980
  0.17710000000000004         -4.7901268005371094
  0.17820000000000003         -3.2717154026031494
  0.17930000000000001         -1.3166599273681641
  0.18040000000000003         0.52760887145996094
  0.18150000000000002          1.8151139020919800
  0.18260000000000001          2.3022575378417969
  0.18370000000000003          1.9894747734069824
  0.18480000000000002          1.0966535806655884
  0.18590000000000001         -1.8880251795053482E-002
  0.18700000000000003        -0.97870647907257080
  0.18810000000000002         -1.4996335506439209
  0.18920000000000003         -1.4739713668823242
  0.19030000000000002        -0.98919790983200073
  0.19140000000000001        -0.28213888406753540
  0.19250000000000003         0.35377553105354309
  0.19360000000000002         0.67451006174087524
  0.19470000000000001         0.56947743892669678
  0.19580000000000003          9.7999416291713715E-002
  0.19690000000000002        -0.53122895956039429
  0.19800000000000001         -1.0321133136749268
  0.19910000000000003         -1.1463450193405151
  0.20020000000000002        -0.75119823217391968
  0.20130000000000003          7.0115178823471069E-002
  0.20240000000000002          1.0324209928512573
  0.20350000000000001          1.7407921552658081
  0.20460000000000003          1.8448479175567627
  0.20570000000000002          1.1931232213973999
  0.20680000000000001         -8.1349849700927734E-002
  0.20790000000000003         -1.5836627483367920
  0.20900000000000002         -2.7787935733795166
  0.21010000000000004         -3.1643521785736084
  0.21120000000000003         -2.4354102611541748
  0.21230000000000002        -0.59444934129714966
  0.21340000000000003          2.0203785896301270
  0.21450000000000002          4.7991528511047363
  0.21560000000000001          7.0098991394042969
  0.21670000000000003          8.0035009384155273
  0.21780000000000002          7.4142990112304688
  0.21890000000000001          5.2814693450927734
  0.22000000000000003          2.0363550186157227
  0.22110000000000002         -1.6419780254364014
  0.22220000000000004         -5.0359716415405273
  0.22330000000000003         -7.5690627098083496
  0.22440000000000002         -8.8944339752197266
  0.22550000000000003         -8.8984375000000000
  0.22660000000000002         -7.6697192192077637
  0.22770000000000001         -5.4728488922119141
  0.22880000000000003         -2.7188363075256348
  0.22990000000000002         0.10090661048889160
  0.23100000000000004          2.5202217102050781
  0.23210000000000003          4.1997551918029785
  0.23320000000000002          4.9694652557373047
  0.23430000000000004          4.8045711517333984
  0.23540000000000003          3.7853591442108154
  0.23650000000000002          2.0960750579833984
  0.23760000000000003          5.9301257133483887E-002
  0.23870000000000002         -1.8619784116744995
  0.23980000000000001         -3.1624794006347656
  0.24090000000000000         -3.4814774990081787
  0.24200000000000005         -2.7734820842742920
  0.24310000000000004         -1.3384089469909668
  0.24420000000000003         0.32438176870346069
  0.24530000000000002          1.7416232824325562
  0.24640000000000001          2.6176846027374268
  0.24750000000000005          2.8368062973022461
  0.24860000000000004          2.3870480060577393
  0.24970000000000003          1.3404957056045532
  0.25080000000000002         -7.1510121226310730E-002
  0.25190000000000001         -1.4079674482345581
  0.25300000000000000         -2.1455423831939697
  0.25410000000000005         -1.9727959632873535
  0.25520000000000004         -1.0310099124908447
  0.25630000000000003         0.13767036795616150
  0.25740000000000002         0.94239014387130737
  0.25850000000000001          1.1253939867019653
  0.25960000000000005         0.85783159732818604
  0.26070000000000004         0.48571205139160156
  0.26180000000000003         0.18315625190734863
  0.26290000000000002        -0.14794056117534637
  0.26400000000000001        -0.63936042785644531
  0.26510000000000000         -1.1394674777984619
  0.26620000000000005         -1.1945105791091919
  0.26730000000000004        -0.43831682205200195
  0.26840000000000003         0.93405449390411377
  0.26950000000000002          2.1119256019592285
  0.27060000000000001          2.2174239158630371
  0.27170000000000005          1.0532124042510986
  0.27280000000000004        -0.64285850524902344
  0.27390000000000003         -1.7547398805618286
  0.27500000000000002         -1.7143287658691406
  0.27610000000000001        -0.94235324859619141
  0.27720000000000000        -0.36095470190048218
  0.27830000000000005        -0.43223470449447632
  0.27940000000000004        -0.67881792783737183
  0.28050000000000003        -0.20472019910812378
  0.28160000000000002          1.2571654319763184
  0.28270000000000001          2.8227055072784424
  0.28380000000000005          3.0758893489837646
  0.28490000000000004          1.3661262989044189
  0.28600000000000003         -1.4016882181167603
  0.28710000000000002         -3.3186497688293457
  0.28820000000000001         -3.0183768272399902
  0.28930000000000000        -0.89169913530349731
  0.29040000000000005          1.1927658319473267
  0.29150000000000004          1.5338230133056641
  0.29260000000000003         0.16253924369812012
  0.29370000000000002         -1.1808612346649170
  0.29480000000000001        -0.74901533126831055
  0.29590000000000005          1.3953841924667358
  0.29700000000000004          3.2575719356536865
  0.29810000000000003          2.7415914535522461
  0.29920000000000002        -0.24036245048046112
  0.30030000000000001         -3.4435231685638428
  0.30140000000000006         -4.1863389015197754
  0.30250000000000005         -1.7819412946701050
  0.30360000000000004          1.7497162818908691
  0.30470000000000003          3.4069910049438477
  0.30580000000000002          1.8673684597015381
  0.30690000000000001         -1.2985378503799438
  0.30800000000000005         -3.0008242130279541
  0.30910000000000004         -1.4455467462539673
  0.31020000000000003          2.1086118221282959
  0.31130000000000002          4.3346948623657227
  0.31240000000000001          2.8370094299316406
  0.31350000000000006         -1.4981092214584351
  0.31460000000000005         -5.0687308311462402
  0.31570000000000004         -4.7123808860778809
