  -1.3200000000000002E-002     0.0000000000000000
  -1.2100000000000001E-002     0.0000000000000000
  -1.1000000000000001E-002     0.0000000000000000
  -9.9000000000000025E-003     0.0000000000000000
  -8.8000000000000023E-003     0.0000000000000000
  -7.7000000000000011E-003     0.0000000000000000
  -6.6000000000000017E-003     5.2154883008059731E-025
  -5.5000000000000014E-003     3.2497379398221515E-024
  -4.4000000000000011E-003     1.7600128928257623E-023
  -3.3000000000000008E-003     9.3378923165964016E-023
  -2.2000000000000006E-003     3.3916618973918547E-022
  -1.1000000000000003E-003     5.8960019414295698E-022
  -1.7347234759768071E-018    -8.7907943071960699E-022
   1.0999999999999985E-003    -7.4404338721583646E-021
   2.1999999999999988E-003    -8.7397463985780726E-021
   3.2999999999999991E-003     6.7909175995736624E-020
   4.3999999999999994E-003     3.4385132921762749E-019
   5.4999999999999997E-003     5.3412370471650253E-019
   6.6000000000000000E-003    -1.0019432998677452E-018
   7.7000000000000002E-003    -6.1199557325679853E-018
   8.8000000000000005E-003    -8.5418384093176001E-018
   9.9000000000000008E-003     1.5540513483274648E-017
   1.1000000000000001E-002     8.0117451731550351E-017
   1.2100000000000001E-002     9.4427484422815618E-017
   1.3199999999999998E-002    -1.7545603258570128E-016
   1.4299999999999998E-002    -7.6626824985448439E-016
   1.5399999999999999E-002    -8.0237302923119895E-016
   1.6500000000000001E-002     1.3931069356570304E-015
   1.7599999999999998E-002     5.6028480838958127E-015
   1.8700000000000001E-002     5.8051411510402946E-015
   1.9799999999999998E-002    -7.5247281482496674E-015
   2.0900000000000002E-002    -3.2208515910771285E-014
   2.1999999999999999E-002    -3.7241439993689410E-014
   2.3099999999999996E-002     2.3009782149302840E-014
   2.4199999999999999E-002     1.4354544029121508E-013
   2.5299999999999996E-002     2.0323291118583275E-013
   2.6400000000000000E-002     1.4791958280534027E-014
   2.7499999999999997E-002    -4.5664616836124661E-013
   2.8600000000000000E-002    -8.6705496298369877E-013
   2.9699999999999997E-002    -5.8252052270377219E-013
   3.0800000000000001E-002     7.6490452426830613E-013
   3.1899999999999998E-002     2.6020281849309379E-012
   3.3000000000000002E-002     3.3300094452737294E-012
   3.4099999999999998E-002     1.2538762346123167E-012
   3.5200000000000002E-002    -3.8996019954828931E-012
   3.6299999999999999E-002    -9.9528406349858045E-012
   3.7400000000000003E-002    -1.2612319175153708E-011
   3.8500000000000000E-002    -7.2155155114717040E-012
   3.9599999999999996E-002     8.6747432154199444E-012
   4.0700000000000000E-002     3.2449688769364826E-011
   4.1799999999999997E-002     5.4166362367658039E-011
   4.2900000000000001E-002     5.6400866615957668E-011
   4.3999999999999997E-002     1.8729949882723140E-011
   4.5100000000000001E-002    -7.1535846690728988E-011
   4.6199999999999998E-002    -2.0427144697965360E-010
   4.7300000000000002E-002    -3.3367583696097824E-010
   4.8399999999999999E-002    -3.7663860918968339E-010
   4.9500000000000002E-002    -2.2882505612553672E-010
   5.0600000000000006E-002     2.0238997977539697E-010
   5.1699999999999996E-002     9.5784136178167500E-010
   5.2800000000000000E-002     1.9944472740007768E-009
   5.3900000000000003E-002     3.1747140472049296E-009
   5.5000000000000007E-002     4.2840486713657810E-009
   5.6099999999999997E-002     5.0731254752633959E-009
   5.7200000000000001E-002     5.3166564484286027E-009
   5.8300000000000005E-002     4.8769517313473898E-009
   5.9399999999999994E-002     3.7571008526526839E-009
   6.0499999999999998E-002     2.1239339176304384E-009
   6.1600000000000002E-002     2.8210395131011978E-010
   6.2700000000000006E-002    -1.4041543483500618E-009
   6.3799999999999996E-002    -2.6184490131697657E-009
   6.4899999999999999E-002    -3.1849818338258729E-009
   6.6000000000000003E-002    -3.1065590100354257E-009
   6.7100000000000007E-002    -2.5370074929753628E-009
   6.8199999999999997E-002    -1.7112383732253988E-009
   6.9300000000000000E-002    -8.7046420071956732E-010
   7.0400000000000004E-002    -2.0799698075002482E-010
   7.1500000000000008E-002     1.6144569014997501E-010
   7.2599999999999998E-002     2.1716112241776386E-010
   7.3700000000000002E-002     3.3678990152274935E-011
   7.4800000000000005E-002    -2.4328999925771200E-010
   7.5899999999999995E-002    -4.5438594553637301E-010
   7.6999999999999999E-002    -5.0202364487716977E-010
   7.8100000000000003E-002    -4.0138281587331903E-010
   7.9200000000000007E-002    -2.6507890327209793E-010
   8.0299999999999996E-002    -2.2030455237853630E-010
   8.1400000000000000E-002    -3.1278130085965472E-010
   8.2500000000000004E-002    -4.7198173147577904E-010
   8.3600000000000008E-002    -5.6830368189153546E-010
   8.4699999999999998E-002    -5.1550141932921179E-010
   8.5800000000000001E-002    -3.3084451844800356E-010
   8.6900000000000005E-002    -1.0419865664745842E-010
   8.8000000000000009E-002     8.7467283416131636E-011
   8.9099999999999999E-002     2.3378893265757483E-010
   9.0200000000000002E-002     3.6213951282171308E-010
   9.1300000000000006E-002     4.6202575099130172E-010
   9.2399999999999996E-002     4.5043771490504980E-010
   9.3500000000000000E-002     2.2991221426682529E-010
   9.4600000000000004E-002    -2.0136529943481918E-010
   9.5700000000000007E-002    -6.9073113895257165E-010
   9.6799999999999997E-002    -9.9681085607983277E-010
   9.7900000000000001E-002    -9.4852259380218129E-010
   9.9000000000000005E-002    -5.7453403146112692E-010
  0.10010000000000001         -8.8796386910061642E-011
  0.10120000000000000          2.6762958516002300E-010
  0.10230000000000000          4.0014228042117850E-010
  0.10340000000000001          3.9951908448188078E-010
  0.10450000000000001          4.1384129456645269E-010
  0.10560000000000000          4.7749804110708283E-010
  0.10670000000000000          4.6599046843454062E-010
  0.10780000000000001          2.2669939536701378E-010
  0.10890000000000001         -2.3712520835772466E-010
  0.11000000000000000         -7.1124145462064803E-010
  0.11110000000000000         -9.1172946969919622E-010
  0.11220000000000001         -7.0912276051160461E-010
  0.11330000000000000         -2.4187465919034423E-010
  0.11440000000000002          1.8273972612892209E-010
  0.11550000000000001          3.2291994078725850E-010
  0.11660000000000000          1.8101189991348576E-010
  0.11770000000000001         -1.9571573528498476E-011
  0.11880000000000000         -3.9353350439474966E-011
  0.11989999999999999          1.6356631327152371E-010
  0.12100000000000001          3.9644054705689769E-010
  0.12210000000000000          4.0764419617644876E-010
  0.12320000000000002          1.2209674937757597E-010
  0.12430000000000001         -2.7683211278883846E-010
  0.12540000000000001         -4.9816395453206042E-010
  0.12650000000000003         -3.9450154254438985E-010
  0.12760000000000002         -8.8799329001076899E-011
  0.12870000000000001          1.3461222414523633E-010
  0.12980000000000003          7.6020398309672998E-011
  0.13090000000000002         -2.0910843889776487E-010
  0.13200000000000001         -4.5439393914215032E-010
  0.13310000000000002         -4.0064218609359159E-010
  0.13420000000000001         -1.2504140951830056E-011
  0.13530000000000003          4.7611709019790283E-010
  0.13640000000000002          7.2847022858368859E-010
  0.13750000000000001          5.6289894967420651E-010
  0.13860000000000003          1.0177197973249008E-010
  0.13970000000000002         -3.1805219569136511E-010
  0.14080000000000001         -4.1408193540704019E-010
  0.14190000000000003         -1.8721711680935726E-010
  0.14300000000000002          8.8385743168828412E-011
  0.14410000000000003          1.1145753070485043E-010
  0.14520000000000002         -1.7686106745795627E-010
  0.14630000000000001         -5.3464732641117507E-010
  0.14740000000000003         -6.2102051279211423E-010
  0.14850000000000002         -2.8599592138967012E-010
  0.14960000000000001          2.9067162565787896E-010
  0.15070000000000003          7.2334838119303413E-010
  0.15180000000000002          7.1289202319135825E-010
  0.15290000000000001          2.8322164058458554E-010
  0.15400000000000003         -2.2817391032159406E-010
  0.15510000000000002         -4.3440065433664188E-010
  0.15620000000000003         -2.1700938268587322E-010
  0.15730000000000002          1.7157371356990581E-010
  0.15840000000000001          3.2718053266656000E-010
  0.15950000000000003          5.7395668079385231E-011
  0.16060000000000002         -4.3479017608483161E-010
  0.16170000000000001         -7.2119404892490024E-010
  0.16280000000000003         -5.2392040705839804E-010
  0.16390000000000002          4.0103684262327022E-011
  0.16500000000000001          5.5643495366908269E-010
  0.16610000000000003          6.5554400796585810E-010
  0.16720000000000002          3.0405986062298496E-010
  0.16830000000000003         -1.8524938527608725E-010
  0.16940000000000002         -4.1450382015639775E-010
  0.17050000000000001         -2.1718234155532201E-010
  0.17160000000000003          2.1539195427244806E-010
  0.17270000000000002          4.9457810069597485E-010
  0.17380000000000001          3.5719585622651095E-010
  0.17490000000000003         -1.1158957091694788E-010
  0.17600000000000002         -5.4771992497038013E-010
  0.17710000000000004         -6.1623223190920839E-010
  0.17820000000000003         -2.8860139278386043E-010
  0.17930000000000001          1.5288124932677505E-010
  0.18040000000000003          3.7166786315268041E-010
  0.18150000000000002          2.5053301100363967E-010
  0.18260000000000001         -4.8279113346039182E-011
  0.18370000000000003         -2.4951593569078057E-010
  0.18480000000000002         -1.8619226993532578E-010
  0.18590000000000001          9.4190072408295578E-011
  0.18700000000000003          3.8206030006371350E-010
  0.18810000000000002          4.5527803749223494E-010
  0.18920000000000003          2.3156065953600091E-010
  0.19030000000000002         -1.6524760726444043E-010
  0.19140000000000001         -4.7954568094255023E-010
  0.19250000000000003         -5.0555248876094083E-010
  0.19360000000000002         -2.4360854999905257E-010
  0.19470000000000001          1.0207929640460023E-010
  0.19580000000000003          2.8637497928585276E-010
  0.19690000000000002          2.0712498383090860E-010
  0.19800000000000001         -3.6171888401215213E-011
  0.19910000000000003         -2.3309398855531072E-010
  0.20020000000000002         -2.1474454159342571E-010
  0.20130000000000003          3.2468590316359069E-011
  0.20240000000000002          3.4786451497126336E-010
  0.20350000000000001          4.8970338895060195E-010
  0.20460000000000003          3.0866389999495425E-010
  0.20570000000000002         -1.0952139195552490E-010
  0.20680000000000001         -4.7228670974064357E-010
  0.20790000000000003         -5.0200898993324472E-010
  0.20900000000000002         -1.7894509485305576E-010
  0.21010000000000004          2.2575082081477404E-010
  0.21120000000000003          3.7680217279678629E-010
  0.21230000000000002          1.6040475891987427E-010
  0.21340000000000003         -2.2723817272307656E-010
  0.21450000000000002         -4.5267198323095670E-010
  0.21560000000000001         -3.1534516664599721E-010
  0.21670000000000003          1.0172001435604372E-010
  0.21780000000000002          4.9605919372197604E-010
  0.21890000000000001          5.6596177744339116E-010
  0.22000000000000003          2.3819257677359928E-010
  0.22110000000000002         -2.5660645830427598E-010
  0.22220000000000004         -5.4103338475997020E-010
  0.22330000000000003         -3.9073447255510985E-010
  0.22440000000000002          6.3782021331171279E-011
  0.22550000000000003          4.3148085104860456E-010
  0.22660000000000002          3.9357325731792514E-010
  0.22770000000000001         -1.9220746522163878E-011
  0.22880000000000003         -4.5792025726854035E-010
  0.22990000000000002         -5.5793375475232665E-010
  0.23100000000000004         -2.3514246105804659E-010
  0.23210000000000003          2.6564650479343754E-010
  0.23320000000000002          5.7523569241269001E-010
  0.23430000000000004          4.7539733261103834E-010
  0.23540000000000003          5.0736727319478092E-011
  0.23650000000000002         -3.7324615620448753E-010
  0.23760000000000003         -4.6761916561166572E-010
  0.23870000000000002         -1.5888947102471462E-010
  0.23980000000000001          2.9338387275146260E-010
  0.24090000000000000          4.9632514764752500E-010
  0.24200000000000005          2.5963711736132211E-010
  0.24310000000000004         -2.2928497989127550E-010
  0.24420000000000003         -5.6476007204153689E-010
  0.24530000000000002         -4.7589659990521227E-010
  0.24640000000000001         -4.8222204007686287E-011
  0.24750000000000005          3.7215996950834551E-010
  0.24860000000000004          4.7584575169068444E-010
  0.24970000000000003          2.2041954372831185E-010
  0.25080000000000002         -1.6861888274544157E-010
  0.25190000000000001         -3.8570149851757662E-010
  0.25300000000000000         -2.6901400551615495E-010
  0.25410000000000005          8.4740985062392582E-011
  0.25520000000000004          3.8980529915022544E-010
  0.25630000000000003          3.9078706937090146E-010
  0.25740000000000002          7.5235623286928899E-011
  0.25850000000000001         -3.0684127461100275E-010
  0.25960000000000005         -4.5386747138387307E-010
  0.26070000000000004         -2.7040586436655190E-010
  0.26180000000000003          6.7930681912908852E-011
  0.26290000000000002          2.9041893889747428E-010
  0.26400000000000001          2.6120178242550196E-010
  0.26510000000000000          5.3936476812621592E-011
  0.26620000000000005         -1.5196426061958590E-010
  0.26730000000000004         -2.1682949880030833E-010
  0.26840000000000003         -1.1233667468468767E-010
  0.26950000000000002          8.5396849314189893E-011
  0.27060000000000001          2.4270740972553995E-010
  0.27170000000000005          2.4338334125850736E-010
  0.27280000000000004          7.3099054587189016E-011
  0.27390000000000003         -1.5299948807889763E-010
  0.27500000000000002         -2.7054208873167340E-010
  0.27610000000000001         -1.9951176821741967E-010
  0.27720000000000000         -6.3104421861581717E-012
  0.27830000000000005          1.6141232794808502E-010
  0.27940000000000004          1.9305390619450691E-010
  0.28050000000000003          7.9549519749200215E-011
  0.28160000000000002         -1.0055083154991706E-010
  0.28270000000000001         -2.2954338430025700E-010
  0.28380000000000005         -2.0783827436865465E-010
  0.28490000000000004         -2.1632834412699253E-011
  0.28600000000000003          2.1589431631330314E-010
  0.28710000000000002          3.2106267644493869E-010
  0.28820000000000001          1.9002831253001062E-010
  0.28930000000000000         -8.8196151770691955E-011
  0.29040000000000005         -2.8968374921056750E-010
  0.29150000000000004         -2.5095694966559279E-010
  0.29260000000000003         -1.4646192245115763E-011
  0.29370000000000002          2.1477951361870140E-010
  0.29480000000000001          2.5172114392901790E-010
  0.29590000000000005          7.4031072938574027E-011
  0.29700000000000004         -1.7697698861951494E-010
  0.29810000000000003         -3.1091176855291280E-010
  0.29920000000000002         -2.2122800813484389E-010
  0.30030000000000001          4.0175238136264113E-011
  0.30140000000000006          2.8848612387832873E-010
  0.30250000000000005          3.3289654366441823E-010
  0.30360000000000004          1.3165736556519647E-010
  0.30470000000000003         -1.5652640295016340E-010
  0.30580000000000002         -2.9616908925333973E-010
  0.30690000000000001         -1.7957461906359384E-010
  0.30800000000000005          7.9599646318762041E-011
  0.30910000000000004          2.5488525179362398E-010
  0.31020000000000003          2.0756091290152767E-010
  0.31130000000000002         -1.0179681750321912E-011
  0.31240000000000001         -2.2211125993987224E-010
  0.31350000000000006         -2.7559721171854790E-010
  0.31460000000000005         -1.4211297416633073E-010
  0.31570000000000004          7.9573243827457674E-011
