  -1.3200000000000002E-002     0.0000000000000000
  -1.2100000000000001E-002     0.0000000000000000
  -1.1000000000000001E-002     0.0000000000000000
  -9.9000000000000025E-003     0.0000000000000000
  -8.8000000000000023E-003     0.0000000000000000
  -7.7000000000000011E-003     0.0000000000000000
  -6.6000000000000017E-003     0.0000000000000000
  -5.5000000000000014E-003     0.0000000000000000
  -4.4000000000000011E-003     0.0000000000000000
  -3.3000000000000008E-003     0.0000000000000000
  -2.2000000000000006E-003     7.5712200103468549E-029
  -1.1000000000000003E-003    -1.7199606442610138E-028
  -1.7347234759768071E-018    -9.7636336589016612E-029
   1.0999999999999985E-003     3.7355491275730378E-027
   2.1999999999999988E-003    -1.2200716123514585E-026
   3.2999999999999991E-003    -7.2214847921042635E-026
   4.3999999999999994E-003     1.7249032873146010E-025
   5.4999999999999997E-003     1.4117830454841339E-024
   6.6000000000000000E-003     8.1806527548939231E-025
   7.7000000000000002E-003    -1.5734728478343222E-023
   8.8000000000000005E-003    -4.9752163560404652E-023
   9.9000000000000008E-003     6.1613261561141565E-023
   1.1000000000000001E-002     7.0291545623026883E-022
   1.2100000000000001E-002     8.9903799027493309E-022
   1.3199999999999998E-002    -5.0530161409198664E-021
   1.4299999999999998E-002    -1.7997388639971035E-020
   1.5399999999999999E-002     9.7989681366171304E-021
   1.6500000000000001E-002     1.5958493120074098E-019
   1.7599999999999998E-002     1.9844391182452741E-019
   1.8700000000000001E-002    -7.7886209784166139E-019
   1.9799999999999998E-002    -2.5456109052092246E-018
   2.0900000000000002E-002     7.7701929453325810E-019
   2.1999999999999999E-002     1.6014234857000092E-017
   2.3099999999999996E-002     2.0209792531181330E-017
   2.4199999999999999E-002    -5.3481604041354870E-017
   2.5299999999999996E-002    -1.8132623560796959E-016
   2.6400000000000000E-002    -1.4331306122258905E-017
   2.7499999999999997E-002     8.0823354431413304E-016
   2.8600000000000000E-002     1.2533071123280236E-015
   2.9699999999999997E-002    -1.5647781735714933E-015
   3.0800000000000001E-002    -7.3645618412204045E-015
   3.1899999999999998E-002    -4.6436794093698310E-015
   3.3000000000000002E-002     2.0927309296830780E-014
   3.4099999999999998E-002     4.7284109949956993E-014
   3.5200000000000002E-002    -4.6933265515072473E-015
   3.6299999999999999E-002    -1.6713091685344877E-013
   3.7400000000000003E-002    -2.2701106402664428E-013
   3.8500000000000000E-002     2.0201852343748605E-013
   3.9599999999999996E-002     9.9199641556690921E-013
   4.0700000000000000E-002     8.3440491929070992E-013
   4.1799999999999997E-002    -1.6647446225356854E-012
   4.2900000000000001E-002    -4.7592572244292697E-012
   4.3999999999999997E-002    -2.3551820216294317E-012
   4.5100000000000001E-002     9.2014451613664505E-012
   4.6199999999999998E-002     1.9412563570520014E-011
   4.7300000000000002E-002     5.1589275386343392E-012
   4.8399999999999999E-002    -3.9676369828489655E-011
   4.9500000000000002E-002    -6.9829080018291023E-011
   5.0600000000000006E-002    -1.0594100249838867E-011
   5.1699999999999996E-002     1.4002812798175057E-010
   5.2800000000000000E-002     2.2699604695919362E-010
   5.3900000000000003E-002     3.7699270788449368E-011
   5.5000000000000007E-002    -4.0667527678728277E-010
   5.6099999999999997E-002    -6.7079208854181616E-010
   5.7200000000000001E-002    -2.0975603198802872E-010
   5.8300000000000005E-002     9.3174090665115727E-010
   5.9399999999999994E-002     1.7609426139486573E-009
   6.0499999999999998E-002     1.0218845769571772E-009
   6.1600000000000002E-002    -1.4101905199126463E-009
   6.2700000000000006E-002    -3.8272469637945505E-009
   6.3799999999999996E-002    -3.7510639039339821E-009
   6.4899999999999999E-002    -8.4778177533717525E-011
   6.6000000000000003E-002     5.6020321714811416E-009
   6.7100000000000007E-002     9.7808774413010724E-009
   6.8199999999999997E-002     8.8072678039452512E-009
   6.9300000000000000E-002     5.1527709876708627E-010
   7.0400000000000004E-002    -1.4314551322058833E-008
   7.1500000000000008E-002    -2.9781679344864642E-008
   7.2599999999999998E-002    -3.3599750537405271E-008
   7.3700000000000002E-002    -1.1345447248345408E-008
   7.4800000000000005E-002     4.1286622121106120E-008
   7.5899999999999995E-002     1.0415186579848523E-007
   7.6999999999999999E-002     1.2996461862258002E-007
   7.8100000000000003E-002     6.4987183634457324E-008
   7.9200000000000007E-002    -1.0911223569110007E-007
   8.0299999999999996E-002    -3.3343684435749310E-007
   8.1400000000000000E-002    -4.6393049046855594E-007
   8.2500000000000004E-002    -3.2602292776573449E-007
   8.3600000000000008E-002     1.7005056918151240E-007
   8.4699999999999998E-002     9.0460736146269483E-007
   8.5800000000000001E-002     1.5040253629194922E-006
   8.6900000000000005E-002     1.4521709772452596E-006
   8.8000000000000009E-002     3.5614243643067311E-007
   8.9099999999999999E-002    -1.7352532495351625E-006
   9.0200000000000002E-002    -4.1206367313861847E-006
   9.1300000000000006E-002    -5.4939418987487443E-006
   9.2399999999999996E-002    -4.3438190004962962E-006
   9.3500000000000000E-002     3.0186140520527260E-007
   9.4600000000000004E-002     7.9662240750622004E-006
   9.5700000000000007E-002     1.6072479411377572E-005
   9.6799999999999997E-002     2.0138653781032190E-005
   9.7900000000000001E-002     1.5237976185744628E-005
   9.9000000000000005E-002    -1.4527449820889160E-006
  0.10010000000000001         -2.7971911549684592E-005
  0.10120000000000000         -5.6186057918239385E-005
  0.10230000000000000         -7.2906732384581119E-005
  0.10340000000000001         -6.3842504459898919E-005
  0.10450000000000001         -1.9512221115292050E-005
  0.10560000000000000          5.8824658481171355E-005
  0.10670000000000000          1.5569604875054210E-004
  0.10780000000000001          2.4257706536445767E-004
  0.10890000000000001          2.8461273177526891E-004
  0.11000000000000000          2.5187202845700085E-004
  0.11110000000000000          1.3201593537814915E-004
  0.11220000000000001         -6.0237260186113417E-005
  0.11330000000000000         -2.8159405337646604E-004
  0.11440000000000002         -4.6943017514422536E-004
  0.11550000000000001         -5.6070555001497269E-004
  0.11660000000000000         -5.1465869182720780E-004
  0.11770000000000001         -3.3038522815331817E-004
  0.11880000000000000         -5.1342016377020627E-005
  0.11989999999999999          2.4599372409284115E-004
  0.12100000000000001          4.7563514090143144E-004
  0.12210000000000000          5.6967360433191061E-004
  0.12320000000000002          5.0094333710148931E-004
  0.12430000000000001          2.9359516338445246E-004
  0.12540000000000001          1.7334839867544360E-005
  0.12650000000000003         -2.3465124832000583E-004
  0.12760000000000002         -3.7825704202987254E-004
  0.12870000000000001         -3.7015095585957170E-004
  0.12980000000000003         -2.2515373711939901E-004
  0.13090000000000002         -1.0209265383309685E-005
  0.13200000000000001          1.8392084166407585E-004
  0.13310000000000002          2.8118884074501693E-004
  0.13420000000000001          2.5123698287643492E-004
  0.13530000000000003          1.1861074744956568E-004
  0.13640000000000002         -5.2690913435071707E-005
  0.13750000000000001         -1.8938122957479209E-004
  0.13860000000000003         -2.3800937924534082E-004
  0.13970000000000002         -1.8169214308727533E-004
  0.14080000000000001         -4.2875883082160726E-005
  0.14190000000000003          1.2408253678586334E-004
  0.14300000000000002          2.4863379076123238E-004
  0.14410000000000003          2.6900076773017645E-004
  0.14520000000000002          1.6215920913964510E-004
  0.14630000000000001         -3.6260731576476246E-005
  0.14740000000000003         -2.4024117738008499E-004
  0.14850000000000002         -3.5320260212756693E-004
  0.14960000000000001         -3.1904721981845796E-004
  0.15070000000000003         -1.5211128629744053E-004
  0.15180000000000002          7.3389441240578890E-005
  0.15290000000000001          2.6565170264802873E-004
  0.15400000000000003          3.5986516741104424E-004
  0.15510000000000002          3.3818345400504768E-004
  0.15620000000000003          2.2002757759764791E-004
  0.15730000000000002          4.0332139178644866E-005
  0.15840000000000001         -1.6169143782462925E-004
  0.15950000000000003         -3.3741255174390972E-004
  0.16060000000000002         -4.2493821820244193E-004
  0.16170000000000001         -3.6929460475221276E-004
  0.16280000000000003         -1.6470874834340066E-004
  0.16390000000000002          1.1661992903100327E-004
  0.16500000000000001          3.4856880665756762E-004
  0.16610000000000003          4.2531191138550639E-004
  0.16720000000000002          3.3075889223255217E-004
  0.16830000000000003          1.4247796207200736E-004
  0.16940000000000002         -3.4921351470984519E-005
  0.17050000000000001         -1.4650959928985685E-004
  0.17160000000000003         -2.0571269851643592E-004
  0.17270000000000002         -2.4609288084320724E-004
  0.17380000000000001         -2.6304635684937239E-004
  0.17490000000000003         -2.0882787066511810E-004
  0.17600000000000002         -4.8405778215965256E-005
  0.17710000000000004          1.7846058472059667E-004
  0.17820000000000003          3.5486440174281597E-004
  0.17930000000000001          3.6119041033089161E-004
  0.18040000000000003          1.7400065553374588E-004
  0.18150000000000002         -9.6131130703724921E-005
  0.18260000000000001         -2.7472322108224034E-004
  0.18370000000000003         -2.5682273553684354E-004
  0.18480000000000002         -9.0819834440480918E-005
  0.18590000000000001          6.9523768615908921E-005
  0.18700000000000003          1.0691279021557420E-004
  0.18810000000000002          4.1253992094425485E-005
  0.18920000000000003         -1.0447530257806648E-005
  0.19030000000000002          2.8865721105830744E-005
  0.19140000000000001          1.0854968422790989E-004
  0.19250000000000003          1.0526068217586726E-004
  0.19360000000000002         -3.7902289477642626E-005
  0.19470000000000001         -2.3355214216280729E-004
  0.19580000000000003         -3.1349074561148882E-004
  0.19690000000000002         -1.7470697639510036E-004
  0.19800000000000001          1.2223933299537748E-004
  0.19910000000000003          3.8480147486552596E-004
  0.20020000000000002          4.2655967990867794E-004
  0.20130000000000003          2.0980597764719278E-004
  0.20240000000000002         -1.1721812188625336E-004
  0.20350000000000001         -3.2903632381930947E-004
  0.20460000000000003         -3.0233318102546036E-004
  0.20570000000000002         -1.1365832324372604E-004
  0.20680000000000001          4.2068546463269740E-005
  0.20790000000000003          4.1838073229882866E-005
  0.20900000000000002         -5.4559492127737030E-005
  0.21010000000000004         -8.4961349784862250E-005
  0.21120000000000003          3.4587686968734488E-005
  0.21230000000000002          2.2258381068240851E-004
  0.21340000000000003          3.1763722654432058E-004
  0.21450000000000002          2.2919513867236674E-004
  0.21560000000000001          3.1363547350338195E-006
  0.21670000000000003         -2.2812274983152747E-004
  0.21780000000000002         -3.3441511914134026E-004
  0.21890000000000001         -2.5465423823334277E-004
  0.22000000000000003         -3.5604643926490098E-005
  0.22110000000000002          1.7424384714104235E-004
  0.22220000000000004          2.1471640502568334E-004
  0.22330000000000003          5.5196109315147623E-005
  0.22440000000000002         -1.5000870916992426E-004
  0.22550000000000003         -1.8844539590645581E-004
  0.22660000000000002          1.3857111298420932E-006
  0.22770000000000001          2.5722992722876370E-004
  0.22880000000000003          3.4186482662335038E-004
  0.22990000000000002          1.5987650840543211E-004
  0.23100000000000004         -1.6732134099584073E-004
  0.23210000000000003         -4.0742021519690752E-004
  0.23320000000000002         -3.8221664726734161E-004
  0.23430000000000004         -8.1400648923590779E-005
  0.23540000000000003          3.0831387266516685E-004
  0.23650000000000002          4.8880861140787601E-004
  0.23760000000000003          2.6815416640602052E-004
  0.23870000000000002         -2.1951233793515712E-004
  0.23980000000000001         -5.4913427447900176E-004
  0.24090000000000000         -3.7533315480686724E-004
  0.24200000000000005          1.8319924129173160E-004
  0.24310000000000004          5.9574167244136333E-004
  0.24420000000000003          4.3420394649729133E-004
  0.24530000000000002         -1.7009297152981162E-004
  0.24640000000000001         -6.3557532848790288E-004
  0.24750000000000005         -5.0388800445944071E-004
  0.24860000000000004          1.2194623559480533E-004
  0.24970000000000003          6.9330574478954077E-004
  0.25080000000000002          7.1380782173946500E-004
  0.25190000000000001          1.3812691031489521E-004
  0.25300000000000000         -6.1040360014885664E-004
  0.25410000000000005         -9.4865227583795786E-004
  0.25520000000000004         -5.6090671569108963E-004
  0.25630000000000003          3.0681845964863896E-004
  0.25740000000000002          9.5212989253923297E-004
  0.25850000000000001          7.7976763714104891E-004
  0.25960000000000005         -9.4697483291383833E-005
  0.26070000000000004         -8.5428962484002113E-004
  0.26180000000000003         -7.4367545312270522E-004
  0.26290000000000002          1.3936522009316832E-004
  0.26400000000000001          9.0845528757199645E-004
  0.26510000000000000          7.9322664532810450E-004
  0.26620000000000005         -8.8868830061983317E-005
  0.26730000000000004         -9.0541475219652057E-004
  0.26840000000000003         -9.5808936748653650E-004
  0.26950000000000002         -2.6984754367731512E-004
  0.27060000000000001          5.7242740876972675E-004
  0.27170000000000005          9.6226070309057832E-004
  0.27280000000000004          6.5800524316728115E-004
  0.27390000000000003         -1.2701175000984222E-004
  0.27500000000000002         -8.2937965635210276E-004
  0.27610000000000001         -8.6340802954509854E-004
  0.27720000000000000         -1.2635337770916522E-004
  0.27830000000000005          7.6545670162886381E-004
  0.27940000000000004          9.5718260854482651E-004
  0.28050000000000003          2.2865280334372073E-004
  0.28160000000000002         -7.1095163002610207E-004
  0.28270000000000001         -9.4735354650765657E-004
  0.28380000000000005         -3.1970243435353041E-004
  0.28490000000000004          4.9177522305399179E-004
  0.28600000000000003          7.7384919859468937E-004
  0.28710000000000002          4.4844576041214168E-004
  0.28820000000000001         -8.8242915808223188E-005
  0.28930000000000000         -4.9583270447328687E-004
  0.29040000000000005         -6.3582177972421050E-004
  0.29150000000000004         -3.9873446803539991E-004
  0.29260000000000003          2.1696145995520055E-004
  0.29370000000000002          8.1536755897104740E-004
  0.29480000000000001          7.7304156729951501E-004
  0.29590000000000005         -3.4921173210022971E-005
  0.29700000000000004         -8.7774847634136677E-004
  0.29810000000000003         -8.7113893823698163E-004
  0.29920000000000002         -9.3423113867174834E-006
  0.30030000000000001          7.9898891272023320E-004
  0.30140000000000006          7.8050961019471288E-004
  0.30250000000000005          1.0025720257544890E-004
  0.30360000000000004         -5.1647616783156991E-004
  0.30470000000000003         -6.6305941436439753E-004
  0.30580000000000002         -4.4990866445004940E-004
  0.30690000000000001         -4.2071878851857036E-005
  0.30800000000000005          5.0664984155446291E-004
  0.30910000000000004          9.0682628797367215E-004
  0.31020000000000003          6.3696777215227485E-004
  0.31130000000000002         -3.3819439704529941E-004
  0.31240000000000001         -1.1547335889190435E-003
  0.31350000000000006         -8.7284634355455637E-004
  0.31460000000000005          3.0610349494963884E-004
  0.31570000000000004          1.1239644372835755E-003
