  -1.3200000000000002E-002     0.0000000000000000
  -1.2100000000000001E-002     0.0000000000000000
  -1.1000000000000001E-002     0.0000000000000000
  -9.9000000000000025E-003     0.0000000000000000
  -8.8000000000000023E-003     0.0000000000000000
  -7.7000000000000011E-003     0.0000000000000000
  -6.6000000000000017E-003     0.0000000000000000
  -5.5000000000000014E-003     0.0000000000000000
  -4.4000000000000011E-003     0.0000000000000000
  -3.3000000000000008E-003     0.0000000000000000
  -2.2000000000000006E-003     0.0000000000000000
  -1.1000000000000003E-003     0.0000000000000000
  -1.7347234759768071E-018     0.0000000000000000
   1.0999999999999985E-003     0.0000000000000000
   2.1999999999999988E-003     0.0000000000000000
   3.2999999999999991E-003     0.0000000000000000
   4.3999999999999994E-003     0.0000000000000000
   5.4999999999999997E-003     0.0000000000000000
   6.6000000000000000E-003     0.0000000000000000
   7.7000000000000002E-003     0.0000000000000000
   8.8000000000000005E-003     0.0000000000000000
   9.9000000000000008E-003     0.0000000000000000
   1.1000000000000001E-002     0.0000000000000000
   1.2100000000000001E-002     0.0000000000000000
   1.3199999999999998E-002     0.0000000000000000
   1.4299999999999998E-002     0.0000000000000000
   1.5399999999999999E-002     0.0000000000000000
   1.6500000000000001E-002     0.0000000000000000
   1.7599999999999998E-002     0.0000000000000000
   1.8700000000000001E-002     0.0000000000000000
   1.9799999999999998E-002     0.0000000000000000
   2.0900000000000002E-002     0.0000000000000000
   2.1999999999999999E-002     0.0000000000000000
   2.3099999999999996E-002     0.0000000000000000
   2.4199999999999999E-002     0.0000000000000000
   2.5299999999999996E-002     0.0000000000000000
   2.6400000000000000E-002     0.0000000000000000
   2.7499999999999997E-002     0.0000000000000000
   2.8600000000000000E-002     0.0000000000000000
   2.9699999999999997E-002     0.0000000000000000
   3.0800000000000001E-002     0.0000000000000000
   3.1899999999999998E-002     0.0000000000000000
   3.3000000000000002E-002     0.0000000000000000
   3.4099999999999998E-002     0.0000000000000000
   3.5200000000000002E-002     0.0000000000000000
   3.6299999999999999E-002     0.0000000000000000
   3.7400000000000003E-002     0.0000000000000000
   3.8500000000000000E-002     0.0000000000000000
   3.9599999999999996E-002     0.0000000000000000
   4.0700000000000000E-002     0.0000000000000000
   4.1799999999999997E-002    -4.0448771632054452E-033
   4.2900000000000001E-002    -1.1148156997748257E-032
   4.3999999999999997E-002     4.1486957222441157E-032
   4.5100000000000001E-002     9.6250435473224821E-032
   4.6199999999999998E-002    -1.3996090491243563E-031
   4.7300000000000002E-002    -6.8782631941190360E-031
   4.8399999999999999E-002    -8.9015526352670823E-032
   4.9500000000000002E-002     3.5880018440205364E-030
   5.0600000000000006E-002     4.9874660487309844E-030
   5.1699999999999996E-002    -1.2057322032655516E-029
   5.2800000000000000E-002    -4.0178804666586200E-029
   5.3900000000000003E-002     7.3714788065489166E-030
   5.5000000000000007E-002     1.9974115564968973E-028
   5.6099999999999997E-002     2.2238908068246282E-028
   5.7200000000000001E-002    -6.1420621487730537E-028
   5.8300000000000005E-002    -1.7736584118571979E-027
   5.9399999999999994E-002     3.4180480206611356E-028
   6.0499999999999998E-002     7.9078044107798368E-027
   6.1600000000000002E-002     8.9241892870269123E-027
   6.2700000000000006E-002    -2.0153545694906284E-026
   6.3799999999999996E-002    -6.1692768485196076E-026
   6.4899999999999999E-002    -3.5346445898663166E-027
   6.6000000000000003E-002     2.2881048606593861E-025
   6.7100000000000007E-002     3.1675942974957467E-025
   6.8199999999999997E-002    -4.1075006189107216E-025
   6.9300000000000000E-002    -1.6784445568967739E-024
   7.0400000000000004E-002    -8.0840089123572312E-025
   7.1500000000000008E-002     4.6821576851944802E-024
   7.2599999999999998E-002     9.0264643884836211E-024
   7.3700000000000002E-002    -3.3324292981358125E-024
   7.4800000000000005E-002    -3.3870399297937286E-023
   7.5899999999999995E-002    -3.5260996990773644E-023
   7.6999999999999999E-002     5.8448932211021109E-023
   7.8100000000000003E-002     1.8840864821662973E-022
   7.9200000000000007E-002     7.9859071562600777E-023
   8.0299999999999996E-002    -4.5256887023657030E-022
   8.1400000000000000E-002    -8.5448918479980244E-022
   8.2500000000000004E-002     1.3087930694004286E-022
   8.3600000000000008E-002     2.6025832413174529E-021
   8.4699999999999998E-002     3.2248546967626516E-021
   8.5800000000000001E-002    -2.6801728231646053E-021
   8.6900000000000005E-002    -1.2410664904956872E-020
   8.8000000000000009E-002    -1.0109627771006211E-020
   8.9099999999999999E-002     1.8338524710053866E-020
   9.0200000000000002E-002     5.1508226550947326E-020
   9.1300000000000006E-002     2.5581923998743386E-020
   9.2399999999999996E-002    -9.2207884370468842E-020
   9.3500000000000000E-002    -1.9179168656428475E-019
   9.4600000000000004E-002    -4.7724382542877267E-020
   9.5700000000000007E-002     3.8641566539534520E-019
   9.6799999999999997E-002     6.5637763883060153E-019
   9.7900000000000001E-002     4.4603145748379128E-020
   9.9000000000000005E-002    -1.4135086680047292E-018
  0.10010000000000001         -2.1095289376919346E-018
  0.10120000000000000          6.4571793029769258E-020
  0.10230000000000000          4.6040107752634909E-018
  0.10340000000000001          6.4805957262931422E-018
  0.10450000000000001         -1.6393290269304940E-019
  0.10560000000000000         -1.3404326995981967E-017
  0.10670000000000000         -1.9206988239693493E-017
  0.10780000000000001         -1.8353183578354528E-018
  0.10890000000000001          3.4384673836522782E-017
  0.11000000000000000          5.4641509783501227E-017
  0.11110000000000000          1.7700244012342426E-017
  0.11220000000000001         -7.3906304713122376E-017
  0.11330000000000000         -1.4569813725721220E-016
  0.11440000000000002         -9.3773171323396372E-017
  0.11550000000000001          1.1185547848014847E-016
  0.11660000000000000          3.4665871569654469E-016
  0.11770000000000001          3.7008455005338523E-016
  0.11880000000000000          1.7511471470390475E-018
  0.11989999999999999         -6.6168699768112725E-016
  0.12100000000000001         -1.1557720096055197E-015
  0.12210000000000000         -8.3027402981595958E-016
  0.12320000000000002          6.6505675944310088E-016
  0.12430000000000001          2.7805285861720900E-015
  0.12540000000000001          3.8278151569921207E-015
  0.12650000000000003          1.7030873247924510E-015
  0.12760000000000002         -4.2502063473488436E-015
  0.12870000000000001         -1.1170584111029093E-014
  0.12980000000000003         -1.2495013297685389E-014
  0.13090000000000002         -1.6258332613216489E-015
  0.13200000000000001          2.1045627941100944E-014
  0.13310000000000002          4.2299625987226447E-014
  0.13420000000000001          3.8589411614081692E-014
  0.13530000000000003         -8.6137321505131564E-015
  0.13640000000000002         -8.9505348120112738E-014
  0.13750000000000001         -1.5155900894101709E-013
  0.13860000000000003         -1.1581736275318583E-013
  0.13970000000000002          6.7125497597419342E-014
  0.14080000000000001          3.4403835574674246E-013
  0.14190000000000003          5.2572925396746073E-013
  0.14300000000000002          3.5653465314637589E-013
  0.14410000000000003         -2.9852108198585858E-013
  0.14520000000000002         -1.2309823299583300E-012
  0.14630000000000001         -1.8055876889119804E-012
  0.14740000000000003         -1.1965695361632056E-012
  0.14850000000000002          1.0224325726337913E-012
  0.14960000000000001          4.1811298347183001E-012
  0.15070000000000003          6.2305720478772475E-012
  0.15180000000000002          4.4394466401642685E-012
  0.15290000000000001         -2.7725953043872265E-012
  0.15400000000000003         -1.3552220110013558E-011
  0.15510000000000002         -2.1478381573292182E-011
  0.15620000000000003         -1.7426103962603356E-011
  0.15730000000000002          4.8418782004622241E-012
  0.15840000000000001          4.1190252597633759E-011
  0.15950000000000003          7.2500207226600111E-011
  0.16060000000000002          6.8854449919442118E-011
  0.16170000000000001          5.6365073199116100E-012
  0.16280000000000003         -1.1261255122851921E-010
  0.16390000000000002         -2.3382873415300764E-010
  0.16500000000000001         -2.6390856167068932E-010
  0.16610000000000003         -1.0891146318137146E-010
  0.16720000000000002          2.5219359933714713E-010
  0.16830000000000003          6.9779992895036003E-010
  0.16940000000000002          9.5149677026284962E-010
  0.17050000000000001          6.7686445337500345E-010
  0.17160000000000003         -3.1605790207223095E-010
  0.17270000000000002         -1.8258862199971304E-009
  0.17380000000000001         -3.1271125688903112E-009
  0.17490000000000003         -3.1212084028453546E-009
  0.17600000000000002         -8.5756779455437027E-010
  0.17710000000000004          3.6916092405192558E-009
  0.17820000000000003          8.9707841155473034E-009
  0.17930000000000001          1.1825170176393840E-008
  0.18040000000000003          8.5650881942456181E-009
  0.18150000000000002         -2.9003142110184399E-009
  0.18260000000000001         -2.0588185378755952E-008
  0.18370000000000003         -3.7035349009784113E-008
  0.18480000000000002         -4.0553487679062528E-008
  0.18590000000000001         -2.0012064894103787E-008
  0.18700000000000003          2.7689743831160740E-008
  0.18810000000000002          9.0493607274311216E-008
  0.18920000000000003          1.3902560169753997E-007
  0.19030000000000002          1.3373974638852815E-007
  0.19140000000000001          4.2607865680110990E-008
  0.19250000000000003         -1.3498424777935725E-007
  0.19360000000000002         -3.4860087794186256E-007
  0.19470000000000001         -4.9530854084878229E-007
  0.19580000000000003         -4.4762239781448443E-007
  0.19690000000000002         -1.1157338519751647E-007
  0.19800000000000001          5.0087720637748134E-007
  0.19910000000000003          1.2172108654340263E-006
  0.20020000000000002          1.7068633724193205E-006
  0.20130000000000003          1.5699303048677393E-006
  0.20240000000000002          5.1033708814429701E-007
  0.20350000000000001         -1.4532245131704258E-006
  0.20460000000000003         -3.8276093619060703E-006
  0.20570000000000002         -5.6427679737680592E-006
  0.20680000000000001         -5.6843250604288187E-006
  0.20790000000000003         -2.9596819786092965E-006
  0.20900000000000002          2.7168887299922062E-006
  0.21010000000000004          1.0242131793347653E-005
  0.21120000000000003          1.7113266949309036E-005
  0.21230000000000002          1.9900677216355689E-005
  0.21340000000000003          1.5337047443608753E-005
  0.21450000000000002          1.7968459360417910E-006
  0.21560000000000001         -1.9315692043164745E-005
  0.21670000000000003         -4.2889383621513844E-005
  0.21780000000000002         -6.0677459259750322E-005
  0.21890000000000001         -6.3321742345578969E-005
  0.22000000000000003         -4.3504394852789119E-005
  0.22110000000000002          6.4746757288958179E-007
  0.22220000000000004          6.3137282268144190E-005
  0.22330000000000003          1.2984978093300015E-004
  0.22440000000000002          1.8115286366082728E-004
  0.22550000000000003          1.9711384084075689E-004
  0.22660000000000002          1.6404817870352417E-004
  0.22770000000000001          8.0355217505712062E-005
  0.22880000000000003         -4.0583174268249422E-005
  0.22990000000000002         -1.7199870490003377E-004
  0.23100000000000004         -2.8004602063447237E-004
  0.23210000000000003         -3.3337422064505517E-004
  0.23320000000000002         -3.1311454949900508E-004
  0.23430000000000004         -2.1994268172420561E-004
  0.23540000000000003         -7.5424737588036805E-005
  0.23650000000000002          8.3302897110115737E-005
  0.23760000000000003          2.1431305503938347E-004
  0.23870000000000002          2.8373001259751618E-004
  0.23980000000000001          2.7644279180094600E-004
  0.24090000000000000          2.0072671759407967E-004
  0.24200000000000005          8.5077226685825735E-005
  0.24310000000000004         -3.1827876227907836E-005
  0.24420000000000003         -1.1452793114585802E-004
  0.24530000000000002         -1.4266044308897108E-004
  0.24640000000000001         -1.1696141154970974E-004
  0.24750000000000005         -5.7223249314120039E-005
  0.24860000000000004          6.9046172939124517E-006
  0.24970000000000003          4.8479851102456450E-005
  0.25080000000000002          5.4091582569526508E-005
  0.25190000000000001          2.8492831916082650E-005
  0.25300000000000000         -8.7683165475027636E-006
  0.25410000000000005         -3.3263018849538639E-005
  0.25520000000000004         -2.7791973479907028E-005
  0.25630000000000003          8.7255939433816820E-006
  0.25740000000000002          5.9687532484531403E-005
  0.25850000000000001          9.7686446679290384E-005
  0.25960000000000005          9.7096068202517927E-005
  0.26070000000000004          4.7010074922582135E-005
  0.26180000000000003         -4.1377243178430945E-005
  0.26290000000000002         -1.3674616639036685E-004
  0.26400000000000001         -1.9895017612725496E-004
  0.26510000000000000         -1.9548511772882193E-004
  0.26620000000000005         -1.1645448830677196E-004
  0.26730000000000004          1.8551487301010638E-005
  0.26840000000000003          1.6518651682417840E-004
  0.26950000000000002          2.6961523690260947E-004
  0.27060000000000001          2.8882155311293900E-004
  0.27170000000000005          2.0812674483750015E-004
  0.27280000000000004          4.8777703341329470E-005
  0.27390000000000003         -1.3785819464828819E-004
  0.27500000000000002         -2.8781054425053298E-004
  0.27610000000000001         -3.4744010190479457E-004
  0.27720000000000000         -2.9321166221052408E-004
  0.27830000000000005         -1.4080734399612993E-004
  0.27940000000000004          5.9943427913822234E-005
  0.28050000000000003          2.4242629297077656E-004
  0.28160000000000002          3.4649914596229792E-004
  0.28270000000000001          3.3905653981491923E-004
  0.28380000000000005          2.2463372442871332E-004
  0.28490000000000004          4.2682495404733345E-005
  0.28600000000000003         -1.4689218369312584E-004
  0.28710000000000002         -2.8428586665540934E-004
  0.28820000000000001         -3.2912631286308169E-004
  0.28930000000000000         -2.7224502991884947E-004
  0.29040000000000005         -1.3663143909070641E-004
  0.29150000000000004          3.1918450986267999E-005
  0.29260000000000003          1.8061642185784876E-004
  0.29370000000000002          2.6641209842637181E-004
  0.29480000000000001          2.6831918512471020E-004
  0.29590000000000005          1.9191490719094872E-004
  0.29700000000000004          6.5450141846667975E-005
  0.29810000000000003         -7.0367539592552930E-005
  0.29920000000000002         -1.7521780682727695E-004
  0.30030000000000001         -2.2071832790970802E-004
  0.30140000000000006         -1.9768615311477333E-004
  0.30250000000000005         -1.1764608643716201E-004
  0.30360000000000004         -8.5905503510730341E-006
  0.30470000000000003          9.3816663138568401E-005
  0.30580000000000002          1.5735792112536728E-004
  0.30690000000000001          1.6364549810532480E-004
  0.30800000000000005          1.1433775944169611E-004
  0.30910000000000004          3.0564227927243337E-005
  0.31020000000000003         -5.4832653404446319E-005
  0.31130000000000002         -1.0971074516419321E-004
  0.31240000000000001         -1.1494407226564363E-004
  0.31350000000000006         -7.1678616222925484E-005
  0.31460000000000005         -5.5498941264886525E-007
  0.31570000000000004          6.6752276325132698E-005
