  -1.3200000000000002E-002     0.0000000000000000
  -1.2100000000000001E-002     1.4779982251099388E-013
  -1.1000000000000001E-002     1.5196256796315422E-012
  -9.9000000000000025E-003     1.2145874583868732E-011
  -8.8000000000000023E-003     8.0062650953394154E-011
  -7.7000000000000011E-003     4.3405656846573493E-010
  -6.6000000000000017E-003     1.9328829647946577E-009
  -5.5000000000000014E-003     7.0626069437196293E-009
  -4.4000000000000011E-003     2.1137044114993842E-008
  -3.3000000000000008E-003     5.1647667476117931E-008
  -2.2000000000000006E-003     1.0245866377545099E-007
  -1.1000000000000003E-003     1.6339724595582084E-007
  -1.7347234759768071E-018     2.0572574044308567E-007
   1.0999999999999985E-003     1.9728310007849359E-007
   2.1999999999999988E-003     1.3233545814728132E-007
   3.2999999999999991E-003     4.5141305804463627E-008
   4.3999999999999994E-003    -1.5622863003272869E-008
   5.4999999999999997E-003    -2.8490351411392112E-008
   6.6000000000000000E-003    -1.0294447072567436E-008
   7.7000000000000002E-003     1.1332260463348121E-008
   8.8000000000000005E-003     2.3814656913145882E-008
   9.9000000000000008E-003     2.5580158435900557E-008
   1.1000000000000001E-002     1.3227244188840359E-008
   1.2100000000000001E-002    -1.1541580136054108E-008
   1.3199999999999998E-002    -2.9540563772911810E-008
   1.4299999999999998E-002    -1.8482337438285867E-008
   1.5399999999999999E-002     1.5822658738784412E-008
   1.6500000000000001E-002     3.7674109165664049E-008
   1.7599999999999998E-002     2.1267993588480749E-008
   1.8700000000000001E-002    -1.6632720090115072E-008
   1.9799999999999998E-002    -3.5920376006970400E-008
   2.0900000000000002E-002    -2.0354896435037517E-008
   2.1999999999999999E-002     7.9560216192930966E-009
   2.3099999999999996E-002     2.0720536397789147E-008
   2.4199999999999999E-002     1.4640167300683515E-008
   2.5299999999999996E-002     3.8719845107948458E-009
   2.6400000000000000E-002    -4.6383772378533195E-009
   2.7499999999999997E-002    -1.3306510560084917E-008
   2.8600000000000000E-002    -1.7667197482751362E-008
   2.9699999999999997E-002    -6.7265988334952453E-009
   3.0800000000000001E-002     1.6079667375379358E-008
   3.1899999999999998E-002     2.7439620353675309E-008
   3.3000000000000002E-002     1.1196786608991260E-008
   3.4099999999999998E-002    -1.7213546144034808E-008
   3.5200000000000002E-002    -2.6694852550690484E-008
   3.6299999999999999E-002    -8.5933891114109429E-009
   3.7400000000000003E-002     1.4148116456169646E-008
   3.8500000000000000E-002     1.7884309144733379E-008
   3.9599999999999996E-002     5.4262963011808552E-009
   4.0700000000000000E-002    -4.9053130446452542E-009
   4.1799999999999997E-002    -6.4203482530444944E-009
   4.2900000000000001E-002    -6.8821597309920435E-009
   4.3999999999999997E-002    -8.8624920735469459E-009
   4.5100000000000001E-002    -3.7121696827568940E-009
   4.6199999999999998E-002     1.0522063220719247E-008
   4.7300000000000002E-002     1.8755734743081121E-008
   4.8399999999999999E-002     7.4845960540415035E-009
   4.9500000000000002E-002    -1.3259664477516253E-008
   5.0600000000000006E-002    -1.9586630983781106E-008
   5.1699999999999996E-002    -4.4904440166249060E-009
   5.2800000000000000E-002     1.3206537197163470E-008
   5.3900000000000003E-002     1.4110630885966202E-008
   5.5000000000000007E-002     1.7519344863714537E-009
   5.6099999999999997E-002    -6.7829848404699078E-009
   5.7200000000000001E-002    -5.5591296010959468E-009
   5.8300000000000005E-002    -3.2632492263928725E-009
   5.9399999999999994E-002    -4.7472465958264820E-009
   6.0499999999999998E-002    -2.8872766399956618E-009
   6.1600000000000002E-002     6.6275172017071782E-009
   6.2700000000000006E-002     1.3530385700732950E-008
   6.3799999999999996E-002     6.0075566743478248E-009
   6.4899999999999999E-002    -9.8787502622599277E-009
   6.6000000000000003E-002    -1.5338528669417428E-008
   6.7100000000000007E-002    -3.5878673365630220E-009
   6.8199999999999997E-002     1.0888976831324726E-008
   6.9300000000000000E-002     1.1797191667994866E-008
   7.0400000000000004E-002     1.3167764656429881E-009
   7.1500000000000008E-002    -6.1861284983422138E-009
   7.2599999999999998E-002    -4.8964077237201309E-009
   7.3700000000000002E-002    -1.9760106884092465E-009
   7.4800000000000005E-002    -2.6331576918892097E-009
   7.5899999999999995E-002    -1.8487318342863546E-009
   7.6999999999999999E-002     4.6363961558881783E-009
   7.8100000000000003E-002     9.7374543983619333E-009
   7.9200000000000007E-002     4.0506598075751299E-009
   8.0299999999999996E-002    -8.3049256360823165E-009
   8.1400000000000000E-002    -1.2500802171189207E-008
   8.2500000000000004E-002    -2.5943012182949587E-009
   8.3600000000000008E-002     9.8745847054715341E-009
   8.4699999999999998E-002     1.0882038381510029E-008
   8.5800000000000001E-002     1.3946110932749889E-009
   8.6900000000000005E-002    -6.2278138202032096E-009
   8.8000000000000009E-002    -5.4807633986797555E-009
   8.9099999999999999E-002    -1.5365860805971465E-009
   9.0200000000000002E-002    -2.7044996797620513E-010
   9.1300000000000006E-002     2.0702271841255282E-010
   9.2399999999999996E-002     3.2944738048712452E-009
   9.3500000000000000E-002     5.5054005798638173E-009
   9.4600000000000004E-002     1.2050959119491722E-009
   9.5700000000000007E-002    -6.7132188696916728E-009
   9.6799999999999997E-002    -8.3597360145404309E-009
   9.7900000000000001E-002    -3.1080946150119360E-010
   9.9000000000000005E-002     8.5172802144484194E-009
  0.10010000000000001          8.0010229552840428E-009
  0.10120000000000000         -2.9918559296682190E-010
  0.10230000000000000         -6.1512301918753565E-009
  0.10340000000000001         -4.3238252978028413E-009
  0.10450000000000001          3.8203293306615649E-010
  0.10560000000000000          1.8677104307585068E-009
  0.10670000000000000          7.7014794541696574E-010
  0.10780000000000001          8.8245760698768549E-010
  0.10890000000000001          1.7994447043534478E-009
  0.11000000000000000          1.0027770974696537E-010
  0.11110000000000000         -3.6267648884091841E-009
  0.11220000000000001         -4.2382044540545394E-009
  0.11330000000000000          3.3737343474449233E-010
  0.11440000000000002          5.0792769989982389E-009
  0.11550000000000001          4.2304240110979663E-009
  0.11660000000000000         -8.9977281181319313E-010
  0.11770000000000001         -3.9081431424392576E-009
  0.11880000000000000         -1.9385315574993456E-009
  0.11989999999999999          1.3432650547429148E-009
  0.12100000000000001          1.7637010740756409E-009
  0.12210000000000000          1.0256592797297515E-010
  0.12320000000000002         -4.0894457264961659E-010
  0.12430000000000001          4.9140680413728433E-010
  0.12540000000000001          2.9479085839057007E-010
  0.12650000000000003         -1.5321135471424441E-009
  0.12760000000000002         -2.2851240899512959E-009
  0.12870000000000001         -2.6868410274438759E-010
  0.12980000000000003          2.2518291675766022E-009
  0.13090000000000002          2.1020283291761643E-009
  0.13200000000000001         -3.1428004643174745E-010
  0.13310000000000002         -1.7165975307875669E-009
  0.13420000000000001         -5.7981869305834266E-010
  0.13530000000000003          1.1133178823286016E-009
  0.13640000000000002          1.0909195768959989E-009
  0.13750000000000001         -1.5387356666618501E-010
  0.13860000000000003         -6.6679312071826757E-010
  0.13970000000000002         -9.3233025466599173E-011
  0.14080000000000001          1.9873201695386200E-010
  0.14190000000000003         -4.0269720891217275E-010
  0.14300000000000002         -8.3181705967660946E-010
  0.14410000000000003         -2.2951940348292510E-010
  0.14520000000000002          5.9699523102807461E-010
  0.14630000000000001          4.4875558824486461E-010
  0.14740000000000003         -3.6442410200621111E-010
  0.14850000000000002         -4.8664022811450991E-010
  0.14960000000000001          4.1321746024891581E-010
  0.15070000000000003          1.1152762047217379E-009
  0.15180000000000002          5.9003191221762563E-010
  0.15290000000000001         -5.8133348135314122E-010
  0.15400000000000003         -1.0332833477733061E-009
  0.15510000000000002         -3.5318215019231047E-010
  0.15620000000000003          6.0015153957593270E-010
  0.15730000000000002          8.7802587422913803E-010
  0.15840000000000001          3.5968605871516957E-010
  0.15950000000000003         -4.7106790690421008E-010
  0.16060000000000002         -1.0964229524290658E-009
  0.16170000000000001         -1.1261696020170575E-009
  0.16280000000000003         -3.6624434041065967E-010
  0.16390000000000002          8.5007306749318445E-010
  0.16500000000000001          1.5976443501486415E-009
  0.16610000000000003          1.0960815588489936E-009
  0.16720000000000002         -3.7296296606648127E-010
  0.16830000000000003         -1.5357446425667831E-009
  0.16940000000000002         -1.2986125508263058E-009
  0.17050000000000001          1.8221700537335295E-010
  0.17160000000000003          1.6316216155942698E-009
  0.17270000000000002          1.7924187689644100E-009
  0.17380000000000001          4.6984710566633225E-010
  0.17490000000000003         -1.3457506220504456E-009
  0.17600000000000002         -2.2602728577680864E-009
  0.17710000000000004         -1.5354785221077805E-009
  0.17820000000000003          3.2546132455735233E-010
  0.17930000000000001          1.9166346287846636E-009
  0.18040000000000003          2.0010559875771605E-009
  0.18150000000000002          5.0828841136052461E-010
  0.18260000000000001         -1.3708136847867536E-009
  0.18370000000000003         -2.1138231165451771E-009
  0.18480000000000002         -1.0905458758259101E-009
  0.18590000000000001          9.0706919753102966E-010
  0.18700000000000003          2.2777868480261532E-009
  0.18810000000000002          1.9030255149488084E-009
  0.18920000000000003          6.5192566622851444E-011
  0.19030000000000002         -1.7975317900820187E-009
  0.19140000000000001         -2.2889075079746135E-009
  0.19250000000000003         -1.1382613740451575E-009
  0.19360000000000002          7.2141920215429423E-010
  0.19470000000000001          1.9651649196816834E-009
  0.19580000000000003          1.7717050049270711E-009
  0.19690000000000002          2.5236804312989136E-010
  0.19800000000000001         -1.5988783630405123E-009
  0.19910000000000003         -2.3966948425879764E-009
  0.20020000000000002         -1.3152283706574508E-009
  0.20130000000000003          1.0212775070073121E-009
  0.20240000000000002          2.7477671249442892E-009
  0.20350000000000001          2.3268142967936001E-009
  0.20460000000000003          7.3873018813230829E-011
  0.20570000000000002         -2.0874890704902782E-009
  0.20680000000000001         -2.4731154901758146E-009
  0.20790000000000003         -1.0592245969220926E-009
  0.20900000000000002          8.8630741634787569E-010
  0.21010000000000004          2.0894124208581388E-009
  0.21120000000000003          1.9198986844770616E-009
  0.21230000000000002          3.5226016548151051E-010
  0.21340000000000003         -1.8654220390601495E-009
  0.21450000000000002         -3.0801252659529155E-009
  0.21560000000000001         -1.8113260891183813E-009
  0.21670000000000003          1.3913382668206964E-009
  0.21780000000000002          3.7567664534776668E-009
  0.21890000000000001          2.8812592312021934E-009
  0.22000000000000003         -5.2763393654231550E-010
  0.22110000000000002         -3.2301987751282013E-009
  0.22220000000000004         -2.9008759838689002E-009
  0.22330000000000003         -3.3082844796972211E-010
  0.22440000000000002          1.9837298470548603E-009
  0.22550000000000003          2.5544364401497432E-009
  0.22660000000000002          1.5598087266255334E-009
  0.22770000000000001         -3.2792632498335195E-010
  0.22880000000000003         -2.3806638882462039E-009
  0.22990000000000002         -3.2241882497174856E-009
  0.23100000000000004         -1.4793677394209226E-009
  0.23210000000000003          2.1005717165678561E-009
  0.23320000000000002          4.2530974297960711E-009
  0.23430000000000004          2.4439228418771108E-009
  0.23540000000000003         -1.7880862346331128E-009
  0.23650000000000002         -4.1246082105317328E-009
  0.23760000000000003         -2.3522739311943042E-009
  0.23870000000000002          1.2689090889139720E-009
  0.23980000000000001          3.0576381426783428E-009
  0.24090000000000000          2.0862040983615771E-009
  0.24200000000000005          1.9692558694828222E-010
  0.24310000000000004         -1.1178367120834309E-009
  0.24420000000000003         -1.9500969727914708E-009
  0.24530000000000002         -2.2176300795706538E-009
  0.24640000000000001         -8.7799617576322930E-010
  0.24750000000000005          1.9344619239802796E-009
  0.24860000000000004          3.5683598298419383E-009
  0.24970000000000003          1.6502346156244130E-009
  0.25080000000000002         -2.2587109960170437E-009
  0.25190000000000001         -3.8570053817466032E-009
  0.25300000000000000         -1.3584445790471023E-009
  0.25410000000000005          2.2166017910052460E-009
  0.25520000000000004          2.9892421871124952E-009
  0.25630000000000003          9.5435415126132739E-010
  0.25740000000000002         -8.6418339151350665E-010
  0.25850000000000001         -9.6470142985083385E-010
  0.25960000000000005         -7.3105110853788347E-010
  0.26070000000000004         -1.1987606463037537E-009
  0.26180000000000003         -1.0057175092725856E-009
  0.26290000000000002          9.8021812888759996E-010
  0.26400000000000001          2.8145181740768521E-009
  0.26510000000000000          1.6530117274982103E-009
  0.26620000000000005         -1.7840730004436978E-009
  0.26730000000000004         -3.4503200296853720E-009
  0.26840000000000003         -1.2532275217580491E-009
  0.26950000000000002          2.0526325084091468E-009
  0.27060000000000001          2.6265076780163099E-009
  0.27170000000000005          5.5297005863153004E-010
  0.27280000000000004         -9.7149954747521861E-010
  0.27390000000000003         -5.5650589692035624E-010
  0.27500000000000002         -6.8151213838962832E-011
  0.27610000000000001         -8.6367202278836430E-010
  0.27720000000000000         -1.2657990211550896E-009
  0.27830000000000005          4.8961718013273980E-010
  0.27940000000000004          2.6366981931147393E-009
  0.28050000000000003          1.8586298056177952E-009
  0.28160000000000002         -1.6049370721304967E-009
  0.28270000000000001         -3.5859428759721368E-009
  0.28380000000000005         -1.4982084461934164E-009
  0.28490000000000004          2.0570949388343251E-009
  0.28600000000000003          2.8523363670984736E-009
  0.28710000000000002          6.1267729778435864E-010
  0.28820000000000001         -1.2647638492069291E-009
  0.28930000000000000         -8.7148510630186138E-010
  0.29040000000000005          6.2927441035753873E-011
  0.29150000000000004         -2.8963187403974189E-010
  0.29260000000000003         -7.7838752110537257E-010
  0.29370000000000002          4.1100492453871595E-010
  0.29480000000000001          2.0786519172588669E-009
  0.29590000000000005          1.3509415808243830E-009
  0.29700000000000004         -1.6417298631665744E-009
  0.29810000000000003         -3.1807989575582951E-009
  0.29920000000000002         -9.9237695838638729E-010
  0.30030000000000001          2.3220227962639228E-009
  0.30140000000000006          2.6949160680800333E-009
  0.30250000000000005          6.4079956618723344E-011
  0.30360000000000004         -1.8907861942807358E-009
  0.30470000000000003         -1.0607431599751749E-009
  0.30580000000000002          5.9644938987801766E-010
  0.30690000000000001          5.7633231520526351E-010
  0.30800000000000005         -4.5823422833990435E-010
  0.30910000000000004         -3.0246144477885650E-010
  0.31020000000000003          8.8816848320405484E-010
  0.31130000000000002          8.2958995228921140E-010
  0.31240000000000001         -9.5061269966834061E-010
  0.31350000000000006         -1.9199193346253196E-009
  0.31460000000000005         -2.7198288066188070E-010
  0.31570000000000004          2.0909405318292329E-009
