  -1.3200000000000002E-002     0.0000000000000000
  -1.2100000000000001E-002     0.0000000000000000
  -1.1000000000000001E-002     0.0000000000000000
  -9.9000000000000025E-003     0.0000000000000000
  -8.8000000000000023E-003     0.0000000000000000
  -7.7000000000000011E-003     0.0000000000000000
  -6.6000000000000017E-003     0.0000000000000000
  -5.5000000000000014E-003     0.0000000000000000
  -4.4000000000000011E-003     0.0000000000000000
  -3.3000000000000008E-003     0.0000000000000000
  -2.2000000000000006E-003     0.0000000000000000
  -1.1000000000000003E-003     0.0000000000000000
  -1.7347234759768071E-018     0.0000000000000000
   1.0999999999999985E-003     0.0000000000000000
   2.1999999999999988E-003     0.0000000000000000
   3.2999999999999991E-003     0.0000000000000000
   4.3999999999999994E-003     0.0000000000000000
   5.4999999999999997E-003     0.0000000000000000
   6.6000000000000000E-003     0.0000000000000000
   7.7000000000000002E-003     0.0000000000000000
   8.8000000000000005E-003     0.0000000000000000
   9.9000000000000008E-003     0.0000000000000000
   1.1000000000000001E-002     0.0000000000000000
   1.2100000000000001E-002     0.0000000000000000
   1.3199999999999998E-002     0.0000000000000000
   1.4299999999999998E-002     0.0000000000000000
   1.5399999999999999E-002    -2.0471706198101427E-030
   1.6500000000000001E-002    -3.1501795126782400E-029
   1.7599999999999998E-002    -4.3306551007457529E-030
   1.8700000000000001E-002     3.8869857213239353E-028
   1.9799999999999998E-002     8.6503673082887405E-028
   2.0900000000000002E-002    -2.6775185199875159E-027
   2.1999999999999999E-002    -1.4754090162251872E-026
   2.3099999999999996E-002    -4.1276877235497229E-028
   2.4199999999999999E-002     1.4399460207500095E-025
   2.5299999999999996E-002     2.5983606499353826E-025
   2.6400000000000000E-002    -8.1489666775215238E-025
   2.7499999999999997E-002    -3.5301817387175210E-024
   2.8600000000000000E-002     6.0551069818592336E-025
   2.9699999999999997E-002     2.7423960509103254E-023
   3.0800000000000001E-002     3.9448352717220917E-023
   3.1899999999999998E-002    -1.2448971031259543E-022
   3.3000000000000002E-002    -4.5126468752273547E-022
   3.4099999999999998E-002     7.6985573140129961E-023
   3.5200000000000002E-002     2.8192033856620861E-021
   3.6299999999999999E-002     3.8762713441032733E-021
   3.7400000000000003E-002    -9.6983970297387471E-021
   3.8500000000000000E-002    -3.5445060832938031E-020
   3.9599999999999996E-002    -3.7835451244502892E-021
   4.0700000000000000E-002     1.7084952848127640E-019
   4.1799999999999997E-002     2.7656008298886212E-019
   4.2900000000000001E-002    -3.8010872341735807E-019
   4.3999999999999997E-002    -1.8261875246437862E-018
   4.5100000000000001E-002    -1.0853228988179372E-018
   4.6199999999999998E-002     6.1595077871475146E-018
   4.7300000000000002E-002     1.3802574756256848E-017
   4.8399999999999999E-002    -4.0365743876291583E-018
   4.9500000000000002E-002    -6.0378679002213867E-017
   5.0600000000000006E-002    -7.5818799228904180E-017
   5.1699999999999996E-002     1.1081346251890317E-016
   5.2800000000000000E-002     4.4409206858625960E-016
   5.3900000000000003E-002     2.7921969944161100E-016
   5.5000000000000007E-002    -1.1182983191069238E-015
   5.6099999999999997E-002    -2.6466353353425242E-015
   5.7200000000000001E-002    -3.1948166358389046E-016
   5.8300000000000005E-002     8.0926815270755681E-015
   5.9399999999999994E-002     1.3361609317889475E-014
   6.0499999999999998E-002    -4.6864981954029567E-015
   6.1600000000000002E-002    -4.7744919590185855E-014
   6.2700000000000006E-002    -5.9273197244510967E-014
   6.3799999999999996E-002     4.7960320068672624E-014
   6.4899999999999999E-002     2.4284803226519436E-013
   6.6000000000000003E-002     2.4043448980902438E-013
   6.7100000000000007E-002    -2.9356158888320383E-013
   6.8199999999999997E-002    -1.1001000457810939E-012
   6.9300000000000000E-002    -9.3506159846296066E-013
   7.0400000000000004E-002     1.3843931426574252E-012
   7.1500000000000008E-002     4.5281235358518579E-012
   7.2599999999999998E-002     3.6493607614984658E-012
   7.3700000000000002E-002    -5.3061431116996349E-012
   7.4800000000000005E-002    -1.7093495022213467E-011
   7.5899999999999995E-002    -1.4581133175872729E-011
   7.6999999999999999E-002     1.6261028981667813E-011
   7.8100000000000003E-002     5.8997584595488206E-011
   7.9200000000000007E-002     5.8447899298208483E-011
   8.0299999999999996E-002    -3.4874200749435147E-011
   8.1400000000000000E-002    -1.8253863698358685E-010
   8.2500000000000004E-002    -2.2447446679230154E-010
   8.3600000000000008E-002     1.1702004816538381E-011
   8.4699999999999998E-002     4.8222587034629782E-010
   8.5800000000000001E-002     7.8460543617708822E-010
   8.6900000000000005E-002     3.5726413494252540E-010
   8.8000000000000009E-002    -9.5410856992828030E-010
   8.9099999999999999E-002    -2.3586812503140209E-009
   9.0200000000000002E-002    -2.2514452524546869E-009
   9.1300000000000006E-002     6.3752864098987061E-010
   9.2399999999999996E-002     5.5531672593644998E-009
   9.3500000000000000E-002     8.8317397839432488E-009
   9.4600000000000004E-002     5.3271080879824240E-009
   9.5700000000000007E-002    -7.4632930946449960E-009
   9.6799999999999997E-002    -2.4459154701617081E-008
   9.7900000000000001E-002    -3.1455734017526993E-008
   9.9000000000000005E-002    -1.1486924300641022E-008
  0.10010000000000001          4.0229132025615399E-008
  0.10120000000000000          1.0006768036419089E-007
  0.10230000000000000          1.1374110187034603E-007
  0.10340000000000001          2.3006704097383590E-008
  0.10450000000000001         -1.7924794804002886E-007
  0.10560000000000000         -3.9491484926656995E-007
  0.10670000000000000         -4.2171785707978415E-007
  0.10780000000000001         -5.6702770478977982E-008
  0.10890000000000001          7.0856037837074837E-007
  0.11000000000000000          1.5075463579705684E-006
  0.11110000000000000          1.6139870240294840E-006
  0.11220000000000001          3.0185208288457943E-007
  0.11330000000000000         -2.4917997052398277E-006
  0.11440000000000002         -5.5450459512940142E-006
  0.11550000000000001         -6.3487200350209605E-006
  0.11660000000000000         -2.2198055376065895E-006
  0.11770000000000001          7.5323637247493025E-006
  0.11880000000000000          1.9373221221030690E-005
  0.11989999999999999          2.5035387807292864E-005
  0.12100000000000001          1.4493301023321692E-005
  0.12210000000000000         -1.7274975107284263E-005
  0.12320000000000002         -6.2196471844799817E-005
  0.12430000000000001         -9.5028466603253037E-005
  0.12540000000000001         -7.9539648140780628E-005
  0.12650000000000003          1.2023491763102356E-005
  0.12760000000000002          1.7097625823225826E-004
  0.12870000000000001          3.3038578112609684E-004
  0.12980000000000003          3.7010465166531503E-004
  0.13090000000000002          1.6459489415865391E-004
  0.13200000000000001         -3.2994119101203978E-004
  0.13310000000000002         -9.8280783277004957E-004
  0.13420000000000001         -1.4512599445879459E-003
  0.13530000000000003         -1.2625835370272398E-003
  0.13640000000000002         -4.2980798752978444E-005
  0.13750000000000001          2.1589372772723436E-003
  0.13860000000000003          4.6023945324122906E-003
  0.13970000000000002          5.8487020432949066E-003
  0.14080000000000001          4.1978051885962486E-003
  0.14190000000000003         -1.4169462956488132E-003
  0.14300000000000002         -1.0330802761018276E-002
  0.14410000000000003         -1.9381644204258919E-002
  0.14520000000000002         -2.3140544071793556E-002
  0.14630000000000001         -1.5621233731508255E-002
  0.14740000000000003          6.6113392822444439E-003
  0.14850000000000002          4.0845781564712524E-002
  0.14960000000000001          7.5842075049877167E-002
  0.15070000000000003          9.2653773725032806E-002
  0.15180000000000002          7.0036023855209351E-002
  0.15290000000000001         -5.8191744610667229E-003
  0.15400000000000003        -0.12980514764785767
  0.15510000000000002        -0.26943731307983398
  0.15620000000000003        -0.36504581570625305
  0.15730000000000002        -0.34287402033805847
  0.15840000000000001        -0.14135374128818512
  0.15950000000000003         0.25496235489845276
  0.16060000000000002         0.78502321243286133
  0.16170000000000001          1.2987042665481567
  0.16280000000000003          1.5743730068206787
  0.16390000000000002          1.3711808919906616
  0.16500000000000001         0.50843554735183716
  0.16610000000000003         -1.0486698150634766
  0.16720000000000002         -3.1264767646789551
  0.16830000000000003         -5.3327794075012207
  0.16940000000000002         -7.1171236038208008
  0.17050000000000001         -7.8983683586120605
  0.17160000000000003         -7.2316794395446777
  0.17270000000000002         -4.9674506187438965
  0.17380000000000001         -1.3481744527816772
  0.17490000000000003          2.9986777305603027
  0.17600000000000002          7.1851053237915039
  0.17710000000000004          10.279809951782227
  0.17820000000000003          11.559643745422363
  0.17930000000000001          10.719182968139648
  0.18040000000000003          7.9696106910705566
  0.18150000000000002          3.9898860454559326
  0.18260000000000001        -0.25975537300109863
  0.18370000000000003         -3.8060271739959717
  0.18480000000000002         -5.9282360076904297
  0.18590000000000001         -6.3376603126525879
  0.18700000000000003         -5.2167930603027344
  0.18810000000000002         -3.1136164665222168
  0.18920000000000003        -0.73601925373077393
  0.19030000000000002          1.2764499187469482
  0.19140000000000001          2.5238628387451172
  0.19250000000000003          2.9082524776458740
  0.19360000000000002          2.5812518596649170
  0.19470000000000001          1.8165254592895508
  0.19580000000000003         0.87247568368911743
  0.19690000000000002         -9.3267269432544708E-002
  0.19800000000000001         -1.0269678831100464
  0.19910000000000003         -1.9123126268386841
  0.20020000000000002         -2.6826093196868896
  0.20130000000000003         -3.1706838607788086
  0.20240000000000002         -3.1364309787750244
  0.20350000000000001         -2.3712770938873291
  0.20460000000000003        -0.83568882942199707
  0.20570000000000002          1.2392851114273071
  0.20680000000000001          3.3491461277008057
  0.20790000000000003          4.8372640609741211
  0.20900000000000002          5.1120877265930176
  0.21010000000000004          3.8842303752899170
  0.21120000000000003          1.3275190591812134
  0.21230000000000002         -1.9125800132751465
  0.21340000000000003         -4.8860988616943359
  0.21450000000000002         -6.6358928680419922
  0.21560000000000001         -6.5247550010681152
  0.21670000000000003         -4.4734139442443848
  0.21780000000000002         -1.0181491374969482
  0.21890000000000001          2.8396344184875488
  0.22000000000000003          5.9444918632507324
  0.22110000000000002          7.3539738655090332
  0.22220000000000004          6.6381292343139648
  0.22330000000000003          4.0129928588867188
  0.22440000000000002         0.26734387874603271
  0.22550000000000003         -3.4891126155853271
  0.22660000000000002         -6.1710543632507324
  0.22770000000000001         -7.0442204475402832
  0.22880000000000003         -5.9315452575683594
  0.22990000000000002         -3.2397551536560059
  0.23100000000000004         0.19203333556652069
  0.23210000000000003          3.3636519908905029
  0.23320000000000002          5.4136295318603516
  0.23430000000000004          5.8555278778076172
  0.23540000000000003          4.6879043579101562
  0.23650000000000002          2.3586676120758057
  0.23760000000000003        -0.39334625005722046
  0.23870000000000002         -2.7674748897552490
  0.23980000000000001         -4.1351590156555176
  0.24090000000000000         -4.2137084007263184
  0.24200000000000005         -3.1298129558563232
  0.24310000000000004         -1.3524171113967896
  0.24420000000000003         0.48430088162422180
  0.24530000000000002          1.8066333532333374
  0.24640000000000001          2.2930848598480225
  0.24750000000000005          1.9611185789108276
  0.24860000000000004          1.1206747293472290
  0.24970000000000003         0.22103612124919891
  0.25080000000000002        -0.34175327420234680
  0.25190000000000001        -0.38028895854949951
  0.25300000000000000          2.1648697555065155E-002
  0.25410000000000005         0.55768632888793945
  0.25520000000000004         0.83852148056030273
  0.25630000000000003         0.57215154170989990
  0.25740000000000002        -0.28385049104690552
  0.25850000000000001         -1.4656493663787842
  0.25960000000000005         -2.4818294048309326
  0.26070000000000004         -2.8124158382415771
  0.26180000000000003         -2.1507203578948975
  0.26290000000000002        -0.57506817579269409
  0.26400000000000001          1.4418716430664062
  0.26510000000000000          3.2033338546752930
  0.26620000000000005          4.0647206306457520
  0.26730000000000004          3.6891925334930420
  0.26840000000000003          2.1715314388275146
  0.26950000000000002         -1.0062223300337791E-002
  0.27060000000000001         -2.1752307415008545
  0.27170000000000005         -3.6727192401885986
  0.27280000000000004         -4.0811290740966797
  0.27390000000000003         -3.3268973827362061
  0.27500000000000002         -1.6951797008514404
  0.27610000000000001         0.26977297663688660
  0.27720000000000000          1.9526087045669556
  0.27830000000000005          2.8848593235015869
  0.27940000000000004          2.9057257175445557
  0.28050000000000003          2.1887972354888916
  0.28160000000000002          1.1197272539138794
  0.28270000000000001          9.3390569090843201E-002
  0.28380000000000005        -0.65340989828109741
  0.28490000000000004         -1.0856938362121582
  0.28600000000000003         -1.2899141311645508
  0.28710000000000002         -1.3510512113571167
  0.28820000000000001         -1.2838410139083862
  0.28930000000000000         -1.0553380250930786
  0.29040000000000005        -0.65611332654953003
  0.29150000000000004        -0.14470368623733521
  0.29260000000000003         0.37307071685791016
  0.29370000000000002         0.80222886800765991
  0.29480000000000001          1.0949778556823730
  0.29590000000000005          1.2358064651489258
  0.29700000000000004          1.2032657861709595
  0.29810000000000003         0.96188259124755859
  0.29920000000000002         0.50459885597229004
  0.30030000000000001         -9.3019813299179077E-002
  0.30140000000000006        -0.67010343074798584
  0.30250000000000005         -1.0532572269439697
  0.30360000000000004         -1.1578415632247925
  0.30470000000000003         -1.0348871946334839
  0.30580000000000002        -0.81840026378631592
  0.30690000000000001        -0.61110103130340576
  0.30800000000000005        -0.40323349833488464
  0.30910000000000004         -9.5933616161346436E-002
  0.31020000000000003         0.38621255755424500
  0.31130000000000002         0.98643147945404053
  0.31240000000000001          1.5050368309020996
  0.31350000000000006          1.7034257650375366
  0.31460000000000005          1.4481791257858276
  0.31570000000000004         0.79073250293731689
