  -1.3200000000000002E-002     0.0000000000000000
  -1.2100000000000001E-002     0.0000000000000000
  -1.1000000000000001E-002     0.0000000000000000
  -9.9000000000000025E-003     0.0000000000000000
  -8.8000000000000023E-003     0.0000000000000000
  -7.7000000000000011E-003     5.3213861917357221E-023
  -6.6000000000000017E-003     5.0181908475842644E-022
  -5.5000000000000014E-003     3.5877658521844792E-021
  -4.4000000000000011E-003     2.1911528134802401E-020
  -3.3000000000000008E-003     1.0735124786553904E-019
  -2.2000000000000006E-003     4.0660148313044745E-019
  -1.1000000000000003E-003     1.1335739983093804E-018
  -1.7347234759768071E-018     2.0033549293967719E-018
   1.0999999999999985E-003     5.3786245768766565E-019
   2.1999999999999988E-003    -9.4095086856744859E-018
   3.2999999999999991E-003    -3.2486118968423722E-017
   4.3999999999999994E-003    -5.2752063828307602E-017
   5.4999999999999997E-003    -1.1447674270379633E-017
   6.6000000000000000E-003     1.7832288177013246E-016
   7.7000000000000002E-003     5.4194226756514204E-016
   8.8000000000000005E-003     8.7026388462393359E-016
   9.9000000000000008E-003     4.5914204411395560E-016
   1.1000000000000001E-002    -2.0278146634186874E-015
   1.2100000000000001E-002    -7.4898558018112078E-015
   1.3199999999999998E-002    -1.2622319808558869E-014
   1.4299999999999998E-002    -5.6818864222700060E-015
   1.5399999999999999E-002     2.8117390821246271E-014
   1.6500000000000001E-002     8.2299327129695815E-014
   1.7599999999999998E-002     1.0165327103293584E-013
   1.8700000000000001E-002    -5.8843188263343112E-016
   1.9799999999999998E-002    -2.5106213765932472E-013
   2.0900000000000002E-002    -5.1073853262958990E-013
   2.1999999999999999E-002    -4.8786056574753878E-013
   2.3099999999999996E-002     7.0795996289733237E-014
   2.4199999999999999E-002     1.1239234369575524E-012
   2.5299999999999996E-002     2.1912940212365228E-012
   2.6400000000000000E-002     2.3922014542876457E-012
   2.7499999999999997E-002     7.1444862829658784E-013
   2.8600000000000000E-002    -3.2908107662488195E-012
   2.9699999999999997E-002    -8.3818776572264220E-012
   3.0800000000000001E-002    -1.0980841236296612E-011
   3.1899999999999998E-002    -6.6013249554186526E-012
   3.3000000000000002E-002     6.3793020345370710E-012
   3.4099999999999998E-002     2.3345743740965652E-011
   3.5200000000000002E-002     3.4388145109254253E-011
   3.6299999999999999E-002     3.0040914200668567E-011
   3.7400000000000003E-002     7.2328180771019657E-012
   3.8500000000000000E-002    -2.9295253722860792E-011
   3.9599999999999996E-002    -6.9181195494483205E-011
   4.0700000000000000E-002    -9.7738511728451272E-011
   4.1799999999999997E-002    -9.6559440998511548E-011
   4.2900000000000001E-002    -4.9769570409363695E-011
   4.3999999999999997E-002     4.2522547982759562E-011
   4.5100000000000001E-002     1.5530067509761381E-010
   4.6199999999999998E-002     2.4797305875345899E-010
   4.7300000000000002E-002     2.8669225327071501E-010
   4.8399999999999999E-002     2.5586111007669388E-010
   4.9500000000000002E-002     1.4642131951347892E-010
   5.0600000000000006E-002    -5.7870402914161900E-011
   5.1699999999999996E-002    -3.6431460626040746E-010
   5.2800000000000000E-002    -7.2920292026878997E-010
   5.3900000000000003E-002    -1.0357493751556035E-009
   5.5000000000000007E-002    -1.1274050581988604E-009
   5.6099999999999997E-002    -8.7402229898003725E-010
   5.7200000000000001E-002    -2.1506624259259866E-010
   5.8300000000000005E-002     8.4044865511501143E-010
   5.9399999999999994E-002     2.2224282414384788E-009
   6.0499999999999998E-002     3.7847094347398524E-009
   6.1600000000000002E-002     5.2910880121714854E-009
   6.2700000000000006E-002     6.4518594911078253E-009
   6.3799999999999996E-002     7.0109238414772790E-009
   6.4899999999999999E-002     6.8238290573674476E-009
   6.6000000000000003E-002     5.8787961165762681E-009
   6.7100000000000007E-002     4.2766665764304435E-009
   6.8199999999999997E-002     2.2123882725821886E-009
   6.9300000000000000E-002    -3.6760081090214669E-011
   7.0400000000000004E-002    -2.1436208363923015E-009
   7.1500000000000008E-002    -3.7897924798357963E-009
   7.2599999999999998E-002    -4.7252148860366106E-009
   7.3700000000000002E-002    -4.8187782653030808E-009
   7.4800000000000005E-002    -4.1118748406177019E-009
   7.5899999999999995E-002    -2.8491264902896773E-009
   7.6999999999999999E-002    -1.4126594338748077E-009
   7.8100000000000003E-002    -1.4535353476397006E-010
   7.9200000000000007E-002     8.0520023981733857E-010
   8.0299999999999996E-002     1.4569049300305892E-009
   8.1400000000000000E-002     1.8012791258570360E-009
   8.2500000000000004E-002     1.6873320518584478E-009
   8.3600000000000008E-002     9.6015939643478987E-010
   8.4699999999999998E-002    -2.7677932168401753E-010
   8.5800000000000001E-002    -1.5931593821960632E-009
   8.6900000000000005E-002    -2.4790454133949424E-009
   8.8000000000000009E-002    -2.6744377823462173E-009
   8.9099999999999999E-002    -2.2655199938270698E-009
   9.0200000000000002E-002    -1.5076759840582099E-009
   9.1300000000000006E-002    -6.1131905093603223E-010
   9.2399999999999996E-002     3.0809207962612106E-010
   9.3500000000000000E-002     1.1466179117292086E-009
   9.4600000000000004E-002     1.7423152920414964E-009
   9.5700000000000007E-002     1.8928465461698352E-009
   9.6799999999999997E-002     1.4440560969219973E-009
   9.7900000000000001E-002     4.1785949700390290E-010
   9.9000000000000005E-002    -8.8781126894588169E-010
  0.10010000000000001         -1.9603754175534505E-009
  0.10120000000000000         -2.3524890924164765E-009
  0.10230000000000000         -1.9851154053895925E-009
  0.10340000000000001         -1.1580602032879028E-009
  0.10450000000000001         -2.2912904906746689E-010
  0.10560000000000000          6.7031302730669040E-010
  0.10670000000000000          1.5363015304359351E-009
  0.10780000000000001          2.1687889262267390E-009
  0.10890000000000001          2.1308679265530373E-009
  0.11000000000000000          1.1664470500605262E-009
  0.11110000000000000         -3.8339587060676195E-010
  0.11220000000000001         -1.7198404922424970E-009
  0.11330000000000000         -2.2120401066416662E-009
  0.11440000000000002         -1.8646311161774065E-009
  0.11550000000000001         -1.1696205115541147E-009
  0.11660000000000000         -5.7236287931416996E-010
  0.11770000000000001         -1.2911879898602763E-010
  0.11880000000000000          3.7767922123066455E-010
  0.11989999999999999          1.0850652598648480E-009
  0.12100000000000001          1.8078364361073795E-009
  0.12210000000000000          2.0841521841674648E-009
  0.12320000000000002          1.4933018155360855E-009
  0.12430000000000001          7.5732135840222981E-011
  0.12540000000000001         -1.4882626242496144E-009
  0.12650000000000003         -2.2527959497864458E-009
  0.12760000000000002         -1.7745763747356591E-009
  0.12870000000000001         -5.7117177654220086E-010
  0.12980000000000003          3.0448721322073879E-010
  0.13090000000000002          2.5487517651967551E-010
  0.13200000000000001         -3.1632876873466387E-010
  0.13310000000000002         -4.9418247272114968E-010
  0.13420000000000001          1.6082607467993171E-010
  0.13530000000000003          1.1854848214198910E-009
  0.13640000000000002          1.7198890089886731E-009
  0.13750000000000001          1.3137793075657100E-009
  0.13860000000000003          2.3118147673972800E-010
  0.13970000000000002         -8.6895063367009584E-010
  0.14080000000000001         -1.4210606025244488E-009
  0.14190000000000003         -1.2352396883130723E-009
  0.14300000000000002         -5.4072102351199192E-010
  0.14410000000000003          1.5538292874595072E-010
  0.14520000000000002          3.9274644647591117E-010
  0.14630000000000001          1.1613655870323925E-010
  0.14740000000000003         -2.7028376758941874E-010
  0.14850000000000002         -2.8742588864538732E-010
  0.14960000000000001          1.4850801144383752E-010
  0.15070000000000003          6.6210181781656274E-010
  0.15180000000000002          8.0067963370566986E-010
  0.15290000000000001          4.2405767786135584E-010
  0.15400000000000003         -2.4699214895562704E-010
  0.15510000000000002         -8.2786755228880793E-010
  0.15620000000000003         -9.5851604431373971E-010
  0.15730000000000002         -4.5577464025114978E-010
  0.15840000000000001          4.9579068628347045E-010
  0.15950000000000003          1.2831768980703373E-009
  0.16060000000000002          1.2151813999494721E-009
  0.16170000000000001          1.5242969386708438E-010
  0.16280000000000003         -1.2065999310806319E-009
  0.16390000000000002         -1.8222662268030376E-009
  0.16500000000000001         -1.2196705867495439E-009
  0.16610000000000003          7.8099360312222643E-011
  0.16720000000000002          1.0312579679094824E-009
  0.16830000000000003          1.0054024279781970E-009
  0.16940000000000002          2.6544724751609294E-010
  0.17050000000000001         -3.5421501842769487E-010
  0.17160000000000003         -2.3100978074896972E-010
  0.17270000000000002          5.1484738694540511E-010
  0.17380000000000001          1.1522347520553922E-009
  0.17490000000000003          9.8205887866242847E-010
  0.17600000000000002         -5.3445432107723789E-011
  0.17710000000000004         -1.2967968920918338E-009
  0.17820000000000003         -1.8926473721592174E-009
  0.17930000000000001         -1.4536137848963904E-009
  0.18040000000000003         -3.2136610039756874E-010
  0.18150000000000002          7.4910000424921463E-010
  0.18260000000000001          1.1631431373615442E-009
  0.18370000000000003          8.5471596467101563E-010
  0.18480000000000002          2.3421192762995702E-010
  0.18590000000000001         -1.7025487963895358E-010
  0.18700000000000003         -1.0146993661974690E-010
  0.18810000000000002          2.6964980248678216E-010
  0.18920000000000003          5.2535431560585266E-010
  0.19030000000000002          3.6942607306578168E-010
  0.19140000000000001         -1.4613268928265200E-010
  0.19250000000000003         -7.2164413333908328E-010
  0.19360000000000002         -1.0650310633408822E-009
  0.19470000000000001         -1.0102211289719776E-009
  0.19580000000000003         -4.9606396768098193E-010
  0.19690000000000002          3.6294395266978086E-010
  0.19800000000000001          1.1336612759649256E-009
  0.19910000000000003          1.2211751609925159E-009
  0.20020000000000002          4.3529149729160110E-010
  0.20130000000000003         -6.2229804642655040E-010
  0.20240000000000002         -1.0022732643832910E-009
  0.20350000000000001         -3.7845873657182949E-010
  0.20460000000000003          5.6863858066691364E-010
  0.20570000000000002          8.8620527582961017E-010
  0.20680000000000001          3.5700919998049585E-010
  0.20790000000000003         -4.0154507496836800E-010
  0.20900000000000002         -7.3624928376148091E-010
  0.21010000000000004         -5.6049387353596103E-010
  0.21120000000000003         -1.4538090176152707E-010
  0.21230000000000002          3.1276892187293015E-010
  0.21340000000000003          6.5463273690724577E-010
  0.21450000000000002          5.5780019492246424E-010
  0.21560000000000001         -1.6242068801020082E-010
  0.21670000000000003         -1.0402316785729226E-009
  0.21780000000000002         -1.1884759842928361E-009
  0.21890000000000001         -2.8623847736497510E-010
  0.22000000000000003          9.2662955086808552E-010
  0.22110000000000002          1.4277106163973485E-009
  0.22220000000000004          1.0017908724790914E-009
  0.22330000000000003          2.3370311241777131E-010
  0.22440000000000002         -4.0222217223551127E-010
  0.22550000000000003         -9.0827240173396717E-010
  0.22660000000000002         -1.1752601114523031E-009
  0.22770000000000001         -7.1041755811407370E-010
  0.22880000000000003          5.2628895685913335E-010
  0.22990000000000002          1.4375552970236072E-009
  0.23100000000000004          7.7439260559586387E-010
  0.23210000000000003         -1.1007875722057747E-009
  0.23320000000000002         -2.1819837048298041E-009
  0.23430000000000004         -1.0345794221322535E-009
  0.23540000000000003          1.3840011359178561E-009
  0.23650000000000002          2.7069486652209207E-009
  0.23760000000000003          1.7744791191987019E-009
  0.23870000000000002         -3.2901481539227007E-010
  0.23980000000000001         -1.7821240039239683E-009
  0.24090000000000000         -1.8265142731621609E-009
  0.24200000000000005         -8.4221934981698610E-010
  0.24310000000000004          5.4036886076858082E-010
  0.24420000000000003          1.6399446245429772E-009
  0.24530000000000002          1.5339269854308668E-009
  0.24640000000000001         -1.8119966638252549E-010
  0.24750000000000005         -2.2589290438190801E-009
  0.24860000000000004         -2.4683546318016170E-009
  0.24970000000000003         -1.2608016020099200E-010
  0.25080000000000002          2.6187056967330591E-009
  0.25190000000000001          2.9413007585077366E-009
  0.25300000000000000          6.0390903389162531E-010
  0.25410000000000005         -1.8368365717336133E-009
  0.25520000000000004         -2.1456703080957595E-009
  0.25630000000000003         -7.4673178751538671E-010
  0.25740000000000002          4.9879639307803814E-010
  0.25850000000000001          8.4923679199988555E-010
  0.25960000000000005          9.2661123218817920E-010
  0.26070000000000004          9.3006580215160284E-010
  0.26180000000000003          1.3868090009694356E-010
  0.26290000000000002         -1.4232237610656284E-009
  0.26400000000000001         -2.1439212627427651E-009
  0.26510000000000000         -7.4620387646717745E-010
  0.26620000000000005          1.5958516730307792E-009
  0.26730000000000004          2.3450039687844537E-009
  0.26840000000000003          7.5181416647751576E-010
  0.26950000000000002         -1.2611947042273641E-009
  0.27060000000000001         -1.6714324369004885E-009
  0.27170000000000005         -6.7922895086169888E-010
  0.27280000000000004          2.6971161415367817E-010
  0.27390000000000003          7.5819794886911041E-010
  0.27500000000000002          1.3344237936863124E-009
  0.27610000000000001          1.6383706613609661E-009
  0.27720000000000000          3.9206426993843024E-010
  0.27830000000000005         -2.1799009264356073E-009
  0.27940000000000004         -3.4600984299970605E-009
  0.28050000000000003         -1.3962451195226322E-009
  0.28160000000000002          2.3382726865861514E-009
  0.28270000000000001          3.7834486654730881E-009
  0.28380000000000005          1.4040768547829430E-009
  0.28490000000000004         -2.0605055439659736E-009
  0.28600000000000003         -3.0324114330682050E-009
  0.28710000000000002         -1.1472374161769494E-009
  0.28820000000000001          1.1488706652684755E-009
  0.28930000000000000          2.0472095130230628E-009
  0.29040000000000005          1.7811276897816697E-009
  0.29150000000000004          9.0729324053739902E-010
  0.29260000000000003         -7.8119716251379145E-010
  0.29370000000000002         -2.8005535668285120E-009
  0.29480000000000001         -3.0908482440139551E-009
  0.29590000000000005         -3.6603292619119543E-010
  0.29700000000000004          3.2486990875213451E-009
  0.29810000000000003          3.8787688616537253E-009
  0.29920000000000002          5.9260607532252152E-010
  0.30030000000000001         -3.1054749882741817E-009
  0.30140000000000006         -3.3704170565584946E-009
  0.30250000000000005         -4.5618472888087069E-010
  0.30360000000000004          2.1733230770593082E-009
  0.30470000000000003          2.3324726594609047E-009
  0.30580000000000002          9.7804397913847652E-010
  0.30690000000000001         -2.3978993790585434E-010
  0.30800000000000005         -1.2055004772193456E-009
  0.30910000000000004         -2.1538337779958283E-009
  0.31020000000000003         -1.9569130760288544E-009
  0.31130000000000002          4.1830067187831332E-010
  0.31240000000000001          3.2973586083784312E-009
  0.31350000000000006          3.3455374026658546E-009
  0.31460000000000005         -1.4321763219804495E-010
  0.31570000000000004         -3.6640750433747371E-009
