  -1.3200000000000002E-002     0.0000000000000000
  -1.2100000000000001E-002     0.0000000000000000
  -1.1000000000000001E-002     0.0000000000000000
  -9.9000000000000025E-003     0.0000000000000000
  -8.8000000000000023E-003     0.0000000000000000
  -7.7000000000000011E-003     0.0000000000000000
  -6.6000000000000017E-003     0.0000000000000000
  -5.5000000000000014E-003     0.0000000000000000
  -4.4000000000000011E-003     0.0000000000000000
  -3.3000000000000008E-003     0.0000000000000000
  -2.2000000000000006E-003     0.0000000000000000
  -1.1000000000000003E-003     0.0000000000000000
  -1.7347234759768071E-018     0.0000000000000000
   1.0999999999999985E-003     0.0000000000000000
   2.1999999999999988E-003     0.0000000000000000
   3.2999999999999991E-003     0.0000000000000000
   4.3999999999999994E-003     0.0000000000000000
   5.4999999999999997E-003     0.0000000000000000
   6.6000000000000000E-003     0.0000000000000000
   7.7000000000000002E-003     0.0000000000000000
   8.8000000000000005E-003     0.0000000000000000
   9.9000000000000008E-003     0.0000000000000000
   1.1000000000000001E-002     0.0000000000000000
   1.2100000000000001E-002     0.0000000000000000
   1.3199999999999998E-002     0.0000000000000000
   1.4299999999999998E-002     0.0000000000000000
   1.5399999999999999E-002     0.0000000000000000
   1.6500000000000001E-002     0.0000000000000000
   1.7599999999999998E-002     0.0000000000000000
   1.8700000000000001E-002     0.0000000000000000
   1.9799999999999998E-002     0.0000000000000000
   2.0900000000000002E-002     0.0000000000000000
   2.1999999999999999E-002     0.0000000000000000
   2.3099999999999996E-002     0.0000000000000000
   2.4199999999999999E-002     0.0000000000000000
   2.5299999999999996E-002     0.0000000000000000
   2.6400000000000000E-002    -4.7294417267701589E-034
   2.7499999999999997E-002     8.5323128884741118E-034
   2.8600000000000000E-002     1.2141684823063254E-033
   2.9699999999999997E-002    -5.4501786392325745E-034
   3.0800000000000001E-002    -1.6434562641617401E-033
   3.1899999999999998E-002    -2.2727602872813210E-033
   3.3000000000000002E-002     1.7366527623727927E-033
   3.4099999999999998E-002     9.8654252360363288E-033
   3.5200000000000002E-002     1.1614976661186496E-032
   3.6299999999999999E-002    -4.2502992825838525E-032
   3.7400000000000003E-002    -1.0611221594208963E-031
   3.8500000000000000E-002     4.0205897601443274E-032
   3.9599999999999996E-002     4.3512964053880000E-031
   4.0700000000000000E-002     4.3987167878956517E-031
   4.1799999999999997E-002    -7.7102343672412005E-031
   4.2900000000000001E-002    -2.1185534076395328E-030
   4.3999999999999997E-002    -5.5775293241714404E-031
   4.5100000000000001E-002     3.3515969526125414E-030
   4.6199999999999998E-002     2.9203024329229601E-030
   4.7300000000000002E-002    -3.7087540310110156E-031
   4.8399999999999999E-002     1.2286561862817283E-029
   4.9500000000000002E-002     2.8735079400314150E-029
   5.0600000000000006E-002    -4.7657368187308585E-029
   5.1699999999999996E-002    -2.4550016779273673E-028
   5.2800000000000000E-002    -2.0001649140936419E-028
   5.3900000000000003E-002     6.2077647673433382E-028
   5.5000000000000007E-002     1.6336772012672670E-027
   5.6099999999999997E-002     5.2104445753192547E-028
   5.7200000000000001E-002    -3.7968233591256954E-027
   5.8300000000000005E-002    -6.6240919841600576E-027
   5.9399999999999994E-002    -3.8297908982829814E-028
   6.0499999999999998E-002     1.2804384997887165E-026
   6.1600000000000002E-002     1.7242402435607869E-026
   6.2700000000000006E-002     4.6840422769785411E-027
   6.3799999999999996E-002    -9.9624049643796061E-027
   6.4899999999999999E-002    -2.4345797523539667E-026
   6.6000000000000003E-002    -8.0397658950069436E-026
   6.7100000000000007E-002    -1.5548510071664363E-025
   6.8199999999999997E-002    -5.5468523439022119E-027
   6.9300000000000000E-002     5.8749040340131375E-025
   7.0400000000000004E-002     1.0830539580487046E-024
   7.1500000000000008E-002     1.1514847326520394E-025
   7.2599999999999998E-002    -2.6397047020665961E-024
   7.3700000000000002E-002    -4.2721022646342617E-024
   7.4800000000000005E-002    -5.1622342732467656E-025
   7.5899999999999995E-002     7.7603134477504040E-024
   7.6999999999999999E-002     1.1782737291577689E-023
   7.8100000000000003E-002     3.6676703337362281E-024
   7.9200000000000007E-002    -1.2012287926387952E-023
   8.0299999999999996E-002    -2.2769965158225164E-023
   8.1400000000000000E-002    -2.4268106680548492E-023
   8.2500000000000004E-002    -1.5422918583780134E-023
   8.3600000000000008E-002     2.6078801204407627E-023
   8.4699999999999998E-002     1.1783551080487515E-022
   8.5800000000000001E-002     1.7288834633182187E-022
   8.6900000000000005E-002    -3.3044624041086909E-024
   8.8000000000000009E-002    -4.3178368542676844E-022
   8.9099999999999999E-002    -6.4400352577675541E-022
   9.0200000000000002E-002    -3.4462220892834909E-024
   9.1300000000000006E-002     1.2575554555119438E-021
   9.2399999999999996E-002     1.5922704755053144E-021
   9.3500000000000000E-002    -2.9824750757971570E-022
   9.4600000000000004E-002    -3.0665477563771308E-021
   9.5700000000000007E-002    -3.0635817403476956E-021
   9.6799999999999997E-002     1.3818424727481081E-021
   9.7900000000000001E-002     6.5399912298447078E-021
   9.9000000000000005E-002     6.2756181668416513E-021
  0.10010000000000001         -1.1679334855625385E-021
  0.10120000000000000         -1.1704295474895634E-020
  0.10230000000000000         -1.9660829464769567E-020
  0.10340000000000001         -1.7446113151382790E-020
  0.10450000000000001          9.7759040146936792E-021
  0.10560000000000000          6.9192973231115995E-020
  0.10670000000000000          1.1754372213697770E-019
  0.10780000000000001          5.2093111098681940E-020
  0.10890000000000001         -1.8402303889573399E-019
  0.11000000000000000         -4.3740767954527116E-019
  0.11110000000000000         -3.5678982986524053E-019
  0.11220000000000001          2.6668421855922667E-019
  0.11330000000000000          1.0904776816002145E-018
  0.11440000000000002          1.2872453377627974E-018
  0.11550000000000001          2.5237009070354380E-019
  0.11660000000000000         -1.6542412839172352E-018
  0.11770000000000001         -3.1292509338628585E-018
  0.11880000000000000         -2.7510527908653448E-018
  0.11989999999999999          1.2369997507181240E-019
  0.12100000000000001          4.7814650048938794E-018
  0.12210000000000000          8.6872873666870868E-018
  0.12320000000000002          7.6398459278040515E-018
  0.12430000000000001         -1.6168546847837931E-018
  0.12540000000000001         -1.6306692834374340E-017
  0.12650000000000003         -2.5053292359703930E-017
  0.12760000000000002         -1.4577713300571102E-017
  0.12870000000000001          1.5882663508767407E-017
  0.12980000000000003          4.6456924890480992E-017
  0.13090000000000002          4.8323183318743531E-017
  0.13200000000000001          9.6056257642852958E-018
  0.13310000000000002         -4.9073131731863708E-017
  0.13420000000000001         -8.6920694632443784E-017
  0.13530000000000003         -7.1929237170002233E-017
  0.13640000000000002         -1.1818205483074546E-018
  0.13750000000000001          9.6103127350721438E-017
  0.13860000000000003          1.6353164833804305E-016
  0.13970000000000002          1.3212603569912794E-016
  0.14080000000000001         -3.1910513758650122E-017
  0.14190000000000003         -2.5790130952731876E-016
  0.14300000000000002         -3.6184027249864072E-016
  0.14410000000000003         -1.7409070811895595E-016
  0.14520000000000002          2.7084037307133864E-016
  0.14630000000000001          6.6994546303773828E-016
  0.14740000000000003          6.5020371907564150E-016
  0.14850000000000002          9.1189773773829960E-017
  0.14960000000000001         -7.3495746520099237E-016
  0.15070000000000003         -1.3294706208792357E-015
  0.15180000000000002         -1.2810019133296870E-015
  0.15290000000000001         -4.2002892134594899E-016
  0.15400000000000003          1.1072247397501131E-015
  0.15510000000000002          2.7397678784425554E-015
  0.15620000000000003          3.4611945217067524E-015
  0.15730000000000002          2.2353428176936745E-015
  0.15840000000000001         -1.1387197540696330E-015
  0.15950000000000003         -5.3799068945961127E-015
  0.16060000000000002         -8.0804656179102666E-015
  0.16170000000000001         -6.9558125399956858E-015
  0.16280000000000003         -1.3859300254949448E-015
  0.16390000000000002          7.0748825024900645E-015
  0.16500000000000001          1.4966308154265064E-014
  0.16610000000000003          1.7702410921144850E-014
  0.16720000000000002          1.1603400159384148E-014
  0.16830000000000003         -3.5321458130170352E-015
  0.16940000000000002         -2.2546150195293727E-014
  0.17050000000000001         -3.5082424161905768E-014
  0.17160000000000003         -3.1460202959453579E-014
  0.17270000000000002         -8.8543445646749493E-015
  0.17380000000000001          2.4856700221341163E-014
  0.17490000000000003          5.2143168661989911E-014
  0.17600000000000002          5.5395588832198028E-014
  0.17710000000000004          2.6822189353467932E-014
  0.17820000000000003         -2.4912663688166255E-014
  0.17930000000000001         -7.0812930172414745E-014
  0.18040000000000003         -7.9044979112499747E-014
  0.18150000000000002         -3.1407290505304497E-014
  0.18260000000000001          5.7440970111909823E-014
  0.18370000000000003          1.3956700107686099E-013
  0.18480000000000002          1.5530994188200226E-013
  0.18590000000000001          5.5182217844652881E-014
  0.18700000000000003         -1.4862399234493590E-013
  0.18810000000000002         -3.7057583022158391E-013
  0.18920000000000003         -4.8596510929949099E-013
  0.19030000000000002         -3.5538092650957975E-013
  0.19140000000000001          7.7440285358321842E-014
  0.19250000000000003          7.1079296962150984E-013
  0.19360000000000002          1.3037677491431476E-012
  0.19470000000000001          1.4622486164614368E-012
  0.19580000000000003          9.1939184130446217E-013
  0.19690000000000002         -3.6919520717514087E-013
  0.19800000000000001         -2.0190203675607421E-012
  0.19910000000000003         -3.3698057365361134E-012
  0.20020000000000002         -3.6814943454865912E-012
  0.20130000000000003         -2.3729039566600107E-012
  0.20240000000000002          4.5659466875805355E-013
  0.20350000000000001          4.0098016053369268E-012
  0.20460000000000003          6.7652918857297184E-012
  0.20570000000000002          7.3676030554192806E-012
  0.20680000000000001          5.1751021003243469E-012
  0.20790000000000003          3.4838603356346365E-013
  0.20900000000000002         -5.2566982884638680E-012
  0.21010000000000004         -9.3655456653851665E-012
  0.21120000000000003         -1.0269273278962210E-011
  0.21230000000000002         -6.7444890818058045E-012
  0.21340000000000003         -9.4998856871308934E-013
  0.21450000000000002          4.7114703631556676E-012
  0.21560000000000001          5.8605962964530800E-012
  0.21670000000000003          1.5664893427552729E-012
  0.21780000000000002         -6.2554128543723664E-012
  0.21890000000000001         -1.1631543818391155E-011
  0.22000000000000003         -9.8094475250998237E-012
  0.22110000000000002          6.8576390226116057E-012
  0.22220000000000004          3.3643712815667470E-011
  0.22330000000000003          6.3213781431592508E-011
  0.22440000000000002          7.8796802416292167E-011
  0.22550000000000003          6.2004630596579347E-011
  0.22660000000000002          4.5529409235800511E-012
  0.22770000000000001         -8.4929022148294564E-011
  0.22880000000000003         -1.8611542862423391E-010
  0.22990000000000002         -2.5289376148762699E-010
  0.23100000000000004         -2.4229307449274984E-010
  0.23210000000000003         -1.4181802954205125E-010
  0.23320000000000002          4.3440969571539867E-011
  0.23430000000000004          2.8698171616881041E-010
  0.23540000000000003          4.9275011848592953E-010
  0.23650000000000002          5.5568616375012425E-010
  0.23760000000000003          4.4910938856723703E-010
  0.23870000000000002          2.0904047937087000E-010
  0.23980000000000001         -1.3804665743855082E-010
  0.24090000000000000         -4.5914949620140533E-010
  0.24200000000000005         -6.2319005511568548E-010
  0.24310000000000004         -6.0882388019933842E-010
  0.24420000000000003         -3.8459763151976745E-010
  0.24530000000000002         -7.5273183519630749E-011
  0.24640000000000001          1.0988684268076199E-010
  0.24750000000000005         -8.1756774961139200E-011
  0.24860000000000004         -4.5557679850816157E-010
  0.24970000000000003         -7.9805007047184517E-010
  0.25080000000000002         -7.0738753743526672E-010
  0.25190000000000001         -8.8956003674312001E-010
  0.25300000000000000         -2.1921969795002383E-010
  0.25410000000000005          1.1579662784200195E-009
  0.25520000000000004          2.9284026314968514E-009
  0.25630000000000003          4.3056602727631343E-009
  0.25740000000000002          5.1244097853953008E-009
  0.25850000000000001          2.9876301432807395E-009
  0.25960000000000005         -1.7987326905721801E-010
  0.26070000000000004         -3.8043452832425828E-009
  0.26180000000000003         -5.6657079028354929E-009
  0.26290000000000002         -6.8043899403846808E-009
  0.26400000000000001         -5.2623247981387067E-009
  0.26510000000000000         -3.1696612001752555E-009
  0.26620000000000005          2.2619033313020509E-009
  0.26730000000000004          6.2224754238116020E-009
  0.26840000000000003          8.4020408408491676E-009
  0.26950000000000002          9.3313978766218497E-009
  0.27060000000000001         -1.2802020554758542E-010
  0.27170000000000005         -7.1177668203858957E-009
  0.27280000000000004         -1.4307365958643459E-008
  0.27390000000000003         -1.6490689702663985E-008
  0.27500000000000002         -1.3890897321289231E-008
  0.27610000000000001          2.0571146175374366E-010
  0.27720000000000000          1.9810173057521752E-008
  0.27830000000000005          2.9662230005556012E-008
  0.27940000000000004          3.0138266993162688E-008
  0.28050000000000003          2.4993900282765935E-008
  0.28160000000000002          6.5800334070331701E-009
  0.28270000000000001         -2.1132914085342236E-008
  0.28380000000000005         -4.6616676740995899E-008
  0.28490000000000004         -5.7659701013790254E-008
  0.28600000000000003         -4.5842746487778641E-008
  0.28710000000000002         -1.1654272213945660E-008
  0.28820000000000001          2.9265118328680728E-008
  0.28930000000000000          6.3737417121956241E-008
  0.29040000000000005          8.0744911201691139E-008
  0.29150000000000004          7.0661535289673338E-008
  0.29260000000000003          2.8679444596946269E-008
  0.29370000000000002         -3.6303372752399810E-008
  0.29480000000000001         -1.0075336120962675E-007
  0.29590000000000005         -1.3270177134927508E-007
  0.29700000000000004         -1.1289009904658087E-007
  0.29810000000000003         -4.3321058740275475E-008
  0.29920000000000002          5.7189929236756143E-008
  0.30030000000000001          1.5601597169734305E-007
  0.30140000000000006          2.1489259438567387E-007
  0.30250000000000005          1.9565085551676020E-007
  0.30360000000000004          8.8337515080638696E-008
  0.30470000000000003         -7.4985393894166918E-008
  0.30580000000000002         -2.3828255280022859E-007
  0.30690000000000001         -3.3872328231154825E-007
  0.30800000000000005         -3.2906609703786671E-007
  0.30910000000000004         -1.9211501012250665E-007
  0.31020000000000003          4.5568334883228090E-008
  0.31130000000000002          3.1370302622235613E-007
  0.31240000000000001          5.1367567266424885E-007
  0.31350000000000006          5.4943393479334190E-007
  0.31460000000000005          3.7770885796817311E-007
  0.31570000000000004          3.1668676570006937E-008
