  -1.3200000000000002E-002     0.0000000000000000
  -1.2100000000000001E-002     0.0000000000000000
  -1.1000000000000001E-002     0.0000000000000000
  -9.9000000000000025E-003     0.0000000000000000
  -8.8000000000000023E-003    -5.9370840492165011E-013
  -7.7000000000000011E-003    -4.5171665886967194E-012
  -6.6000000000000017E-003    -3.0350440910487109E-011
  -5.5000000000000014E-003    -1.7642301508580260E-010
  -4.4000000000000011E-003    -7.8721967833317308E-010
  -3.3000000000000008E-003    -2.5672686199129657E-009
  -2.2000000000000006E-003    -5.4232072166371381E-009
  -1.1000000000000003E-003    -3.2400206961824551E-009
  -1.7347234759768071E-018     2.3813514715698147E-008
   1.0999999999999985E-003     9.6884122058327193E-008
   2.1999999999999988E-003     1.6749230269397231E-007
   3.2999999999999991E-003     2.4704641887751677E-008
   4.3999999999999994E-003    -6.1392239558699657E-007
   5.4999999999999997E-003    -1.6761119923103251E-006
   6.6000000000000000E-003    -2.2780538984079612E-006
   7.7000000000000002E-003    -5.3595294957631268E-007
   8.8000000000000005E-003     6.7175565163779538E-006
   9.9000000000000008E-003     2.2280604753177613E-005
   1.1000000000000001E-002     3.7256271752994508E-005
   1.2100000000000001E-002     1.1970631021540612E-005
   1.3199999999999998E-002    -1.0882186325034127E-004
   1.4299999999999998E-002    -2.9263307806104422E-004
   1.5399999999999999E-002    -2.9799120966345072E-004
   1.6500000000000001E-002     2.1030902280472219E-004
   1.7599999999999998E-002     1.1759155895560980E-003
   1.8700000000000001E-002     1.7411302542313933E-003
   1.9799999999999998E-002     7.0463231531903148E-004
   2.0900000000000002E-002    -2.1572951227426529E-003
   2.1999999999999999E-002    -5.2562267519533634E-003
   2.3099999999999996E-002    -6.0321758501231670E-003
   2.4199999999999999E-002    -2.6105588767677546E-003
   2.5299999999999996E-002     5.4527558386325836E-003
   2.6400000000000000E-002     1.6693867743015289E-002
   2.7499999999999997E-002     2.5427320972084999E-002
   2.8600000000000000E-002     2.0166110247373581E-002
   2.9699999999999997E-002    -9.3560423702001572E-003
   3.0800000000000001E-002    -5.6027639657258987E-002
   3.1899999999999998E-002    -8.7529771029949188E-002
   3.3000000000000002E-002    -6.6591531038284302E-002
   3.4099999999999998E-002     1.1226663365960121E-002
   3.5200000000000002E-002    0.10436276346445084
   3.6299999999999999E-002    0.15999087691307068
   3.7400000000000003E-002    0.15910904109477997
   3.8500000000000000E-002    0.11374378204345703
   3.9599999999999996E-002     2.3716414347290993E-002
   4.0700000000000000E-002   -0.13033010065555573
   4.1799999999999997E-002   -0.32560312747955322
   4.2900000000000001E-002   -0.45567646622657776
   4.3999999999999997E-002   -0.40761438012123108
   4.5100000000000001E-002   -0.19347417354583740
   4.6199999999999998E-002     5.1428146660327911E-002
   4.7300000000000002E-002    0.24769268929958344
   4.8399999999999999E-002    0.50111395120620728
   4.9500000000000002E-002    0.95343834161758423
   5.0600000000000006E-002     1.4852730035781860
   5.1699999999999996E-002     1.6683837175369263
   5.2800000000000000E-002     1.1098905801773071
   5.3900000000000003E-002   -0.18037866055965424
   5.5000000000000007E-002    -1.8397251367568970
   5.6099999999999997E-002    -3.5350520610809326
   5.7200000000000001E-002    -5.1627354621887207
   5.8300000000000005E-002    -6.6291861534118652
   5.9399999999999994E-002    -7.5870451927185059
   6.0499999999999998E-002    -7.5676794052124023
   6.1600000000000002E-002    -6.3679332733154297
   6.2700000000000006E-002    -4.1777272224426270
   6.3799999999999996E-002    -1.3260517120361328
   6.4899999999999999E-002     1.9272767305374146
   6.6000000000000003E-002     5.2679162025451660
   6.7100000000000007E-002     8.1766748428344727
   6.8199999999999997E-002     10.124124526977539
   6.9300000000000000E-002     10.887330055236816
   7.0400000000000004E-002     10.508363723754883
   7.1500000000000008E-002     9.0014390945434570
   7.2599999999999998E-002     6.4086852073669434
   7.3700000000000002E-002     3.2397572994232178
   7.4800000000000005E-002    0.47194272279739380
   7.5899999999999995E-002    -1.3099393844604492
   7.6999999999999999E-002    -2.6480093002319336
   7.8100000000000003E-002    -4.5510487556457520
   7.9200000000000007E-002    -6.9173398017883301
   8.0299999999999996E-002    -8.0940589904785156
   8.1400000000000000E-002    -6.5315418243408203
   8.2500000000000004E-002    -2.7537746429443359
   8.3600000000000008E-002    0.84685808420181274
   8.4699999999999998E-002     2.3284897804260254
   8.5800000000000001E-002     1.9506275653839111
   8.6900000000000005E-002     1.4378842115402222
   8.8000000000000009E-002     1.8966437578201294
   8.9099999999999999E-002     2.8474972248077393
   9.0200000000000002E-002     3.0478177070617676
   9.1300000000000006E-002     1.7252800464630127
   9.2399999999999996E-002   -0.91268336772918701
   9.3500000000000000E-002    -3.7044126987457275
   9.4600000000000004E-002    -4.8725581169128418
   9.5700000000000007E-002    -3.1418025493621826
   9.6799999999999997E-002    0.68880772590637207
   9.7900000000000001E-002     3.6523811817169189
   9.9000000000000005E-002     3.1499345302581787
  0.10010000000000001        -0.13877913355827332
  0.10120000000000000         -2.6875255107879639
  0.10230000000000000         -2.0356342792510986
  0.10340000000000001         0.34705767035484314
  0.10450000000000001         0.96837145090103149
  0.10560000000000000         -1.2285217046737671
  0.10670000000000000         -3.4814870357513428
  0.10780000000000001         -2.6183705329895020
  0.10890000000000001          1.1410900354385376
  0.11000000000000000          4.6085186004638672
  0.11110000000000000          5.2626638412475586
  0.11220000000000001          3.4234859943389893
  0.11330000000000000         0.99765187501907349
  0.11440000000000002        -0.71546542644500732
  0.11550000000000001         -1.5654029846191406
  0.11660000000000000         -1.9612838029861450
  0.11770000000000001         -2.6145632266998291
  0.11880000000000000         -4.1716198921203613
  0.11989999999999999         -5.9584341049194336
  0.12100000000000001         -5.4864516258239746
  0.12210000000000000        -0.83101552724838257
  0.12320000000000002          6.0062565803527832
  0.12430000000000001          9.6411781311035156
  0.12540000000000001          6.7218246459960938
  0.12650000000000003         0.25233882665634155
  0.12760000000000002         -3.1479136943817139
  0.12870000000000001        -0.59638607501983643
  0.12980000000000003          3.7883169651031494
  0.13090000000000002          3.7389252185821533
  0.13200000000000001         -2.0459151268005371
  0.13310000000000002         -8.7313137054443359
  0.13420000000000001         -10.649571418762207
  0.13530000000000003         -6.4334936141967773
  0.13640000000000002         0.83784925937652588
  0.13750000000000001          6.7800893783569336
  0.13860000000000003          8.3178043365478516
  0.13970000000000002          4.9361729621887207
  0.14080000000000001        -0.69608962535858154
  0.14190000000000003         -3.8012006282806396
  0.14300000000000002         -1.3290399312973022
  0.14410000000000003          4.3932175636291504
  0.14520000000000002          7.1003918647766113
  0.14630000000000001          2.9213943481445312
  0.14740000000000003         -5.1793537139892578
  0.14850000000000002         -10.259652137756348
  0.14960000000000001         -8.3912973403930664
  0.15070000000000003         -1.8750603199005127
  0.15180000000000002          4.0775318145751953
  0.15290000000000001          6.2291846275329590
  0.15400000000000003          4.5431170463562012
  0.15510000000000002         0.52943152189254761
  0.15620000000000003         -3.6391577720642090
  0.15730000000000002         -5.0246791839599609
  0.15840000000000001         -1.4930981397628784
  0.15950000000000003          5.3091225624084473
  0.16060000000000002          9.7779998779296875
  0.16170000000000001          7.0110325813293457
  0.16280000000000003         -1.9534897804260254
  0.16390000000000002         -10.301768302917480
  0.16500000000000001         -11.329811096191406
  0.16610000000000003         -4.2681789398193359
  0.16720000000000002          5.2309808731079102
  0.16830000000000003          9.7462644577026367
  0.16940000000000002          5.7262835502624512
  0.17050000000000001         -3.7944929599761963
  0.17160000000000003         -11.058794975280762
  0.17270000000000002         -9.2239475250244141
  0.17380000000000001          1.7334136962890625
  0.17490000000000003          13.822525024414062
  0.17600000000000002          16.806089401245117
  0.17710000000000004          6.9615135192871094
  0.17820000000000003         -8.8916158676147461
  0.17930000000000001         -18.341911315917969
  0.18040000000000003         -13.580635070800781
  0.18150000000000002          1.7523962259292603
  0.18260000000000001          15.048896789550781
  0.18370000000000003          14.933365821838379
  0.18480000000000002          1.0985445976257324
  0.18590000000000001         -14.723709106445312
  0.18700000000000003         -18.402381896972656
  0.18810000000000002         -5.9346551895141602
  0.18920000000000003          12.545301437377930
  0.19030000000000002          21.519760131835938
  0.19140000000000001          13.656764984130859
  0.19250000000000003         -4.3666882514953613
  0.19360000000000002         -18.292564392089844
  0.19470000000000001         -17.912628173828125
  0.19580000000000003         -4.0052857398986816
  0.19690000000000002          13.016032218933105
  0.19800000000000001          20.187128067016602
  0.19910000000000003          10.898550033569336
  0.20020000000000002         -8.9039049148559570
  0.20130000000000003         -23.113710403442383
  0.20240000000000002         -18.189289093017578
  0.20350000000000001          3.1953713893890381
  0.20460000000000003          22.433883666992188
  0.20570000000000002          22.013002395629883
  0.20680000000000001          2.7983684539794922
  0.20790000000000003         -17.185401916503906
  0.20900000000000002         -20.962188720703125
  0.21010000000000004         -7.6096544265747070
  0.21120000000000003          10.188662528991699
  0.21230000000000002          19.237316131591797
  0.21340000000000003          14.454448699951172
  0.21450000000000002        -0.88194257020950317
  0.21560000000000001         -17.241664886474609
  0.21670000000000003         -22.117252349853516
  0.21780000000000002         -8.8009195327758789
  0.21890000000000001          13.881822586059570
  0.22000000000000003          25.302169799804688
  0.22110000000000002          13.043906211853027
  0.22220000000000004         -11.569059371948242
  0.22330000000000003         -23.752515792846680
  0.22440000000000002         -12.226229667663574
  0.22550000000000003          9.1363668441772461
  0.22660000000000002          18.772525787353516
  0.22770000000000001          11.050544738769531
  0.22880000000000003         -2.3757643699645996
  0.22990000000000002         -10.046769142150879
  0.23100000000000004         -10.841589927673340
  0.23210000000000003         -7.2543473243713379
  0.23320000000000002          1.1136909723281860
  0.23430000000000004          11.751545906066895
  0.23540000000000003          14.511271476745605
  0.23650000000000002          2.5712411403656006
  0.23760000000000003         -14.050417900085449
  0.23870000000000002         -16.422557830810547
  0.23980000000000001        -0.71866422891616821
  0.24090000000000000          14.681916236877441
  0.24200000000000005          12.031572341918945
  0.24310000000000004         -2.9435441493988037
  0.24420000000000003         -10.165760993957520
  0.24530000000000002         -3.1157388687133789
  0.24640000000000001          4.5083107948303223
  0.24750000000000005          1.4269833564758301
  0.24860000000000004         -4.6477699279785156
  0.24970000000000003         -1.2234445810317993
  0.25080000000000002          7.4534802436828613
  0.25190000000000001          6.3635878562927246
  0.25300000000000000         -5.5793943405151367
  0.25410000000000005         -11.570877075195312
  0.25520000000000004         -1.8674477338790894
  0.25630000000000003          10.234858512878418
  0.25740000000000002          7.4144024848937988
  0.25850000000000001         -5.4693632125854492
  0.25960000000000005         -8.4829568862915039
  0.26070000000000004          2.8000426292419434
  0.26180000000000003          10.126171112060547
  0.26290000000000002         0.77770918607711792
  0.26400000000000001         -11.813107490539551
  0.26510000000000000         -7.7690525054931641
  0.26620000000000005          8.3459682464599609
  0.26730000000000004          13.215873718261719
  0.26840000000000003        -0.38625785708427429
  0.26950000000000002         -12.443396568298340
  0.27060000000000001         -5.8117551803588867
  0.27170000000000005          8.0990676879882812
  0.27280000000000004          7.5350689888000488
  0.27390000000000003         -5.5868372917175293
  0.27500000000000002         -8.8839416503906250
  0.27610000000000001          4.5106444358825684
  0.27720000000000000          13.530090332031250
  0.27830000000000005          1.3717385530471802
  0.27940000000000004         -16.498552322387695
  0.28050000000000003         -13.306769371032715
  0.28160000000000002          8.7565498352050781
  0.28270000000000001          19.987619400024414
  0.28380000000000005          5.6669082641601562
  0.28490000000000004         -13.289751052856445
  0.28600000000000003         -11.869439125061035
  0.28710000000000002          3.4219422340393066
  0.28820000000000001          7.8071761131286621
  0.28930000000000000         -2.3587102890014648
  0.29040000000000005         -6.0046963691711426
  0.29150000000000004          5.9520974159240723
  0.29260000000000003          13.404593467712402
  0.29370000000000002         -1.1035640239715576
  0.29480000000000001         -20.724197387695312
  0.29590000000000005         -15.438298225402832
  0.29700000000000004          12.279724121093750
  0.29810000000000003          26.851701736450195
  0.29920000000000002          8.5978927612304688
  0.30030000000000001         -18.297718048095703
  0.30140000000000006         -20.008550643920898
  0.30250000000000005         0.80570650100708008
  0.30360000000000004          13.319855690002441
  0.30470000000000003          5.1935119628906250
  0.30580000000000002         -3.7585301399230957
  0.30690000000000001          2.1033196449279785
  0.30800000000000005          8.4479484558105469
  0.30910000000000004         -3.0015003681182861
  0.31020000000000003         -19.639991760253906
  0.31130000000000002         -13.303380966186523
  0.31240000000000001          14.447255134582520
  0.31350000000000006          28.239126205444336
  0.31460000000000005          7.4934964179992676
  0.31570000000000004         -22.379417419433594
