  -1.3200000000000002E-002     0.0000000000000000
  -1.2100000000000001E-002     0.0000000000000000
  -1.1000000000000001E-002     0.0000000000000000
  -9.9000000000000025E-003     0.0000000000000000
  -8.8000000000000023E-003     0.0000000000000000
  -7.7000000000000011E-003     0.0000000000000000
  -6.6000000000000017E-003    -2.0277822644084549E-015
  -5.5000000000000014E-003    -1.0974374010995318E-014
  -4.4000000000000011E-003    -5.5191907901569470E-014
  -3.3000000000000008E-003    -2.8561847982208621E-013
  -2.2000000000000006E-003    -9.0122760599761764E-013
  -1.1000000000000003E-003    -5.8199490149055122E-013
  -1.7347234759768071E-018     7.7094034281466328E-012
   1.0999999999999985E-003     3.0972172743171100E-011
   2.1999999999999988E-003     4.7833724828305613E-012
   3.2999999999999991E-003    -3.6419298132805977E-010
   4.3999999999999994E-003    -1.3238324880759933E-009
   5.4999999999999997E-003    -9.6444874309042916E-010
   6.6000000000000000E-003     7.5157764456434961E-009
   7.7000000000000002E-003     2.6436321576284172E-008
   8.8000000000000005E-003     1.6540184333280195E-008
   9.9000000000000008E-003    -1.1843319924764728E-007
   1.1000000000000001E-002    -3.5589627600529639E-007
   1.2100000000000001E-002    -1.6233560984346695E-007
   1.3199999999999998E-002     1.3568474059866276E-006
   1.4299999999999998E-002     3.4842705645132810E-006
   1.5399999999999999E-002     1.2362377219687914E-006
   1.6500000000000001E-002    -1.1379683201084845E-005
   1.7599999999999998E-002    -2.6523599444772117E-005
   1.8700000000000001E-002    -9.9925609902129509E-006
   1.9799999999999998E-002     7.0739006332587451E-005
   2.0900000000000002E-002     1.6430957475677133E-004
   2.1999999999999999E-002     8.8476670498494059E-005
   2.3099999999999996E-002    -3.1684426357969642E-004
   2.4199999999999999E-002    -8.3062704652547836E-004
   2.5299999999999996E-002    -6.7924900213256478E-004
   2.6400000000000000E-002     8.7728590006008744E-004
   2.7499999999999997E-002     3.2647505868226290E-003
   2.8600000000000000E-002     3.9027240127325058E-003
   2.9699999999999997E-002    -2.3378062178380787E-004
   3.0800000000000001E-002    -8.9075639843940735E-003
   3.1899999999999998E-002    -1.5889972448348999E-002
   3.3000000000000002E-002    -1.1309696361422539E-002
   3.4099999999999998E-002     1.0280443355441093E-002
   3.5200000000000002E-002     4.1315879672765732E-002
   3.6299999999999999E-002     5.9935647994279861E-002
   3.7400000000000003E-002     3.9852380752563477E-002
   3.8500000000000000E-002    -3.2324217259883881E-002
   3.9599999999999996E-002   -0.14078959822654724
   4.0700000000000000E-002   -0.23330385982990265
   4.1799999999999997E-002   -0.22891218960285187
   4.2900000000000001E-002    -4.5847680419683456E-002
   4.3999999999999997E-002    0.34814572334289551
   4.5100000000000001E-002    0.87305414676666260
   4.6199999999999998E-002     1.2915605306625366
   4.7300000000000002E-002     1.2251944541931152
   4.8399999999999999E-002    0.26287591457366943
   4.9500000000000002E-002    -1.8498349189758301
   5.0600000000000006E-002    -5.0079870223999023
   5.1699999999999996E-002    -8.6324701309204102
   5.2800000000000000E-002    -11.728822708129883
   5.3900000000000003E-002    -13.137112617492676
   5.5000000000000007E-002    -11.902578353881836
   5.6099999999999997E-002    -7.6387944221496582
   5.7200000000000001E-002   -0.75674539804458618
   5.8300000000000005E-002     7.5191254615783691
   5.9399999999999994E-002     15.371860504150391
   6.0499999999999998E-002     20.829208374023438
   6.1600000000000002E-002     22.340133666992188
   6.2700000000000006E-002     19.329336166381836
   6.3799999999999996E-002     12.498437881469727
   6.4899999999999999E-002     3.6796770095825195
   6.6000000000000003E-002    -4.7658510208129883
   6.7100000000000007E-002    -10.766157150268555
   6.8199999999999997E-002    -13.198907852172852
   6.9300000000000000E-002    -12.113517761230469
   7.0400000000000004E-002    -8.4913663864135742
   7.1500000000000008E-002    -3.7553217411041260
   7.2599999999999998E-002    0.70526903867721558
   7.3700000000000002E-002     3.8498640060424805
   7.4800000000000005E-002     5.1545939445495605
   7.5899999999999995E-002     4.6908106803894043
   7.6999999999999999E-002     3.0935857295989990
   7.8100000000000003E-002     1.3254582881927490
   7.9200000000000007E-002    0.21811228990554810
   8.0299999999999996E-002    -6.7355297505855560E-003
   8.1400000000000000E-002    0.11590073257684708
   8.2500000000000004E-002   -0.30940613150596619
   8.3600000000000008E-002    -1.8023421764373779
   8.4699999999999998E-002    -3.9816744327545166
   8.5800000000000001E-002    -5.7131686210632324
   8.6900000000000005E-002    -5.8657364845275879
   8.8000000000000009E-002    -4.0886435508728027
   8.9099999999999999E-002   -0.99811100959777832
   9.0200000000000002E-002     2.3201510906219482
   9.1300000000000006E-002     5.0016312599182129
   9.2399999999999996E-002     6.6889629364013672
   9.3500000000000000E-002     7.2684679031372070
   9.4600000000000004E-002     6.4763197898864746
   9.5700000000000007E-002     3.9203860759735107
   9.6799999999999997E-002   -0.37814864516258240
   9.7900000000000001E-002    -5.4239687919616699
   9.9000000000000005E-002    -9.3456277847290039
  0.10010000000000001         -10.339088439941406
  0.10120000000000000         -7.8554091453552246
  0.10230000000000000         -3.0680665969848633
  0.10340000000000001          1.8556634187698364
  0.10450000000000001          5.1574945449829102
  0.10560000000000000          6.4346089363098145
  0.10670000000000000          6.3988528251647949
  0.10780000000000001          5.8017272949218750
  0.10890000000000001          4.6238732337951660
  0.11000000000000000          2.3093607425689697
  0.11110000000000000         -1.2433028221130371
  0.11220000000000001         -4.9932780265808105
  0.11330000000000000         -7.1689453125000000
  0.11440000000000002         -6.5423030853271484
  0.11550000000000001         -3.4926943778991699
  0.11660000000000000         0.10621117055416107
  0.11770000000000001          2.1866064071655273
  0.11880000000000000          1.9823890924453735
  0.11989999999999999         0.51600128412246704
  0.12100000000000001        -0.34101200103759766
  0.12210000000000000         0.52969014644622803
  0.12320000000000002          2.5724966526031494
  0.12430000000000001          4.0925030708312988
  0.12540000000000001          3.7484960556030273
  0.12650000000000003          1.6728556156158447
  0.12760000000000002        -0.73644697666168213
  0.12870000000000001         -2.0829064846038818
  0.12980000000000003         -2.1145770549774170
  0.13090000000000002         -1.7616764307022095
  0.13200000000000001         -2.1220059394836426
  0.13310000000000002         -3.3350586891174316
  0.13420000000000001         -4.3185529708862305
  0.13530000000000003         -3.6063797473907471
  0.13640000000000002        -0.64781516790390015
  0.13750000000000001          3.4718852043151855
  0.13860000000000003          6.5623135566711426
  0.13970000000000002          6.8385009765625000
  0.14080000000000001          4.2769403457641602
  0.14190000000000003         0.66884922981262207
  0.14300000000000002         -1.7665836811065674
  0.14410000000000003         -2.0955214500427246
  0.14520000000000002         -1.2600030899047852
  0.14630000000000001         -1.0566257238388062
  0.14740000000000003         -2.4192650318145752
  0.14850000000000002         -4.4990043640136719
  0.14960000000000001         -5.3176994323730469
  0.15070000000000003         -3.4498796463012695
  0.15180000000000002         0.63892644643783569
  0.15290000000000001          4.7116112709045410
  0.15400000000000003          6.3375148773193359
  0.15510000000000002          4.7534427642822266
  0.15620000000000003          1.4846293926239014
  0.15730000000000002        -0.89907544851303101
  0.15840000000000001        -0.93452364206314087
  0.15950000000000003         0.54410707950592041
  0.16060000000000002          1.2895442247390747
  0.16170000000000001        -0.17503304779529572
  0.16280000000000003         -3.0972898006439209
  0.16390000000000002         -5.1206521987915039
  0.16500000000000001         -4.3939876556396484
  0.16610000000000003         -1.2269275188446045
  0.16720000000000002          2.1491863727569580
  0.16830000000000003          3.4269804954528809
  0.16940000000000002          2.0673358440399170
  0.17050000000000001        -0.34730926156044006
  0.17160000000000003         -1.4736295938491821
  0.17270000000000002        -0.16123110055923462
  0.17380000000000001          2.5757672786712646
  0.17490000000000003          4.3841814994812012
  0.17600000000000002          3.5430386066436768
  0.17710000000000004         0.41255003213882446
  0.17820000000000003         -2.9017207622528076
  0.17930000000000001         -4.3387680053710938
  0.18040000000000003         -3.4840183258056641
  0.18150000000000002         -1.6110773086547852
  0.18260000000000001        -0.33556401729583740
  0.18370000000000003        -0.25963574647903442
  0.18480000000000002        -0.73311460018157959
  0.18590000000000001        -0.66035431623458862
  0.18700000000000003         0.52511888742446899
  0.18810000000000002          2.4378511905670166
  0.18920000000000003          3.9984478950500488
  0.19030000000000002          4.1239585876464844
  0.19140000000000001          2.4701757431030273
  0.19250000000000003        -0.23034547269344330
  0.19360000000000002         -2.5635018348693848
  0.19470000000000001         -3.3791501522064209
  0.19580000000000003         -2.5716774463653564
  0.19690000000000002         -1.0578641891479492
  0.19800000000000001         -1.7208617180585861E-002
  0.19910000000000003         -5.5653609335422516E-002
  0.20020000000000002        -0.87529611587524414
  0.20130000000000003         -1.5423914194107056
  0.20240000000000002         -1.1236587762832642
  0.20350000000000001         0.61222022771835327
  0.20460000000000003          2.8305881023406982
  0.20570000000000002          4.0325827598571777
  0.20680000000000001          3.1814243793487549
  0.20790000000000003         0.70555901527404785
  0.20900000000000002         -1.6650317907333374
  0.21010000000000004         -2.2992784976959229
  0.21120000000000003         -1.0810339450836182
  0.21230000000000002         0.52105212211608887
  0.21340000000000003         0.80805838108062744
  0.21450000000000002        -0.64793962240219116
  0.21560000000000001         -2.6729893684387207
  0.21670000000000003         -3.4958801269531250
  0.21780000000000002         -2.1700241565704346
  0.21890000000000001         0.66570985317230225
  0.22000000000000003          3.1903095245361328
  0.22110000000000002          3.7112855911254883
  0.22220000000000004          1.9994847774505615
  0.22330000000000003        -0.42337298393249512
  0.22440000000000002         -1.4734882116317749
  0.22550000000000003        -0.31873005628585815
  0.22660000000000002          1.8101543188095093
  0.22770000000000001          2.6787221431732178
  0.22880000000000003          1.0763156414031982
  0.22990000000000002         -2.0659091472625732
  0.23100000000000004         -4.4601960182189941
  0.23210000000000003         -4.3522663116455078
  0.23320000000000002         -1.8502758741378784
  0.23430000000000004          1.2706825733184814
  0.23540000000000003          2.9459185600280762
  0.23650000000000002          2.3019919395446777
  0.23760000000000003         0.24893410503864288
  0.23870000000000002         -1.2321655750274658
  0.23980000000000001        -0.68948364257812500
  0.24090000000000000          1.5037328004837036
  0.24200000000000005          3.3539729118347168
  0.24310000000000004          2.9680180549621582
  0.24420000000000003         0.30909413099288940
  0.24530000000000002         -2.6945886611938477
  0.24640000000000001         -3.8381729125976562
  0.24750000000000005         -2.5242190361022949
  0.24860000000000004        -0.12532760202884674
  0.24970000000000003          1.3406952619552612
  0.25080000000000002         0.89068120718002319
  0.25190000000000001        -0.77806168794631958
  0.25300000000000000         -1.9889987707138062
  0.25410000000000005         -1.4430292844772339
  0.25520000000000004         0.75631392002105713
  0.25630000000000003          3.1155426502227783
  0.25740000000000002          3.8631420135498047
  0.25850000000000001          2.3886251449584961
  0.25960000000000005        -0.20527827739715576
  0.26070000000000004         -2.0302038192749023
  0.26180000000000003         -2.0349140167236328
  0.26290000000000002        -0.79654824733734131
  0.26400000000000001         0.22038802504539490
  0.26510000000000000          8.3762943744659424E-002
  0.26620000000000005        -0.91775941848754883
  0.26730000000000004         -1.7771688699722290
  0.26840000000000003         -1.7149899005889893
  0.26950000000000002        -0.67312002182006836
  0.27060000000000001         0.80659866333007812
  0.27170000000000005          1.9651311635971069
  0.27280000000000004          2.2236170768737793
  0.27390000000000003          1.5242294073104858
  0.27500000000000002         0.41925159096717834
  0.27610000000000001        -0.30634924769401550
  0.27720000000000000        -0.27081358432769775
  0.27830000000000005         0.20420722663402557
  0.27940000000000004         0.44096636772155762
  0.28050000000000003          2.3923519998788834E-002
  0.28160000000000002        -0.91233479976654053
  0.28270000000000001         -1.8594672679901123
  0.28380000000000005         -2.2569496631622314
  0.28490000000000004         -1.7416850328445435
  0.28600000000000003        -0.37916299700737000
  0.28710000000000002          1.1943866014480591
  0.28820000000000001          2.0442984104156494
  0.28930000000000000          1.6656007766723633
  0.29040000000000005         0.53609609603881836
  0.29150000000000004        -0.21938769519329071
  0.29260000000000003         0.11755546182394028
  0.29370000000000002          1.1355558633804321
  0.29480000000000001          1.6775312423706055
  0.29590000000000005         0.94340115785598755
  0.29700000000000004        -0.78315806388854980
  0.29810000000000003         -2.3961391448974609
  0.29920000000000002         -2.8544881343841553
  0.30030000000000001         -1.9203429222106934
  0.30140000000000006        -0.27959811687469482
  0.30250000000000005         0.95601892471313477
  0.30360000000000004          1.0569007396697998
  0.30470000000000003         0.26441127061843872
  0.30580000000000002        -0.37572315335273743
  0.30690000000000001          4.7992412000894547E-002
  0.30800000000000005          1.3851219415664673
  0.30910000000000004          2.4638347625732422
  0.31020000000000003          2.1657307147979736
  0.31130000000000002         0.50087475776672363
  0.31240000000000001         -1.3867592811584473
  0.31350000000000006         -2.2435057163238525
  0.31460000000000005         -1.7239940166473389
  0.31570000000000004        -0.52277380228042603
