  -1.3200000000000002E-002     6.7181746277178434E-011
  -1.2100000000000001E-002     6.9073902153604649E-010
  -1.1000000000000001E-002     5.4536708482544327E-009
  -9.9000000000000025E-003     3.5701376077668101E-008
  -8.8000000000000023E-003     1.9177758758814889E-007
  -7.7000000000000011E-003     8.4219107066019205E-007
  -6.6000000000000017E-003     3.0129774586384883E-006
  -5.5000000000000014E-003     8.7291637100861408E-006
  -4.4000000000000011E-003     2.0265935745555907E-005
  -3.3000000000000008E-003     3.6964374885428697E-005
  -2.2000000000000006E-003     5.0795268180081621E-005
  -1.1000000000000003E-003     4.6939581807237118E-005
  -1.7347234759768071E-018     1.5402656572405249E-005
   1.0999999999999985E-003    -3.3359221561113372E-005
   2.1999999999999988E-003    -6.9155365054029971E-005
   3.2999999999999991E-003    -6.7253786255605519E-005
   4.3999999999999994E-003    -3.3468928450020030E-005
   5.4999999999999997E-003     2.4220069008151768E-006
   6.6000000000000000E-003     1.8101181922247633E-005
   7.7000000000000002E-003     1.5504136172239669E-005
   8.8000000000000005E-003     6.4763198679429479E-006
   9.9000000000000008E-003    -4.8124588829523418E-006
   1.1000000000000001E-002    -1.6873520507942885E-005
   1.2100000000000001E-002    -1.9439912648522295E-005
   1.3199999999999998E-002    -3.1548909191769781E-006
   1.4299999999999998E-002     2.0619643692043610E-005
   1.5399999999999999E-002     2.5525658202241175E-005
   1.6500000000000001E-002     2.4751589080551639E-006
   1.7599999999999998E-002    -2.4684919480932876E-005
   1.8700000000000001E-002    -2.5994713723775931E-005
   1.9799999999999998E-002    -1.6918944538701908E-006
   2.0900000000000002E-002     1.9943820007028989E-005
   2.1999999999999999E-002     1.8670647477847524E-005
   2.3099999999999996E-002     3.0382457225641701E-006
   2.4199999999999999E-002    -7.6584292401093990E-006
   2.5299999999999996E-002    -8.7629705376457423E-006
   2.6400000000000000E-002    -7.8084049164317548E-006
   2.7499999999999997E-002    -5.9221915762464050E-006
   2.8600000000000000E-002     2.9908637770859059E-006
   2.9699999999999997E-002     1.5339477613451891E-005
   3.0800000000000001E-002     1.5530096789007075E-005
   3.1899999999999998E-002    -2.2194913071871269E-006
   3.3000000000000002E-002    -2.0296889488236047E-005
   3.4099999999999998E-002    -1.7223464965354651E-005
   3.5200000000000002E-002     3.9182582440844271E-006
   3.6299999999999999E-002     1.8564984202384949E-005
   3.7400000000000003E-002     1.2035308827762492E-005
   3.8500000000000000E-002    -3.9644746721023694E-006
   3.9599999999999996E-002    -1.0358925464970525E-005
   4.0700000000000000E-002    -5.3848330026085023E-006
   4.1799999999999997E-002    -8.9855274154615472E-007
   4.2900000000000001E-002    -1.1100584060841356E-006
   4.3999999999999997E-002     1.4408971082957578E-006
   4.5100000000000001E-002     8.8111464719986543E-006
   4.6199999999999998E-002     1.0212674169451930E-005
   4.7300000000000002E-002    -1.3806613878841745E-006
   4.8399999999999999E-002    -1.4552438187820371E-005
   4.9500000000000002E-002    -1.2305091331654694E-005
   5.0600000000000006E-002     3.9860110518930014E-006
   5.1699999999999996E-002     1.4905977877788246E-005
   5.2800000000000000E-002     8.4550238170777448E-006
   5.3900000000000003E-002    -5.2066434363950975E-006
   5.5000000000000007E-002    -9.4970964710228145E-006
   5.6099999999999997E-002    -3.3232040550501551E-006
   5.7200000000000001E-002     1.5998825801943894E-006
   5.8300000000000005E-002     3.6903318800796114E-007
   5.9399999999999994E-002     1.7089040227347141E-007
   6.0499999999999998E-002     5.1703445933526382E-006
   6.1600000000000002E-002     7.4625781962822657E-006
   6.2700000000000006E-002    -2.8178916977594781E-007
   6.3799999999999996E-002    -1.0640508662618231E-005
   6.4899999999999999E-002    -9.7027677838923410E-006
   6.6000000000000003E-002     2.8594856757990783E-006
   6.7100000000000007E-002     1.1921586519747507E-005
   6.8199999999999997E-002     6.9932043516018894E-006
   6.9300000000000000E-002    -4.3510012801561970E-006
   7.0400000000000004E-002    -8.1742346083046868E-006
   7.1500000000000008E-002    -2.8241677227924811E-006
   7.2599999999999998E-002     1.9136984974466031E-006
   7.3700000000000002E-002     1.0287543545928202E-006
   7.4800000000000005E-002     5.7850545687188060E-008
   7.5899999999999995E-002     3.3043352232198231E-006
   7.6999999999999999E-002     5.2664454415207729E-006
   7.8100000000000003E-002    -2.6624081783666043E-007
   7.9200000000000007E-002    -8.2010783444275148E-006
   8.0299999999999996E-002    -7.5233924690110143E-006
   8.1400000000000000E-002     2.5957340312743327E-006
   8.2500000000000004E-002     1.0170624591410160E-005
   8.3600000000000008E-002     6.1256073422555346E-006
   8.4699999999999998E-002    -3.8545299503311981E-006
   8.5800000000000001E-002    -7.7771992437192239E-006
   8.6900000000000005E-002    -3.1251638574758545E-006
   8.8000000000000009E-002     2.1323783130355878E-006
   8.9099999999999999E-002     2.3683196559431963E-006
   9.0200000000000002E-002     7.9254027696151752E-007
   9.1300000000000006E-002     1.6204121493501589E-006
   9.2399999999999996E-002     2.4083522021101089E-006
   9.3500000000000000E-002    -9.4971181852088193E-007
   9.4600000000000004E-002    -5.5539112508995458E-006
   9.5700000000000007E-002    -4.3476470636960585E-006
   9.6799999999999997E-002     2.9101870495651383E-006
   9.7900000000000001E-002     7.6713695307262242E-006
   9.9000000000000005E-002     3.7781012451887364E-006
  0.10010000000000001         -4.0074901335174218E-006
  0.10120000000000000         -6.4328446569561493E-006
  0.10230000000000000         -1.8293784478373709E-006
  0.10340000000000001          2.9696711862925440E-006
  0.10450000000000001          2.8143358576926403E-006
  0.10560000000000000          1.7640972771459928E-007
  0.10670000000000000         -4.4784960095967108E-007
  0.10780000000000001          4.6786217922090145E-007
  0.10890000000000001         -3.5552801591620664E-007
  0.11000000000000000         -2.4664495867909864E-006
  0.11110000000000000         -1.9720353066077223E-006
  0.11220000000000001          1.8018748733084067E-006
  0.11330000000000000          4.2352094169473276E-006
  0.11440000000000002          1.7695626866043312E-006
  0.11550000000000001         -2.7177479751117062E-006
  0.11660000000000000         -3.6993403682572534E-006
  0.11770000000000001         -4.7215485210472252E-007
  0.11880000000000000          2.3870043150964193E-006
  0.11989999999999999          1.6828241768962471E-006
  0.12100000000000001         -5.6396413583570393E-007
  0.12210000000000000         -9.8756709121516906E-007
  0.12320000000000002          1.7675544938811072E-007
  0.12430000000000001          3.1989088711270597E-007
  0.12540000000000001         -9.1977977945134626E-007
  0.12650000000000003         -1.1726962156899390E-006
  0.12760000000000002          5.7427718047620147E-007
  0.12870000000000001          2.0622487681976054E-006
  0.12980000000000003          1.0775999044199125E-006
  0.13090000000000002         -1.1664091061902582E-006
  0.13200000000000001         -1.7357375554638566E-006
  0.13310000000000002         -1.2070053401203040E-007
  0.13420000000000001          1.2863234815085889E-006
  0.13530000000000003          7.5942568855680292E-007
  0.13640000000000002         -5.7599459069024306E-007
  0.13750000000000001         -7.9895630733517464E-007
  0.13860000000000003          2.7567340410428187E-008
  0.13970000000000002          3.9341949786830810E-007
  0.14080000000000001         -1.4067185816202255E-007
  0.14190000000000003         -4.6843820200592745E-007
  0.14300000000000002          7.8715345352975419E-008
  0.14410000000000003          6.4946328848236590E-007
  0.14520000000000002          3.0831054687041615E-007
  0.14630000000000001         -4.3700745777641714E-007
  0.14740000000000003         -4.2517919496276591E-007
  0.14850000000000002          3.5347585480849375E-007
  0.14960000000000001          7.2814680152077926E-007
  0.15070000000000003          8.0370575972210645E-008
  0.15180000000000002         -7.7118949093346600E-007
  0.15290000000000001         -7.3787526844171225E-007
  0.15400000000000003          1.0370207803589437E-007
  0.15510000000000002          7.4246992198823136E-007
  0.15620000000000003          5.5964142120501492E-007
  0.15730000000000002         -1.0929948501825493E-007
  0.15840000000000001         -6.1322111832851078E-007
  0.15950000000000003         -6.6186692038172623E-007
  0.16060000000000002         -2.9777626764371234E-007
  0.16170000000000001          3.3189621717610862E-007
  0.16280000000000003          8.9829370608640602E-007
  0.16390000000000002          8.9268371539219515E-007
  0.16500000000000001          1.1182819292798740E-007
  0.16610000000000003         -8.9573273953647004E-007
  0.16720000000000002         -1.1962945336563280E-006
  0.16830000000000003         -4.2075919282069663E-007
  0.16940000000000002          7.8089044563967036E-007
  0.17050000000000001          1.3319312301973696E-006
  0.17160000000000003          7.3191750971091096E-007
  0.17270000000000002         -5.2807604333793279E-007
  0.17380000000000001         -1.4264419405662920E-006
  0.17490000000000003         -1.2409670944180107E-006
  0.17600000000000002         -8.6241499275274691E-008
  0.17710000000000004          1.1753364788091858E-006
  0.17820000000000003          1.5691472299295128E-006
  0.17930000000000001          7.6163559015185456E-007
  0.18040000000000003         -6.4016359146989998E-007
  0.18150000000000002         -1.5326795619330369E-006
  0.18260000000000001         -1.1918759810214397E-006
  0.18370000000000003          1.2739896249058802E-007
  0.18480000000000002          1.3731460057897493E-006
  0.18590000000000001          1.5310715753003024E-006
  0.18700000000000003          4.5270823534337978E-007
  0.18810000000000002         -1.0057327699541929E-006
  0.18920000000000003         -1.6820797554828459E-006
  0.19030000000000002         -1.0700472330427147E-006
  0.19140000000000001          2.9967191039759200E-007
  0.19250000000000003          1.3683333008884802E-006
  0.19360000000000002          1.4106462913332507E-006
  0.19470000000000001          4.7739706587890396E-007
  0.19580000000000003         -7.7854758728790330E-007
  0.19690000000000002         -1.5320808870455949E-006
  0.19800000000000001         -1.2041111858707154E-006
  0.19910000000000003          1.2894059864265728E-007
  0.20020000000000002          1.5536267028437578E-006
  0.20130000000000003          1.8468114149072790E-006
  0.20240000000000002          5.9341829228287679E-007
  0.20350000000000001         -1.2154106343587046E-006
  0.20460000000000003         -2.0065008357050829E-006
  0.20570000000000002         -1.1577200211831951E-006
  0.20680000000000001          4.6739251047256403E-007
  0.20790000000000003          1.5270078392859432E-006
  0.20900000000000002          1.4311975746750250E-006
  0.21010000000000004          4.6981747914287553E-007
  0.21120000000000003         -7.8960925975479768E-007
  0.21230000000000002         -1.7205977655976312E-006
  0.21340000000000003         -1.5601767699990887E-006
  0.21450000000000002          2.4585514069030978E-008
  0.21560000000000001          2.0324805518612266E-006
  0.21670000000000003          2.5309500415460207E-006
  0.21780000000000002          6.7723595975621720E-007
  0.21890000000000001         -1.9474568944133352E-006
  0.22000000000000003         -2.7779369702329859E-006
  0.22110000000000002         -1.0787448445626069E-006
  0.22220000000000004          1.3179012512409827E-006
  0.22330000000000003          2.2202821128303185E-006
  0.22440000000000002          1.3114868124830537E-006
  0.22550000000000003         -1.9269488404916046E-007
  0.22660000000000002         -1.3101717968311277E-006
  0.22770000000000001         -1.7911286249727709E-006
  0.22880000000000003         -1.3164814163246774E-006
  0.22990000000000002          4.0968373582472850E-007
  0.23100000000000004          2.4203454813687131E-006
  0.23210000000000003          2.6056609385705087E-006
  0.23320000000000002          1.5606414649482758E-007
  0.23430000000000004         -2.7459907414595364E-006
  0.23540000000000003         -2.9856873879907653E-006
  0.23650000000000002         -2.5644126822044200E-007
  0.23760000000000003          2.4515986751794117E-006
  0.23870000000000002          2.4590433440607740E-006
  0.23980000000000001          3.7148959108890267E-007
  0.24090000000000000         -1.3003265166844358E-006
  0.24200000000000005         -1.4563789818566875E-006
  0.24310000000000004         -9.7591305348032620E-007
  0.24420000000000003         -4.9990143224931671E-007
  0.24530000000000002          4.8731868673712597E-007
  0.24640000000000001          1.8873115550377406E-006
  0.24750000000000005          2.0210688944644062E-006
  0.24860000000000004         -1.2919309710923699E-007
  0.24970000000000003         -2.6486668502911925E-006
  0.25080000000000002         -2.5032934445334831E-006
  0.25190000000000001          4.0920417632150929E-007
  0.25300000000000000          2.7607222818915034E-006
  0.25410000000000005          1.9762189822358778E-006
  0.25520000000000004         -5.7374410289412481E-007
  0.25630000000000003         -1.7515487797936657E-006
  0.25740000000000002         -8.7228846723519382E-007
  0.25850000000000001          6.0526957668116665E-008
  0.25960000000000005         -1.0637424452397681E-007
  0.26070000000000004         -1.2483353373227146E-007
  0.26180000000000003          9.9044723356200848E-007
  0.26290000000000002          1.7364521909257746E-006
  0.26400000000000001          3.0577706411349936E-007
  0.26510000000000000         -2.0903180484310724E-006
  0.26620000000000005         -2.3197467271529604E-006
  0.26730000000000004          2.4125174036271346E-007
  0.26840000000000003          2.5013214326463640E-006
  0.26950000000000002          1.7635330777920899E-006
  0.27060000000000001         -6.8159340571583016E-007
  0.27170000000000005         -1.6353253613488050E-006
  0.27280000000000004         -5.0412546670486336E-007
  0.27390000000000003          4.1080912183133478E-007
  0.27500000000000002         -1.3946578292234335E-007
  0.27610000000000001         -5.4433741070170072E-007
  0.27720000000000000          6.1501236814365257E-007
  0.27830000000000005          1.7735437722876668E-006
  0.27940000000000004          6.2176866322261048E-007
  0.28050000000000003         -1.9286601400381187E-006
  0.28160000000000002         -2.4754720016062493E-006
  0.28270000000000001          4.7992372742555744E-008
  0.28380000000000005          2.5648519113019574E-006
  0.28490000000000004          1.9779183730861405E-006
  0.28600000000000003         -6.5545378902243101E-007
  0.28710000000000002         -1.8696100596571341E-006
  0.28820000000000001         -6.7231081857244135E-007
  0.28930000000000000          6.0592083173105493E-007
  0.29040000000000005          2.6644744366421946E-007
  0.29150000000000004         -3.8158748338901205E-007
  0.29260000000000003          3.1748430728839594E-007
  0.29370000000000002          1.2953574923812994E-006
  0.29480000000000001          4.2151984303018253E-007
  0.29590000000000005         -1.6988030893116957E-006
  0.29700000000000004         -2.0685233721451368E-006
  0.29810000000000003          2.8729795076287701E-007
  0.29920000000000002          2.4963526357169030E-006
  0.30030000000000001          1.6763186749813030E-006
  0.30140000000000006         -1.0189336308030761E-006
  0.30250000000000005         -2.0688621589215472E-006
  0.30360000000000004         -4.8801422281030682E-007
  0.30470000000000003          1.1592918554015341E-006
  0.30580000000000002          7.7408407150869607E-007
  0.30690000000000001         -4.5418067884384072E-007
  0.30800000000000005         -3.8599083040935511E-007
  0.30910000000000004          6.0672368817904498E-007
  0.31020000000000003          4.8502579375053756E-007
  0.31130000000000002         -8.9216968035543687E-007
  0.31240000000000001         -1.3311465636434150E-006
  0.31350000000000006          2.0920964516335516E-007
  0.31460000000000005          1.7186470131491660E-006
  0.31570000000000004          9.8087343758379575E-007
