  -1.3200000000000002E-002     0.0000000000000000
  -1.2100000000000001E-002     0.0000000000000000
  -1.1000000000000001E-002     0.0000000000000000
  -9.9000000000000025E-003     0.0000000000000000
  -8.8000000000000023E-003     0.0000000000000000
  -7.7000000000000011E-003     0.0000000000000000
  -6.6000000000000017E-003     0.0000000000000000
  -5.5000000000000014E-003     0.0000000000000000
  -4.4000000000000011E-003     0.0000000000000000
  -3.3000000000000008E-003     0.0000000000000000
  -2.2000000000000006E-003     0.0000000000000000
  -1.1000000000000003E-003     0.0000000000000000
  -1.7347234759768071E-018     0.0000000000000000
   1.0999999999999985E-003     0.0000000000000000
   2.1999999999999988E-003     0.0000000000000000
   3.2999999999999991E-003     0.0000000000000000
   4.3999999999999994E-003     0.0000000000000000
   5.4999999999999997E-003     0.0000000000000000
   6.6000000000000000E-003     0.0000000000000000
   7.7000000000000002E-003     0.0000000000000000
   8.8000000000000005E-003     0.0000000000000000
   9.9000000000000008E-003     0.0000000000000000
   1.1000000000000001E-002     0.0000000000000000
   1.2100000000000001E-002     0.0000000000000000
   1.3199999999999998E-002     0.0000000000000000
   1.4299999999999998E-002     0.0000000000000000
   1.5399999999999999E-002     0.0000000000000000
   1.6500000000000001E-002     0.0000000000000000
   1.7599999999999998E-002     0.0000000000000000
   1.8700000000000001E-002     0.0000000000000000
   1.9799999999999998E-002     0.0000000000000000
   2.0900000000000002E-002     0.0000000000000000
   2.1999999999999999E-002     0.0000000000000000
   2.3099999999999996E-002     0.0000000000000000
   2.4199999999999999E-002     0.0000000000000000
   2.5299999999999996E-002     0.0000000000000000
   2.6400000000000000E-002     0.0000000000000000
   2.7499999999999997E-002     0.0000000000000000
   2.8600000000000000E-002     0.0000000000000000
   2.9699999999999997E-002     0.0000000000000000
   3.0800000000000001E-002     0.0000000000000000
   3.1899999999999998E-002     0.0000000000000000
   3.3000000000000002E-002     3.4389450584392627E-038
   3.4099999999999998E-002     5.0039314384594045E-038
   3.5200000000000002E-002    -4.2795988609514423E-038
   3.6299999999999999E-002    -3.7004478668917912E-037
   3.7400000000000003E-002    -7.7730909194649513E-037
   3.8500000000000000E-002    -2.6049207989618038E-037
   3.9599999999999996E-002     2.9986237412553419E-036
   4.0700000000000000E-002     8.7715253574974112E-036
   4.1799999999999997E-002     8.5547275798016884E-036
   4.2900000000000001E-002    -1.6422363501293699E-035
   4.3999999999999997E-002    -7.4749915357529658E-035
   4.5100000000000001E-002    -1.1309612524366140E-034
   4.6199999999999998E-002     2.0689310419563934E-035
   4.7300000000000002E-002     4.7514813274931152E-034
   4.8399999999999999E-002     1.0447616547600906E-033
   4.9500000000000002E-002     7.4125759999666678E-034
   5.0600000000000006E-002    -1.9843916865574438E-033
   5.1699999999999996E-002    -7.2812419650756284E-033
   5.2800000000000000E-002    -1.0174575842198775E-032
   5.3900000000000003E-002     1.2337243920356888E-033
   5.5000000000000007E-002     3.7242488097963796E-032
   5.6099999999999997E-002     8.1661510267019756E-032
   5.7200000000000001E-002     6.5134036184571377E-032
   5.8300000000000005E-002    -1.1363033691658724E-031
   5.9399999999999994E-002    -4.6091053562126037E-031
   6.0499999999999998E-002    -6.8387529481969376E-031
   6.1600000000000002E-002    -1.3152574553003103E-031
   6.2700000000000006E-002     1.7477293266217881E-030
   6.3799999999999996E-002     4.2761031350709844E-030
   6.4899999999999999E-002     4.4228616299406376E-030
   6.6000000000000003E-002    -2.4690352297778795E-030
   6.7100000000000007E-002    -1.8032364707941703E-029
   6.8199999999999997E-002    -3.2901034388893875E-029
   6.9300000000000000E-002    -2.2358743642357809E-029
   7.0400000000000004E-002     4.1304817664165426E-029
   7.1500000000000008E-002     1.5101541694618432E-028
   7.2599999999999998E-002     2.1828234803967300E-028
   7.3700000000000002E-002     7.4136506537999209E-029
   7.4800000000000005E-002    -4.1002957034331893E-028
   7.5899999999999995E-002    -1.0757560964216842E-027
   7.6999999999999999E-002    -1.2684943059782146E-027
   7.8100000000000003E-002    -9.3496112325420454E-030
   7.9200000000000007E-002     3.1467368767914614E-027
   8.0299999999999996E-002     6.7532394536268213E-027
   8.1400000000000000E-002     6.7132717850489196E-027
   8.2500000000000004E-002    -2.0718120117337747E-027
   8.3600000000000008E-002    -2.0519594103112344E-026
   8.4699999999999998E-002    -3.8565274185132931E-026
   8.5800000000000001E-002    -3.3227453032930776E-026
   8.6900000000000005E-002     1.9781415970307827E-026
   8.8000000000000009E-002     1.1815903765046349E-025
   8.9099999999999999E-002     2.0259734076468810E-025
   9.0200000000000002E-002     1.5698039888844170E-025
   9.1300000000000006E-002    -1.2515232655310269E-025
   9.2399999999999996E-002    -6.0795991408140829E-025
   9.3500000000000000E-002    -9.8929399376627442E-025
   9.4600000000000004E-002    -7.3237590060924539E-025
   9.5700000000000007E-002     6.1158162380108454E-025
   9.6799999999999997E-002     2.8250809011215184E-024
   9.7900000000000001E-002     4.5359868870529107E-024
   9.9000000000000005E-002     3.4267908674660869E-024
  0.10010000000000001         -2.3631986995948636E-024
  0.10120000000000000         -1.1885214267470425E-023
  0.10230000000000000         -1.9520355211084885E-023
  0.10340000000000001         -1.5926380657544856E-023
  0.10450000000000001          6.5074563909919714E-024
  0.10560000000000000          4.4798972200837958E-023
  0.10670000000000000          7.8386577486027994E-023
  0.10780000000000001          7.2118345531127010E-023
  0.10890000000000001         -4.9009123640863403E-024
  0.11000000000000000         -1.4803439367773281E-022
  0.11110000000000000         -2.9064670022927917E-022
  0.11220000000000001         -3.0941876249605494E-022
  0.11330000000000000         -8.2470333687514403E-023
  0.11440000000000002          4.0716163263526538E-022
  0.11550000000000001          9.7375142312697308E-022
  0.11660000000000000          1.2211561764111469E-021
  0.11770000000000001          6.9791854619933479E-022
  0.11880000000000000         -7.8953606918168512E-022
  0.11989999999999999         -2.8365493388735161E-021
  0.12100000000000001         -4.3132496975235839E-021
  0.12210000000000000         -3.6917446362250255E-021
  0.12320000000000002          1.0888209099191047E-022
  0.12430000000000001          6.6313187549365244E-021
  0.12540000000000001          1.3162769991191476E-020
  0.12650000000000003          1.5134217656305236E-020
  0.12760000000000002          8.0556171410020011E-021
  0.12870000000000001         -9.3925203410595559E-021
  0.12980000000000003         -3.2484445711291498E-020
  0.13090000000000002         -4.9795823742469044E-020
  0.13200000000000001         -4.6452408174143723E-020
  0.13310000000000002         -1.1418879389473626E-020
  0.13420000000000001          5.3432400520936254E-020
  0.13530000000000003          1.2696038500437258E-019
  0.13640000000000002          1.7027775280754619E-019
  0.13750000000000001          1.3939535237879103E-019
  0.13860000000000003          7.5758338064692053E-021
  0.13970000000000002         -2.1003178162820620E-019
  0.14080000000000001         -4.4167164050661716E-019
  0.14190000000000003         -5.6692601719638741E-019
  0.14300000000000002         -4.5447701677439744E-019
  0.14410000000000003         -2.5329692073051533E-020
  0.14520000000000002          6.7736569251290950E-019
  0.14630000000000001          1.4430716895070681E-018
  0.14740000000000003          1.9081454069161527E-018
  0.14850000000000002          1.6540981816712635E-018
  0.14960000000000001          3.8701736174279510E-019
  0.15070000000000003         -1.8450720580283718E-018
  0.15180000000000002         -4.4818101426001133E-018
  0.15290000000000001         -6.4358506318280050E-018
  0.15400000000000003         -6.3274304145794546E-018
  0.15510000000000002         -2.9931216136598536E-018
  0.15620000000000003          3.8245303599139461E-018
  0.15730000000000002          1.2837739709246420E-017
  0.15840000000000001          2.0958056804574348E-017
  0.15950000000000003          2.3755884384332882E-017
  0.16060000000000002          1.6805747441539833E-017
  0.16170000000000001         -2.2353648223523296E-018
  0.16280000000000003         -3.1386789316895848E-017
  0.16390000000000002         -6.2877790156083577E-017
  0.16500000000000001         -8.3522967548320967E-017
  0.16610000000000003         -7.7729381303109761E-017
  0.16720000000000002         -3.3169919402319258E-017
  0.16830000000000003          5.1982928133698645E-017
  0.16940000000000002          1.6259549164286983E-016
  0.17050000000000001          2.6406119781754805E-016
  0.17160000000000003          3.0684139091201454E-016
  0.17270000000000002          2.3975384039063219E-016
  0.17380000000000001          3.0897310152501269E-017
  0.17490000000000003         -3.0863143622735889E-016
  0.17600000000000002         -7.0665338281245709E-016
  0.17710000000000004         -1.0277663789132001E-015
  0.17820000000000003         -1.0960844565487062E-015
  0.17930000000000001         -7.4613549430811135E-016
  0.18040000000000003          1.0449862675633044E-016
  0.18150000000000002          1.3789989666457996E-015
  0.18260000000000001          2.7900126023242596E-015
  0.18370000000000003          3.8456075075656709E-015
  0.18480000000000002          3.9381589860638857E-015
  0.18590000000000001          2.5222172068191818E-015
  0.18700000000000003         -6.4357404513704130E-016
  0.18810000000000002         -5.2512747771601802E-015
  0.18920000000000003         -1.0285625263561481E-014
  0.19030000000000002         -1.4053574249424036E-014
  0.19140000000000001         -1.4479503072884967E-014
  0.19250000000000003         -9.6837710850876217E-015
  0.19360000000000002          1.2319148717286426E-015
  0.19470000000000001          1.7377899046524571E-014
  0.19580000000000003          3.5526587910655189E-014
  0.19690000000000002          5.0132857934426234E-014
  0.19800000000000001          5.4181221412642061E-014
  0.19910000000000003          4.0944857774465396E-014
  0.20020000000000002          6.4664955824105062E-015
  0.20130000000000003         -4.7759657963468080E-014
  0.20240000000000002         -1.1272339534235468E-013
  0.20350000000000001         -1.7142332746442751E-013
  0.20460000000000003         -2.0084907586918888E-013
  0.20570000000000002         -1.7685671178414852E-013
  0.20680000000000001         -8.1617513041001150E-014
  0.20790000000000003          8.7648977160383057E-014
  0.20900000000000002          3.1090467656966214E-013
  0.21010000000000004          5.4137645972077153E-013
  0.21120000000000003          7.0838170398990208E-013
  0.21230000000000002          7.2888635231638244E-013
  0.21340000000000003          5.2791348766415003E-013
  0.21450000000000002          6.5263542996501361E-014
  0.21560000000000001         -6.3692985347724163E-013
  0.21670000000000003         -1.4737367142608759E-012
  0.21780000000000002         -2.2530508275026007E-012
  0.21890000000000001         -2.7151128567659555E-012
  0.22000000000000003         -2.5798822713557490E-012
  0.22110000000000002         -1.6197387398345087E-012
  0.22220000000000004          2.5318636076576695E-013
  0.22330000000000003          2.9038971748052145E-012
  0.22440000000000002          5.9204403532464589E-012
  0.22550000000000003          8.6148640304761770E-012
  0.22660000000000002          1.0099907021832166E-011
  0.22770000000000001          9.4492911759114229E-012
  0.22880000000000003          5.9301417942858592E-012
  0.22990000000000002         -7.2695343668327528E-013
  0.23100000000000004         -1.0076638308487151E-011
  0.23210000000000003         -2.0797322197729784E-011
  0.23320000000000002         -3.0692368785389945E-011
  0.23430000000000004         -3.6910655087929456E-011
  0.23540000000000003         -3.6407966919060897E-011
  0.23650000000000002         -2.6619218981838166E-011
  0.23760000000000003         -6.2511324241953936E-012
  0.23870000000000002          2.3952069494459494E-011
  0.23980000000000001          6.0657021072607620E-011
  0.24090000000000000          9.7798172338237066E-011
  0.24200000000000005          1.2700339391269466E-010
  0.24310000000000004          1.3866809089879695E-010
  0.24420000000000003          1.2363758628008981E-010
  0.24530000000000002          7.5315552405808006E-011
  0.24640000000000001         -8.1236389143368726E-012
  0.24750000000000005         -1.2184453446195675E-010
  0.24860000000000004         -2.5324892183320458E-010
  0.24970000000000003         -3.8207900732167843E-010
  0.25080000000000002         -4.8199794155934228E-010
  0.25190000000000001         -5.2368620551135336E-010
  0.25300000000000000         -4.7920456491823415E-010
  0.25410000000000005         -3.2707569985745977E-010
  0.25520000000000004         -5.7297357830554674E-011
  0.25630000000000003          3.2463728927289992E-010
  0.25740000000000002          7.9561063293098755E-010
  0.25850000000000001          1.3153448330527340E-009
  0.25960000000000005          1.8297844350811943E-009
  0.26070000000000004          2.2772472796361853E-009
  0.26180000000000003          2.5966619965345217E-009
  0.26290000000000002          2.7367386135068728E-009
  0.26400000000000001          2.6646169715149881E-009
  0.26510000000000000          2.3724568976035698E-009
  0.26620000000000005          1.8806294299622550E-009
  0.26730000000000004          1.2366849766465293E-009
  0.26840000000000003          5.0989357180952766E-010
  0.26950000000000002         -2.1802760985512037E-010
  0.27060000000000001         -8.6461388049130505E-010
  0.27170000000000005         -1.3589864789054218E-009
  0.27280000000000004         -1.6526209289935423E-009
  0.27390000000000003         -1.7267022256461928E-009
  0.27500000000000002         -1.5946204356964699E-009
  0.27610000000000001         -1.2990671871548898E-009
  0.27720000000000000         -9.0414753461942610E-010
  0.27830000000000005         -4.8391463058905515E-010
  0.27940000000000004         -1.0942403927405309E-010
  0.28050000000000003          1.6334823771391171E-010
  0.28160000000000002          3.0239194481751497E-010
  0.28270000000000001          3.0370761461284701E-010
  0.28380000000000005          1.8983396798954999E-010
  0.28490000000000004          3.2807526226946715E-012
  0.28600000000000003         -2.0367744990590353E-010
  0.28710000000000002         -3.8063438512203618E-010
  0.28820000000000001         -4.8964537979756528E-010
  0.28930000000000000         -5.1254206434592220E-010
  0.29040000000000005         -4.5347101074177942E-010
  0.29150000000000004         -3.3623473449928554E-010
  0.29260000000000003         -1.9718761345988156E-010
  0.29370000000000002         -7.5434831992016171E-011
  0.29480000000000001         -2.6811766782458557E-012
  0.29590000000000005          4.8396542849660218E-012
  0.29700000000000004         -4.9578969402164219E-011
  0.29810000000000003         -1.4409592963282591E-010
  0.29920000000000002         -2.4413510102405667E-010
  0.30030000000000001         -3.1164706926212205E-010
  0.30140000000000006         -3.1558700097633618E-010
  0.30250000000000005         -2.4102242424106635E-010
  0.30360000000000004         -9.4514389370470298E-011
  0.30470000000000003          9.5789057241724151E-011
  0.30580000000000002          2.8569091536922997E-010
  0.30690000000000001          4.2505843289575296E-010
  0.30800000000000005          4.7028336780385871E-010
  0.30910000000000004          3.9616313007861947E-010
  0.31020000000000003          2.0421131452508234E-010
  0.31130000000000002         -7.4931373605924279E-011
  0.31240000000000001         -3.8604724972302051E-010
  0.31350000000000006         -6.6030342305012368E-010
  0.31460000000000005         -8.3048412591324450E-010
  0.31570000000000004         -8.4713047687756671E-010
