  -1.3200000000000002E-002     0.0000000000000000
  -1.2100000000000001E-002     0.0000000000000000
  -1.1000000000000001E-002     0.0000000000000000
  -9.9000000000000025E-003     0.0000000000000000
  -8.8000000000000023E-003     0.0000000000000000
  -7.7000000000000011E-003     0.0000000000000000
  -6.6000000000000017E-003     0.0000000000000000
  -5.5000000000000014E-003     0.0000000000000000
  -4.4000000000000011E-003     0.0000000000000000
  -3.3000000000000008E-003     0.0000000000000000
  -2.2000000000000006E-003     0.0000000000000000
  -1.1000000000000003E-003     0.0000000000000000
  -1.7347234759768071E-018     0.0000000000000000
   1.0999999999999985E-003     0.0000000000000000
   2.1999999999999988E-003     0.0000000000000000
   3.2999999999999991E-003     0.0000000000000000
   4.3999999999999994E-003     0.0000000000000000
   5.4999999999999997E-003     0.0000000000000000
   6.6000000000000000E-003     0.0000000000000000
   7.7000000000000002E-003     0.0000000000000000
   8.8000000000000005E-003     0.0000000000000000
   9.9000000000000008E-003     0.0000000000000000
   1.1000000000000001E-002     0.0000000000000000
   1.2100000000000001E-002    -4.8264368092547802E-038
   1.3199999999999998E-002    -2.2469491290049633E-037
   1.4299999999999998E-002     3.5726218693915900E-037
   1.5399999999999999E-002     3.8513163230822903E-036
   1.6500000000000001E-002     3.0668151844767191E-036
   1.7599999999999998E-002    -4.1067456349411300E-035
   1.8700000000000001E-002    -1.2260150087630918E-034
   1.9799999999999998E-002     2.1575181731223137E-034
   2.0900000000000002E-002     1.7608176201478372E-033
   2.1999999999999999E-002     1.1443537605945781E-033
   2.3099999999999996E-002    -1.5082906135986993E-032
   2.4199999999999999E-002    -3.7424342951507758E-032
   2.5299999999999996E-002     6.7100379624739883E-032
   2.6400000000000000E-002     4.2258100324490191E-031
   2.7499999999999997E-002     1.6923833145130392E-031
   2.8600000000000000E-002    -2.8795406146556542E-030
   2.9699999999999997E-002    -5.7899581745232276E-030
   3.0800000000000001E-002     1.0423468392131219E-029
   3.1899999999999998E-002     5.3787985377016496E-029
   3.3000000000000002E-002     1.8287743018567451E-029
   3.4099999999999998E-002    -2.9270771999520599E-028
   3.5200000000000002E-002    -5.5122069827256243E-028
   3.6299999999999999E-002     7.7835717219381548E-028
   3.7400000000000003E-002     4.1097773454388993E-027
   3.8500000000000000E-002     2.2018856609107943E-027
   3.9599999999999996E-002    -1.7084516239510959E-026
   4.0700000000000000E-002    -3.6243619563212561E-026
   4.1799999999999997E-002     2.5093264801651953E-026
   4.2900000000000001E-002     2.0111324688293450E-025
   4.3999999999999997E-002     1.9151777702490735E-025
   4.5100000000000001E-002    -5.6832478118993639E-025
   4.6199999999999998E-002    -1.6432001251961490E-024
   4.7300000000000002E-002    -1.7642754583536981E-025
   4.8399999999999999E-002     6.1698262901400940E-024
   4.9500000000000002E-002     9.9264797395547996E-024
   5.0600000000000006E-002    -8.0451790092347636E-024
   5.1699999999999996E-002    -4.8085104830168159E-023
   5.2800000000000000E-002    -4.3810011993842205E-023
   5.3900000000000003E-002     1.0023825806347797E-022
   5.5000000000000007E-002     2.9886074911477279E-022
   5.6099999999999997E-002     1.2006432685205039E-022
   5.7200000000000001E-002    -7.8236311474269151E-022
   5.8300000000000005E-002    -1.5613374344978473E-021
   5.9399999999999994E-002     4.9765425889943228E-023
   6.0499999999999998E-002     4.7884278009312187E-021
   6.1600000000000002E-002     7.1230937849706383E-021
   6.2700000000000006E-002    -3.0205929861987301E-021
   6.3799999999999996E-002    -2.4782071042560152E-020
   6.4899999999999999E-002    -2.9434333524775849E-020
   6.6000000000000003E-002     2.2381880479441099E-020
   6.7100000000000007E-002     1.1271757562712828E-019
   6.8199999999999997E-002     1.1460887239894249E-019
   6.9300000000000000E-002    -1.1218516858067676E-019
   7.0400000000000004E-002    -4.6074704581754939E-019
   7.1500000000000008E-002    -4.3669713139908810E-019
   7.2599999999999998E-002     4.3455731855198999E-019
   7.3700000000000002E-002     1.7105578079713767E-018
   7.4800000000000005E-002     1.6631370944173601E-018
   7.5899999999999995E-002    -1.2907071920239084E-018
   7.6999999999999999E-002    -5.7555098808444720E-018
   7.8100000000000003E-002    -6.2773367702735495E-018
   7.9200000000000007E-002     2.4289112304144778E-018
   8.0299999999999996E-002     1.7208341208753067E-017
   8.1400000000000000E-002     2.2689468249378493E-017
   8.2500000000000004E-002     1.5396017024380516E-018
   8.3600000000000008E-002    -4.3390245413669248E-017
   8.4699999999999998E-002    -7.4890001132460238E-017
   8.5800000000000001E-002    -3.9658562355201623E-017
   8.6900000000000005E-002     7.9170938735107974E-017
   8.8000000000000009E-002     2.1247082975023237E-016
   8.9099999999999999E-002     2.1622370186727115E-016
   9.0200000000000002E-002    -2.7706785194378086E-017
   9.1300000000000006E-002    -4.6451625640604732E-016
   9.2399999999999996E-002    -7.8679307577631777E-016
   9.3500000000000000E-002    -5.4561442008928544E-016
   9.4600000000000004E-002     5.1197286546274560E-016
   9.5700000000000007E-002     2.0200810408520188E-015
   9.6799999999999997E-002     2.8181491310079161E-015
   9.7900000000000001E-002     1.4083721634324474E-015
   9.9000000000000005E-002    -2.8347681291912823E-015
  0.10010000000000001         -8.2237725811573799E-015
  0.10120000000000000         -1.0324241495626805E-014
  0.10230000000000000         -3.8864522833152206E-015
  0.10340000000000001          1.2650157546370382E-014
  0.10450000000000001          3.2251297850871205E-014
  0.10560000000000000          3.8436030887992884E-014
  0.10670000000000000          1.2809829186158448E-014
  0.10780000000000001         -4.9048669314467885E-014
  0.10890000000000001         -1.2123758756903830E-013
  0.11000000000000000         -1.4543454060402666E-013
  0.11110000000000000         -5.6597328684576328E-014
  0.11220000000000001          1.6410126296023675E-013
  0.11330000000000000          4.3393245810832703E-013
  0.11440000000000002          5.5676996216572072E-013
  0.11550000000000001          2.9873073958096297E-013
  0.11660000000000000         -4.4420332212871672E-013
  0.11770000000000001         -1.4537639755202170E-012
  0.11880000000000000         -2.1093834144669810E-012
  0.11989999999999999         -1.5707457036440164E-012
  0.12100000000000001          7.2130333390180157E-013
  0.12210000000000000          4.3758573153862557E-012
  0.12320000000000002          7.6068682602903337E-012
  0.12430000000000001          7.5230412177607064E-012
  0.12540000000000001          1.4839699564658804E-012
  0.12650000000000003         -1.0702873483314779E-011
  0.12760000000000002         -2.4754875233012896E-011
  0.12870000000000001         -3.1664754152060937E-011
  0.12980000000000003         -2.0690633234510258E-011
  0.13090000000000002          1.4232055638163654E-011
  0.13200000000000001          6.6736595416561073E-011
  0.13310000000000002          1.1334051058797812E-010
  0.13420000000000001          1.1712421310594578E-010
  0.13530000000000003          4.3013415745862815E-011
  0.13640000000000002         -1.1756347284563873E-010
  0.13750000000000001         -3.2235408786718267E-010
  0.13860000000000003         -4.7002113312544225E-010
  0.13970000000000002         -4.2360745466929473E-010
  0.14080000000000001         -7.1709950477671924E-011
  0.14190000000000003          5.8576637984586455E-010
  0.14300000000000002          1.3630510053985745E-009
  0.14410000000000003          1.8759045428140553E-009
  0.14520000000000002          1.6361380028584449E-009
  0.14630000000000001          2.6417038001547155E-010
  0.14740000000000003         -2.2287354184413743E-009
  0.14850000000000002         -5.2019673013603551E-009
  0.14960000000000001         -7.3431842828597382E-009
  0.15070000000000003         -6.9539125568951476E-009
  0.15180000000000002         -2.5965865013688472E-009
  0.15290000000000001          6.0269949031521719E-009
  0.15400000000000003          1.7273714902898973E-008
  0.15510000000000002          2.7254516865582445E-008
  0.15620000000000003          3.0414344820428596E-008
  0.15730000000000002          2.1158113483465968E-008
  0.15840000000000001         -3.7084511017582145E-009
  0.15950000000000003         -4.2403549116443173E-008
  0.16060000000000002         -8.6469491122898035E-008
  0.16170000000000001         -1.2098330159915349E-007
  0.16280000000000003         -1.2731892695683200E-007
  0.16390000000000002         -8.8317996471687366E-008
  0.16500000000000001          5.2479105505653934E-009
  0.16610000000000003          1.4886538224345713E-007
  0.16720000000000002          3.2136981076291704E-007
  0.16830000000000003          4.8672950470063370E-007
  0.16940000000000002          6.0107652188889915E-007
  0.17050000000000001          6.2381701582125970E-007
  0.17160000000000003          5.2999649824414519E-007
  0.17270000000000002          3.2013437589739624E-007
  0.17380000000000001          2.3952123839876549E-008
  0.17490000000000003         -3.0407198892135057E-007
  0.17600000000000002         -5.9694025367207360E-007
  0.17710000000000004         -7.9215243431463023E-007
  0.17820000000000003         -8.4860852211932070E-007
  0.17930000000000001         -7.5813625244336436E-007
  0.18040000000000003         -5.4780599612058722E-007
  0.18150000000000002         -2.7204245611756050E-007
  0.18260000000000001          3.1190290350480154E-009
  0.18370000000000003          2.1863722565740318E-007
  0.18480000000000002          3.3797078913266887E-007
  0.18590000000000001          3.5464304914967215E-007
  0.18700000000000003          2.8986423217247648E-007
  0.18810000000000002          1.8174149829519592E-007
  0.18920000000000003          7.0509898364434775E-008
  0.19030000000000002         -1.4607344667183497E-008
  0.19140000000000001         -6.2303939785124385E-008
  0.19250000000000003         -7.8015524707097939E-008
  0.19360000000000002         -7.6205928678518831E-008
  0.19470000000000001         -7.0264043472434423E-008
  0.19580000000000003         -6.4901215068857709E-008
  0.19690000000000002         -5.4516906544677113E-008
  0.19800000000000001         -2.8057323575580995E-008
  0.19910000000000003          2.2256935849895854E-008
  0.20020000000000002          9.2899419712466624E-008
  0.20130000000000003          1.6611453190762404E-007
  0.20240000000000002          2.1430378183140419E-007
  0.20350000000000001          2.1058730226286571E-007
  0.20460000000000003          1.4138510096017853E-007
  0.20570000000000002          1.5494396876647443E-008
  0.20680000000000001         -1.3489545835909666E-007
  0.20790000000000003         -2.6278220843778399E-007
  0.20900000000000002         -3.2211929124059679E-007
  0.21010000000000004         -2.8513190386547649E-007
  0.21120000000000003         -1.5442572021129308E-007
  0.21230000000000002          3.5254686281405156E-008
  0.21340000000000003          2.2694798929023818E-007
  0.21450000000000002          3.5990976243738260E-007
  0.21560000000000001          3.9004800100883585E-007
  0.21670000000000003          3.0504000392284070E-007
  0.21780000000000002          1.2880212807431235E-007
  0.21890000000000001         -8.6111349162365514E-008
  0.22000000000000003         -2.7537376467989816E-007
  0.22110000000000002         -3.8319814166243304E-007
  0.22220000000000004         -3.7940500874356076E-007
  0.22330000000000003         -2.6791326490638312E-007
  0.22440000000000002         -8.4307899328450731E-008
  0.22550000000000003          1.1626070062220606E-007
  0.22660000000000002          2.7652828293867060E-007
  0.22770000000000001          3.5408416465543269E-007
  0.22880000000000003          3.3256779374823964E-007
  0.22990000000000002          2.2417491152282309E-007
  0.23100000000000004          6.3721621756940294E-008
  0.23210000000000003         -1.0286190388342220E-007
  0.23320000000000002         -2.3161203444033163E-007
  0.23430000000000004         -2.9163260251152678E-007
  0.23540000000000003         -2.7194590757062542E-007
  0.23650000000000002         -1.8308897153929138E-007
  0.23760000000000003         -5.3367781305269091E-008
  0.23870000000000002          7.9467298519375618E-008
  0.23980000000000001          1.7921725259384402E-007
  0.24090000000000000          2.2178321046339988E-007
  0.24200000000000005          2.0172551273844874E-007
  0.24310000000000004          1.3242306806660054E-007
  0.24420000000000003          3.9934530349228226E-008
  0.24530000000000002         -4.6715996404600446E-008
  0.24640000000000001         -1.0489388557743951E-007
  0.24750000000000005         -1.2419384631812136E-007
  0.24860000000000004         -1.0759323743059213E-007
  0.24970000000000003         -6.8527192809142434E-008
  0.25080000000000002         -2.5268624526120220E-008
  0.25190000000000001          5.8804965341607840E-009
  0.25300000000000000          1.6798191282418884E-008
  0.25410000000000005          1.0824739327119914E-008
  0.25520000000000004          9.6286101314291273E-010
  0.25630000000000003          2.7355195886258343E-009
  0.25740000000000002          2.4648903362844976E-008
  0.25850000000000001          6.1597752676334494E-008
  0.25960000000000005          9.5795805066245521E-008
  0.26070000000000004          1.0561249297325048E-007
  0.26180000000000003          7.7588488522906118E-008
  0.26290000000000002          1.4597230091339952E-008
  0.26400000000000001         -6.4504583008329064E-008
  0.26510000000000000         -1.3302228296652174E-007
  0.26620000000000005         -1.6727514662306930E-007
  0.26730000000000004         -1.5467834657556523E-007
  0.26840000000000003         -9.6705782937078766E-008
  0.26950000000000002         -7.7672410725426744E-009
  0.27060000000000001          8.8162430245120049E-008
  0.27170000000000005          1.6284096204799425E-007
  0.27280000000000004          1.9166445497376117E-007
  0.27390000000000003          1.6316162998464279E-007
  0.27500000000000002          8.5804558125346375E-008
  0.27610000000000001         -1.3212627436587354E-008
  0.27720000000000000         -9.8925468705601816E-008
  0.27830000000000005         -1.4438157336371660E-007
  0.27940000000000004         -1.4206568721419899E-007
  0.28050000000000003         -1.0401896588518866E-007
  0.28160000000000002         -5.1454680516371809E-008
  0.28270000000000001         -1.9598760392369741E-009
  0.28380000000000005          3.6796929947513490E-008
  0.28490000000000004          6.4197159588275099E-008
  0.28600000000000003          7.9824886256574246E-008
  0.28710000000000002          8.0351398423772480E-008
  0.28820000000000001          6.3085863644118945E-008
  0.28930000000000000          3.1816043133403582E-008
  0.29040000000000005         -2.1616979317684581E-009
  0.29150000000000004         -2.6341336223367762E-008
  0.29260000000000003         -3.5644134754875267E-008
  0.29370000000000002         -3.5373794560200622E-008
  0.29480000000000001         -3.5224424266289134E-008
  0.29590000000000005         -3.9432197951327908E-008
  0.29700000000000004         -4.2205289929597711E-008
  0.29810000000000003         -3.3128952026117986E-008
  0.29920000000000002         -8.0536546320786329E-009
  0.30030000000000001          2.4546828569782519E-008
  0.30140000000000006          4.8241631134260388E-008
  0.30250000000000005          5.1073794082867607E-008
  0.30360000000000004          3.5191860092709248E-008
  0.30470000000000003          1.5046488499592670E-008
  0.30580000000000002          5.2993365251552405E-009
  0.30690000000000001          8.6900264761879953E-009
  0.30800000000000005          1.4359611277825479E-008
  0.30910000000000004          8.1223143766351313E-009
  0.31020000000000003         -1.4237272694117564E-008
  0.31130000000000002         -4.2206899308894208E-008
  0.31240000000000001         -5.8446580908366741E-008
  0.31350000000000006         -5.2513819071009493E-008
  0.31460000000000005         -2.8713337485442025E-008
  0.31570000000000004         -1.6802983449082376E-009
