  -1.3200000000000002E-002     0.0000000000000000
  -1.2100000000000001E-002     0.0000000000000000
  -1.1000000000000001E-002     0.0000000000000000
  -9.9000000000000025E-003     0.0000000000000000
  -8.8000000000000023E-003     0.0000000000000000
  -7.7000000000000011E-003     0.0000000000000000
  -6.6000000000000017E-003     0.0000000000000000
  -5.5000000000000014E-003     0.0000000000000000
  -4.4000000000000011E-003     0.0000000000000000
  -3.3000000000000008E-003     0.0000000000000000
  -2.2000000000000006E-003     0.0000000000000000
  -1.1000000000000003E-003     0.0000000000000000
  -1.7347234759768071E-018     0.0000000000000000
   1.0999999999999985E-003     0.0000000000000000
   2.1999999999999988E-003     0.0000000000000000
   3.2999999999999991E-003     0.0000000000000000
   4.3999999999999994E-003     0.0000000000000000
   5.4999999999999997E-003     0.0000000000000000
   6.6000000000000000E-003     0.0000000000000000
   7.7000000000000002E-003     0.0000000000000000
   8.8000000000000005E-003     0.0000000000000000
   9.9000000000000008E-003     0.0000000000000000
   1.1000000000000001E-002     0.0000000000000000
   1.2100000000000001E-002    -8.7753356696301913E-035
   1.3199999999999998E-002    -2.3302908175204870E-034
   1.4299999999999998E-002     1.2911325973939723E-033
   1.5399999999999999E-002     5.0616922662942014E-033
   1.6500000000000001E-002    -6.4880551113392120E-033
   1.7599999999999998E-002    -7.3756087413813216E-032
   1.8700000000000001E-002    -7.4487544651084138E-032
   1.9799999999999998E-002     6.8967537202574706E-031
   2.0900000000000002E-002     2.1195351805213395E-030
   2.1999999999999999E-002    -3.2403801406970624E-030
   2.3099999999999996E-002    -2.6263732114207525E-029
   2.4199999999999999E-002    -1.4357013289304784E-029
   2.5299999999999996E-002     2.0440188204098253E-028
   2.6400000000000000E-002     4.4192619615502840E-028
   2.7499999999999997E-002    -9.0254912761717365E-028
   2.8600000000000000E-002    -4.6406834309545624E-027
   2.9699999999999997E-002    -6.5098425457781013E-028
   3.0800000000000001E-002     3.0129938303285986E-026
   3.1899999999999998E-002     4.8714598354335095E-026
   3.3000000000000002E-002    -1.1326049492592882E-025
   3.4099999999999998E-002    -4.5218572049490445E-025
   3.5200000000000002E-002    -1.7837505543959792E-026
   3.6299999999999999E-002     2.4352518741711667E-024
   3.7400000000000003E-002     3.6218757748967905E-024
   3.8500000000000000E-002    -7.0907693321658807E-024
   3.9599999999999996E-002    -2.7975415302619813E-023
   4.0700000000000000E-002    -6.8593167537131306E-024
   4.1799999999999997E-002     1.1838089768030875E-022
   4.2900000000000001E-002     2.0165537724194373E-022
   4.3999999999999997E-002    -2.1910153472099851E-022
   4.5100000000000001E-002    -1.1624300889651291E-021
   4.6199999999999998E-002    -7.9188891940671007E-022
   4.7300000000000002E-002     3.4587482948460814E-021
   4.8399999999999999E-002     8.0798953766565727E-021
   4.9500000000000002E-002    -1.2496187827425004E-021
   5.0600000000000006E-002    -3.1426126278666719E-020
   5.1699999999999996E-002    -4.1373732470569807E-020
   5.2800000000000000E-002     4.9146654982676842E-020
   5.3900000000000003E-002     2.1275926752643203E-019
   5.5000000000000007E-002     1.4837243337409934E-019
   5.6099999999999997E-002    -4.7345677932700323E-019
   5.7200000000000001E-002    -1.1673203823621297E-018
   5.8300000000000005E-002    -2.4899646042464042E-019
   5.9399999999999994E-002     3.1782746200464263E-018
   6.0499999999999998E-002     5.4374763061106965E-018
   6.1600000000000002E-002    -1.1926291105765319E-018
   6.2700000000000006E-002    -1.7250438084487116E-017
   6.3799999999999996E-002    -2.2315883706247494E-017
   6.4899999999999999E-002     1.3857215825980263E-017
   6.6000000000000003E-002     8.0354071708854820E-017
   6.7100000000000007E-002     8.3892651107683166E-017
   6.8199999999999997E-002    -8.0453902482622620E-017
   6.9300000000000000E-002    -3.3189890189284249E-016
   7.0400000000000004E-002    -3.0185006398186136E-016
   7.1500000000000008E-002     3.4557731932069696E-016
   7.2599999999999998E-002     1.2385220463545813E-015
   7.3700000000000002E-002     1.0814788556809635E-015
   7.4800000000000005E-002    -1.1676989746566891E-015
   7.5899999999999995E-002    -4.2029275093319503E-015
   7.6999999999999999E-002    -3.9148956496840200E-015
   7.8100000000000003E-002     2.9661183753549539E-015
   7.9200000000000007E-002     1.2863421807764175E-014
   8.0299999999999996E-002     1.4008269845207193E-014
   8.1400000000000000E-002    -4.0425824783508167E-015
   8.2500000000000004E-002    -3.4411716369215500E-014
   8.3600000000000008E-002    -4.7278915943924429E-014
   8.4699999999999998E-002    -9.9933887323633806E-015
   8.5800000000000001E-002     7.4050527266045912E-014
   8.6900000000000005E-002     1.4200312204327298E-013
   8.8000000000000009E-002     1.0036041415235550E-013
   8.9099999999999999E-002    -9.3536947122236508E-014
   9.0200000000000002E-002    -3.4997314291365655E-013
   9.1300000000000006E-002    -4.4422606326928460E-013
   9.2399999999999996E-002    -1.4173169202939123E-013
   9.3500000000000000E-002     5.8023827713069021E-013
   9.4600000000000004E-002     1.3426477811495641E-012
   9.5700000000000007E-002     1.3993670588616225E-012
   9.6799999999999997E-002     5.1665923194452526E-014
   9.7900000000000001E-002    -2.6148965805161684E-012
   9.9000000000000005E-002    -5.0999027050024903E-012
  0.10010000000000001         -4.6982868984191128E-012
  0.10120000000000000          8.7925104480177096E-013
  0.10230000000000000          1.0825816805504207E-011
  0.10340000000000001          1.9240746149118415E-011
  0.10450000000000001          1.6397695701275694E-011
  0.10560000000000000         -5.1527189633138182E-012
  0.10670000000000000         -4.1440354620059239E-011
  0.10780000000000001         -7.1029633563757244E-011
  0.10890000000000001         -6.0222944686660895E-011
  0.11000000000000000          1.6228435262277685E-011
  0.11110000000000000          1.4529365210957934E-010
  0.11220000000000001          2.5597643449337681E-010
  0.11330000000000000          2.3462579101796166E-010
  0.11440000000000002         -1.1284837647673740E-011
  0.11550000000000001         -4.5787715285960928E-010
  0.11660000000000000         -8.9291146698755597E-010
  0.11770000000000001         -9.4265328876019794E-010
  0.11880000000000000         -2.4938220932746447E-010
  0.11989999999999999          1.2287226791585226E-009
  0.12100000000000001          2.9386379996054757E-009
  0.12210000000000000          3.7060048363457554E-009
  0.12320000000000002          2.1685619966405056E-009
  0.12430000000000001         -2.3209738575502570E-009
  0.12540000000000001         -8.6591525061407992E-009
  0.12650000000000003         -1.3498745232709553E-008
  0.12760000000000002         -1.2050347386605154E-008
  0.12870000000000001         -5.1307036397219008E-010
  0.12980000000000003          2.0466028871624076E-008
  0.13090000000000002          4.3029764640323265E-008
  0.13200000000000001          5.2433026809239891E-008
  0.13310000000000002          3.2301365138209803E-008
  0.13420000000000001         -2.5421890370580513E-008
  0.13530000000000003         -1.0932502192417815E-007
  0.13640000000000002         -1.8263295942233526E-007
  0.13750000000000001         -1.8971363147102238E-007
  0.13860000000000003         -7.8771904554741923E-008
  0.13970000000000002          1.6316036521857313E-007
  0.14080000000000001          4.7665344027336687E-007
  0.14190000000000003          7.1875820140121505E-007
  0.14300000000000002          6.9448645945158205E-007
  0.14410000000000003          2.3797402093350684E-007
  0.14520000000000002         -6.7391357561064069E-007
  0.14630000000000001         -1.8205731748821563E-006
  0.14740000000000003         -2.7119813239551149E-006
  0.14850000000000002         -2.6938939754472813E-006
  0.14960000000000001         -1.1992291319984361E-006
  0.15070000000000003          1.9069921108894050E-006
  0.15180000000000002          6.0154161474201828E-006
  0.15290000000000001          9.6638241302571259E-006
  0.15400000000000003          1.0784765436255839E-005
  0.15510000000000002          7.3621595220174640E-006
  0.15620000000000003         -1.6170200751730590E-006
  0.15730000000000002         -1.5212498510663863E-005
  0.15840000000000001         -2.9999438993399963E-005
  0.15950000000000003         -4.0355283999815583E-005
  0.16060000000000002         -3.9764625398674980E-005
  0.16170000000000001         -2.2987771444604732E-005
  0.16280000000000003          1.1468418961158022E-005
  0.16390000000000002          5.9442383644636720E-005
  0.16500000000000001          1.1067747254855931E-004
  0.16610000000000003          1.5044523752294481E-004
  0.16720000000000002          1.6319920541718602E-004
  0.16830000000000003          1.3745475735049695E-004
  0.16940000000000002          7.0448870246764272E-005
  0.17050000000000001         -2.9102839107508771E-005
  0.17160000000000003         -1.4148016634862870E-004
  0.17270000000000002         -2.4008726177271456E-004
  0.17380000000000001         -2.9842575895600021E-004
  0.17490000000000003         -2.9798163450323045E-004
  0.17600000000000002         -2.3450613662134856E-004
  0.17710000000000004         -1.2042510206811130E-004
  0.17820000000000003          1.7777685570763424E-005
  0.17930000000000001          1.4671732787974179E-004
  0.18040000000000003          2.3570135817863047E-004
  0.18150000000000002          2.6568712200969458E-004
  0.18260000000000001          2.3460651573259383E-004
  0.18370000000000003          1.5724434342700988E-004
  0.18480000000000002          5.9725389291997999E-005
  0.18590000000000001         -2.9412249205051921E-005
  0.18700000000000003         -8.8367050921078771E-005
  0.18810000000000002         -1.0821915930137038E-004
  0.18920000000000003         -9.4019691459834576E-005
  0.19030000000000002         -6.0739228501915932E-005
  0.19140000000000001         -2.5982761144405231E-005
  0.19250000000000003         -2.5845147320069373E-006
  0.19360000000000002          5.8748601077240892E-006
  0.19470000000000001          4.9295722419628873E-006
  0.19580000000000003          4.8220704229606781E-006
  0.19690000000000002          1.4058712622500025E-005
  0.19800000000000001          3.4048720408463851E-005
  0.19910000000000003          5.7430424931226298E-005
  0.20020000000000002          7.1009628300089389E-005
  0.20130000000000003          6.2109109421726316E-005
  0.20240000000000002          2.5509069018880837E-005
  0.20350000000000001         -3.2264772016787902E-005
  0.20460000000000003         -9.3556802312377840E-005
  0.20570000000000002         -1.3533605670090765E-004
  0.20680000000000001         -1.3810131349600852E-004
  0.20790000000000003         -9.4421142421197146E-005
  0.20900000000000002         -1.3464580661093350E-005
  0.21010000000000004          8.0714991781860590E-005
  0.21120000000000003          1.5693313616793603E-004
  0.21230000000000002          1.8794003699440509E-004
  0.21340000000000003          1.6059241897892207E-004
  0.21450000000000002          8.1155863881576806E-005
  0.21560000000000001         -2.6358369723311625E-005
  0.21670000000000003         -1.2820023403037339E-004
  0.21780000000000002         -1.9223112030886114E-004
  0.21890000000000001         -1.9852055993396789E-004
  0.22000000000000003         -1.4559405099134892E-004
  0.22110000000000002         -5.0451842980692163E-005
  0.22220000000000004          5.7347613619640470E-005
  0.22330000000000003          1.4536526578012854E-004
  0.22440000000000002          1.8846437160391361E-004
  0.22550000000000003          1.7620708968024701E-004
  0.22660000000000002          1.1518828250700608E-004
  0.22770000000000001          2.5820843802648596E-005
  0.22880000000000003         -6.4943291363306344E-005
  0.22990000000000002         -1.3213529018685222E-004
  0.23100000000000004         -1.5959716984070837E-004
  0.23210000000000003         -1.4328044198919088E-004
  0.23320000000000002         -9.0809473476838320E-005
  0.23430000000000004         -1.8318747606826946E-005
  0.23540000000000003          5.4111937060952187E-005
  0.23650000000000002          1.0744513565441594E-004
  0.23760000000000003          1.2841113493777812E-004
  0.23870000000000002          1.1310748959658667E-004
  0.23980000000000001          6.8256696977186948E-005
  0.24090000000000000          9.1364163381513208E-006
  0.24200000000000005         -4.5604756451211870E-005
  0.24310000000000004         -8.0399753642268479E-005
  0.24420000000000003         -8.7761465692892671E-005
  0.24530000000000002         -6.9785157393198460E-005
  0.24640000000000001         -3.5992925404570997E-005
  0.24750000000000005          9.0203701574864681E-007
  0.24860000000000004          2.9280758099048398E-005
  0.24970000000000003          4.1748196963453665E-005
  0.25080000000000002          3.6903340514982119E-005
  0.25190000000000001          1.9730885469471104E-005
  0.25300000000000000          1.1932363008781977E-007
  0.25410000000000005         -1.0979490070894826E-005
  0.25520000000000004         -6.9498314587690402E-006
  0.25630000000000003          1.0174205272051040E-005
  0.25740000000000002          2.9668583010789007E-005
  0.25850000000000001          3.7509922549361363E-005
  0.25960000000000005          2.4666487661306746E-005
  0.26070000000000004         -6.8189860940037761E-006
  0.26180000000000003         -4.4133172195870429E-005
  0.26290000000000002         -7.0394751674029976E-005
  0.26400000000000001         -7.3425333539489657E-005
  0.26510000000000000         -5.1152321248082444E-005
  0.26620000000000005         -1.1126942808914464E-005
  0.26730000000000004          3.4028824302367866E-005
  0.26840000000000003          7.1375521656591445E-005
  0.26950000000000002          9.0331770479679108E-005
  0.27060000000000001          8.4086874267086387E-005
  0.27170000000000005          5.1692422857740894E-005
  0.27280000000000004          7.1281306190940086E-007
  0.27390000000000003         -5.2537518058670685E-005
  0.27500000000000002         -8.8111912191379815E-005
  0.27610000000000001         -9.1917871031910181E-005
  0.27720000000000000         -6.3921565015334636E-005
  0.27830000000000005         -1.8724736946751364E-005
  0.27940000000000004          2.2934798835194670E-005
  0.28050000000000003          4.6239154471550137E-005
  0.28160000000000002          4.9330545152770355E-005
  0.28270000000000001          4.0659579099155962E-005
  0.28380000000000005          2.9808230465278029E-005
  0.28490000000000004          2.0011677406728268E-005
  0.28600000000000003          8.4030280049773864E-006
  0.28710000000000002         -7.4461008807702456E-006
  0.28820000000000001         -2.3946655346662737E-005
  0.28930000000000000         -3.2908086723182350E-005
  0.29040000000000005         -2.8869337256764993E-005
  0.29150000000000004         -1.5092772628122475E-005
  0.29260000000000003         -1.8205561218564981E-006
  0.29370000000000002          2.3123589016904589E-006
  0.29480000000000001         -2.0411880541360006E-006
  0.29590000000000005         -5.6101171139744110E-006
  0.29700000000000004          5.6727640185272321E-007
  0.29810000000000003          1.5934605471557006E-005
  0.29920000000000002          2.9656828701263294E-005
  0.30030000000000001          2.9617247491842136E-005
  0.30140000000000006          1.3464877156366128E-005
  0.30250000000000005         -8.3149752754252404E-006
  0.30360000000000004         -2.0561066776281223E-005
  0.30470000000000003         -1.6066882380982861E-005
  0.30580000000000002         -1.6552119177504210E-006
  0.30690000000000001          7.8202010627137497E-006
  0.30800000000000005          2.4881287572497968E-006
  0.30910000000000004         -1.3829072486259975E-005
  0.31020000000000003         -2.6825549866771325E-005
  0.31130000000000002         -2.4029182895901613E-005
  0.31240000000000001         -5.4977549552859273E-006
  0.31350000000000006          1.6285353922285140E-005
  0.31460000000000005          2.6989682737621479E-005
  0.31570000000000004          2.2162526875035837E-005
