  -1.3200000000000002E-002     0.0000000000000000
  -1.2100000000000001E-002     0.0000000000000000
  -1.1000000000000001E-002     0.0000000000000000
  -9.9000000000000025E-003     0.0000000000000000
  -8.8000000000000023E-003     0.0000000000000000
  -7.7000000000000011E-003     0.0000000000000000
  -6.6000000000000017E-003     0.0000000000000000
  -5.5000000000000014E-003     0.0000000000000000
  -4.4000000000000011E-003     0.0000000000000000
  -3.3000000000000008E-003     0.0000000000000000
  -2.2000000000000006E-003     0.0000000000000000
  -1.1000000000000003E-003     0.0000000000000000
  -1.7347234759768071E-018     0.0000000000000000
   1.0999999999999985E-003     0.0000000000000000
   2.1999999999999988E-003     0.0000000000000000
   3.2999999999999991E-003     0.0000000000000000
   4.3999999999999994E-003     0.0000000000000000
   5.4999999999999997E-003     0.0000000000000000
   6.6000000000000000E-003     0.0000000000000000
   7.7000000000000002E-003     0.0000000000000000
   8.8000000000000005E-003     0.0000000000000000
   9.9000000000000008E-003     0.0000000000000000
   1.1000000000000001E-002     0.0000000000000000
   1.2100000000000001E-002    -4.8264345671772373E-038
   1.3199999999999998E-002    -2.2469466627196660E-037
   1.4299999999999998E-002     3.5726225420148529E-037
   1.5399999999999999E-002     3.8513156056174766E-036
   1.6500000000000001E-002     3.0668166194063465E-036
   1.7599999999999998E-002    -4.1067462089129810E-035
   1.8700000000000001E-002    -1.2260145495856110E-034
   1.9799999999999998E-002     2.1575184027110541E-034
   2.0900000000000002E-002     1.7608174364768449E-033
   2.1999999999999999E-002     1.1443527504041204E-033
   2.3099999999999996E-002    -1.5082910544090808E-032
   2.4199999999999999E-002    -3.7424322380356618E-032
   2.5299999999999996E-002     6.7100356114852866E-032
   2.6400000000000000E-002     4.2258076814603175E-031
   2.7499999999999997E-002     1.6923816688209480E-031
   2.8600000000000000E-002    -2.8795396742601736E-030
   2.9699999999999997E-002    -5.7899570460486508E-030
   3.0800000000000001E-002     1.0423466887498450E-029
   3.1899999999999998E-002     5.3787961302892191E-029
   3.3000000000000002E-002     1.8287711421279301E-029
   3.4099999999999998E-002    -2.9270771999520599E-028
   3.5200000000000002E-002    -5.5122050567956799E-028
   3.6299999999999999E-002     7.7835731663856131E-028
   3.7400000000000003E-002     4.1097773454388993E-027
   3.8500000000000000E-002     2.2018862386897776E-027
   3.9599999999999996E-002    -1.7084514698767004E-026
   4.0700000000000000E-002    -3.6243616481724650E-026
   4.1799999999999997E-002     2.5093250934956353E-026
   4.2900000000000001E-002     2.0111319757912792E-025
   4.3999999999999997E-002     1.9151778935085899E-025
   4.5100000000000001E-002    -5.6832463327851666E-025
   4.6199999999999998E-002    -1.6432002238037622E-024
   4.7300000000000002E-002    -1.7642759513917639E-025
   4.8399999999999999E-002     6.1698266845705466E-024
   4.9500000000000002E-002     9.9264789506938944E-024
   5.0600000000000006E-002    -8.0451813758174793E-024
   5.1699999999999996E-002    -4.8085104830168159E-023
   5.2800000000000000E-002    -4.3809999372067721E-023
   5.3900000000000003E-002     1.0023825806347797E-022
   5.5000000000000007E-002     2.9886069862767485E-022
   5.6099999999999997E-002     1.2006430160850142E-022
   5.7200000000000001E-002    -7.8236316522978944E-022
   5.8300000000000005E-002    -1.5613375354720432E-021
   5.9399999999999994E-002     4.9765400646394261E-023
   6.0499999999999998E-002     4.7884282048280022E-021
   6.1600000000000002E-002     7.1230937849706383E-021
   6.2700000000000006E-002    -3.0205929861987301E-021
   6.3799999999999996E-002    -2.4782069426973019E-020
   6.4899999999999999E-002    -2.9434336755950117E-020
   6.6000000000000003E-002     2.2381867554744028E-020
   6.7100000000000007E-002     1.1271756270243120E-019
   6.8199999999999997E-002     1.1460885947424542E-019
   6.9300000000000000E-002    -1.1218518150537383E-019
   7.0400000000000004E-002    -4.6074709751633768E-019
   7.1500000000000008E-002    -4.3669713139908810E-019
   7.2599999999999998E-002     4.3455752534714313E-019
   7.3700000000000002E-002     1.7105580147665298E-018
   7.4800000000000005E-002     1.6631370944173601E-018
   7.5899999999999995E-002    -1.2907073988190615E-018
   7.6999999999999999E-002    -5.7555102944347783E-018
   7.8100000000000003E-002    -6.2773371838638558E-018
   7.9200000000000007E-002     2.4289101964387121E-018
   8.0299999999999996E-002     1.7208341208753067E-017
   8.1400000000000000E-002     2.2689469903739718E-017
   8.2500000000000004E-002     1.5396079062926458E-018
   8.3600000000000008E-002    -4.3390238796224347E-017
   8.4699999999999998E-002    -7.4890007749905138E-017
   8.5800000000000001E-002    -3.9658585516258774E-017
   8.6900000000000005E-002     7.9170925500218173E-017
   8.8000000000000009E-002     2.1247086945490177E-016
   8.9099999999999999E-002     2.1622378127660996E-016
   9.0200000000000002E-002    -2.7706760378959709E-017
   9.1300000000000006E-002    -4.6451636228516573E-016
   9.2399999999999996E-002    -7.8679312871587697E-016
   9.3500000000000000E-002    -5.4561452596840385E-016
   9.4600000000000004E-002     5.1197275958362719E-016
   9.5700000000000007E-002     2.0200808290937820E-015
   9.6799999999999997E-002     2.8181489192496793E-015
   9.7900000000000001E-002     1.4083720575533290E-015
   9.9000000000000005E-002    -2.8347677056748087E-015
  0.10010000000000001         -8.2237717341244326E-015
  0.10120000000000000         -1.0324241495626805E-014
  0.10230000000000000         -3.8864548244140623E-015
  0.10340000000000001          1.2650155852304487E-014
  0.10450000000000001          3.2251297850871205E-014
  0.10560000000000000          3.8436037664256462E-014
  0.10670000000000000          1.2809847820883288E-014
  0.10780000000000001         -4.9048645597545362E-014
  0.10890000000000001         -1.2123756046398398E-013
  0.11000000000000000         -1.4543454060402666E-013
  0.11110000000000000         -5.6597403223475687E-014
  0.11220000000000001          1.6410112743496519E-013
  0.11330000000000000          4.3393234968810979E-013
  0.11440000000000002          5.5676990795561210E-013
  0.11550000000000001          2.9873082089612590E-013
  0.11660000000000000         -4.4420288844784772E-013
  0.11770000000000001         -1.4537635418393480E-012
  0.11880000000000000         -2.1093829807861120E-012
  0.11989999999999999         -1.5707457036440164E-012
  0.12100000000000001          7.2130268338049808E-013
  0.12210000000000000          4.3758564480245177E-012
  0.12320000000000002          7.6068682602903337E-012
  0.12430000000000001          7.5230412177607064E-012
  0.12540000000000001          1.4839714743489218E-012
  0.12650000000000003         -1.0702872615953041E-011
  0.12760000000000002         -2.4754873498289420E-011
  0.12870000000000001         -3.1664754152060937E-011
  0.12980000000000003         -2.0690626295616354E-011
  0.13090000000000002          1.4232059107610606E-011
  0.13200000000000001          6.6736588477667169E-011
  0.13310000000000002          1.1334051058797812E-010
  0.13420000000000001          1.1712421310594578E-010
  0.13530000000000003          4.3013419215309767E-011
  0.13640000000000002         -1.1756348672342654E-010
  0.13750000000000001         -3.2235411562275829E-010
  0.13860000000000003         -4.7002113312544225E-010
  0.13970000000000002         -4.2360748242487034E-010
  0.14080000000000001         -7.1709901905414597E-011
  0.14190000000000003          5.8576649086816701E-010
  0.14300000000000002          1.3630510053985745E-009
  0.14410000000000003          1.8759043207694504E-009
  0.14520000000000002          1.6361375587692351E-009
  0.14630000000000001          2.6416988041511047E-010
  0.14740000000000003         -2.2287351963967694E-009
  0.14850000000000002         -5.2019664131819354E-009
  0.14960000000000001         -7.3431833946813185E-009
  0.15070000000000003         -6.9539138891627772E-009
  0.15180000000000002         -2.5965893879487112E-009
  0.15290000000000001          6.0269926827061227E-009
  0.15400000000000003          1.7273716679255813E-008
  0.15510000000000002          2.7254525747366642E-008
  0.15620000000000003          3.0414351925855954E-008
  0.15730000000000002          2.1158115259822807E-008
  0.15840000000000001         -3.7084499915351898E-009
  0.15950000000000003         -4.2403549116443173E-008
  0.16060000000000002         -8.6469498228325392E-008
  0.16170000000000001         -1.2098331581000821E-007
  0.16280000000000003         -1.2731895537854143E-007
  0.16390000000000002         -8.8318003577114723E-008
  0.16500000000000001          5.2479158796359116E-009
  0.16610000000000003          1.4886541066516656E-007
  0.16720000000000002          3.2136986760633590E-007
  0.16830000000000003          4.8672956154405256E-007
  0.16940000000000002          6.0107657873231801E-007
  0.17050000000000001          6.2381695897784084E-007
  0.17160000000000003          5.2999632771388860E-007
  0.17270000000000002          3.2013423378884909E-007
  0.17380000000000001          2.3952070549171367E-008
  0.17490000000000003         -3.0407198892135057E-007
  0.17600000000000002         -5.9694019682865473E-007
  0.17710000000000004         -7.9215237747121137E-007
  0.17820000000000003         -8.4860840843248297E-007
  0.17930000000000001         -7.5813619559994549E-007
  0.18040000000000003         -5.4780588243374950E-007
  0.18150000000000002         -2.7204225716559449E-007
  0.18260000000000001          3.1192515237421503E-009
  0.18370000000000003          2.1863722565740318E-007
  0.18480000000000002          3.3797056175899343E-007
  0.18590000000000001          3.5464279335428728E-007
  0.18700000000000003          2.8986417532905762E-007
  0.18810000000000002          1.8174173987972608E-007
  0.18920000000000003          7.0510360217213019E-008
  0.19030000000000002         -1.4607048903769737E-008
  0.19140000000000001         -6.2304145842517755E-008
  0.19250000000000003         -7.8016149984705407E-008
  0.19360000000000002         -7.6206461585570651E-008
  0.19470000000000001         -7.0264029261579708E-008
  0.19580000000000003         -6.4900625318387029E-008
  0.19690000000000002         -5.4516196001941353E-008
  0.19800000000000001         -2.8057115741830785E-008
  0.19910000000000003          2.2256413600985070E-008
  0.20020000000000002          9.2898439163491275E-008
  0.20130000000000003          1.6611375031061471E-007
  0.20240000000000002          2.1430375340969476E-007
  0.20350000000000001          2.1058812649243919E-007
  0.20460000000000003          1.4138625203941046E-007
  0.20570000000000002          1.5495185579084136E-008
  0.20680000000000001         -1.3489535888311366E-007
  0.20790000000000003         -2.6278272002855374E-007
  0.20900000000000002         -3.2211985967478540E-007
  0.21010000000000004         -2.8513213123915193E-007
  0.21120000000000003         -1.5442567757872894E-007
  0.21230000000000002          3.5254565489140077E-008
  0.21340000000000003          2.2694740664519486E-007
  0.21450000000000002          3.5990893820780911E-007
  0.21560000000000001          3.9004754626148497E-007
  0.21670000000000003          3.0504034498335386E-007
  0.21780000000000002          1.2880308020157827E-007
  0.21890000000000001         -8.6110354402535449E-008
  0.22000000000000003         -2.7537339519767556E-007
  0.22110000000000002         -3.8319862483149336E-007
  0.22220000000000004         -3.7940594665997196E-007
  0.22330000000000003         -2.6791386176228116E-007
  0.22440000000000002         -8.4307565373364923E-008
  0.22550000000000003          1.1626173090917291E-007
  0.22660000000000002          2.7652919243337237E-007
  0.22770000000000001          3.5408419307714212E-007
  0.22880000000000003          3.3256685583182843E-007
  0.22990000000000002          2.2417363254589873E-007
  0.23100000000000004          6.3720783316512097E-008
  0.23210000000000003         -1.0286190388342220E-007
  0.23320000000000002         -2.3161136653016001E-007
  0.23430000000000004         -2.9163186354708159E-007
  0.23540000000000003         -2.7194562335353112E-007
  0.23650000000000002         -1.8308922733467625E-007
  0.23760000000000003         -5.3368275132470444E-008
  0.23870000000000002          7.9466957458862453E-008
  0.23980000000000001          1.7921725259384402E-007
  0.24090000000000000          2.2178346625878476E-007
  0.24200000000000005          2.0172586800981662E-007
  0.24310000000000004          1.3242340912711370E-007
  0.24420000000000003          3.9934739959335275E-008
  0.24530000000000002         -4.6715900481331118E-008
  0.24640000000000001         -1.0489385005030272E-007
  0.24750000000000005         -1.2419384631812136E-007
  0.24860000000000004         -1.0759330137943834E-007
  0.24970000000000003         -6.8527370444826374E-008
  0.25080000000000002         -2.5269020653695407E-008
  0.25190000000000001          5.8798037549934179E-009
  0.25300000000000000          1.6797423896264263E-008
  0.25410000000000005          1.0824336982295790E-008
  0.25520000000000004          9.6321073339566965E-010
  0.25630000000000003          2.7366160448849541E-009
  0.25740000000000002          2.4650146812632556E-008
  0.25850000000000001          6.1598328215950460E-008
  0.25960000000000005          9.5795357424321992E-008
  0.26070000000000004          1.0561148400256570E-007
  0.26180000000000003          7.7587792191025073E-008
  0.26290000000000002          1.4597429931484385E-008
  0.26400000000000001         -6.4503616670208430E-008
  0.26510000000000000         -1.3302133083925582E-007
  0.26620000000000005         -1.6727493346024858E-007
  0.26730000000000004         -1.5467890079889912E-007
  0.26840000000000003         -9.6706521901523956E-008
  0.26950000000000002         -7.7675155196743617E-009
  0.27060000000000001          8.8162742883923784E-008
  0.27170000000000005          1.6284134574107156E-007
  0.27280000000000004          1.9166424181094044E-007
  0.27390000000000003          1.6316066364652215E-007
  0.27500000000000002          8.5803478100388020E-008
  0.27610000000000001         -1.3212902771897461E-008
  0.27720000000000000         -9.8924594738036831E-008
  0.27830000000000005         -1.4438006701311679E-007
  0.27940000000000004         -1.4206453613496706E-007
  0.28050000000000003         -1.0401886640920566E-007
  0.28160000000000002         -5.1455536720368400E-008
  0.28270000000000001         -1.9609707191392545E-009
  0.28380000000000005          3.6796322433474415E-008
  0.28490000000000004          6.4197273275112821E-008
  0.28600000000000003          7.9825362320207205E-008
  0.28710000000000002          8.0351675535439426E-008
  0.28820000000000001          6.3085657586725574E-008
  0.28930000000000000          3.1815545753488550E-008
  0.29040000000000005         -2.1620409906830673E-009
  0.29150000000000004         -2.6341202996604807E-008
  0.29260000000000003         -3.5643534346263550E-008
  0.29370000000000002         -3.5373041384900716E-008
  0.29480000000000001         -3.5223898464664671E-008
  0.29590000000000005         -3.9432116238913295E-008
  0.29700000000000004         -4.2205680728102379E-008
  0.29810000000000003         -3.3129641252571673E-008
  0.29920000000000002         -8.0543518521380975E-009
  0.30030000000000001          2.4546389809643188E-008
  0.30140000000000006          4.8241560079986812E-008
  0.30250000000000005          5.1074003692974657E-008
  0.30360000000000004          3.5192183389654019E-008
  0.30470000000000003          1.5046810020180601E-008
  0.30580000000000002          5.2996571575647522E-009
  0.30690000000000001          8.6904012874811087E-009
  0.30800000000000005          1.4359981648226494E-008
  0.30910000000000004          8.1224618142528016E-009
  0.31020000000000003         -1.4237580003850780E-008
  0.31130000000000002         -4.2207684458617223E-008
  0.31240000000000001         -5.8447504613923229E-008
  0.31350000000000006         -5.2514327109065562E-008
  0.31460000000000005         -2.8713055044704561E-008
  0.31570000000000004         -1.6793412216387082E-009
