  -1.3200000000000002E-002     0.0000000000000000
  -1.2100000000000001E-002     0.0000000000000000
  -1.1000000000000001E-002     0.0000000000000000
  -9.9000000000000025E-003     0.0000000000000000
  -8.8000000000000023E-003     0.0000000000000000
  -7.7000000000000011E-003     0.0000000000000000
  -6.6000000000000017E-003     0.0000000000000000
  -5.5000000000000014E-003     0.0000000000000000
  -4.4000000000000011E-003     0.0000000000000000
  -3.3000000000000008E-003     5.3645509067007567E-031
  -2.2000000000000006E-003     1.3665119007122650E-030
  -1.1000000000000003E-003     3.7177636309727800E-030
  -1.7347234759768071E-018     2.8431456544581502E-029
   1.0999999999999985E-003     1.3776465781693556E-029
   2.1999999999999988E-003    -5.9056258406328408E-028
   3.2999999999999991E-003    -2.1226659993223253E-027
   4.3999999999999994E-003     2.2944160021239069E-027
   5.4999999999999997E-003     3.8509813565710400E-026
   6.6000000000000000E-003     1.0184676231112546E-025
   7.7000000000000002E-003    -1.1306602838684020E-025
   8.8000000000000005E-003    -1.3455900227498782E-024
   9.9000000000000008E-003    -2.3773666414526330E-024
   1.1000000000000001E-002     6.1023080796926802E-024
   1.2100000000000001E-002     3.3234429102478969E-023
   1.3199999999999998E-002     2.5961294061687715E-023
   1.4299999999999998E-002    -1.7902746384464352E-022
   1.5399999999999999E-002    -5.2763414767411334E-022
   1.6500000000000001E-002     6.9740169715600847E-023
   1.7599999999999998E-002     3.1499950532749943E-021
   1.8700000000000001E-002     5.4363594248756423E-021
   1.9799999999999998E-002    -6.1281598940602195E-021
   2.0900000000000002E-002    -3.6935139464747080E-020
   2.1999999999999999E-002    -3.7000021444044208E-020
   2.3099999999999996E-002     9.4831352306666125E-020
   2.4199999999999999E-002     3.1398284542470921E-019
   2.5299999999999996E-002     1.6374033763138647E-019
   2.6400000000000000E-002    -8.9235169147424307E-019
   2.7499999999999997E-002    -2.0783777294134938E-018
   2.8600000000000000E-002    -4.2701061378154487E-019
   2.9699999999999997E-002     6.0809748462014239E-018
   3.0800000000000001E-002     1.1430495383418132E-017
   3.1899999999999998E-002     6.0912241309788388E-019
   3.3000000000000002E-002    -3.2192122435110125E-017
   3.4099999999999998E-002    -5.5266249521660477E-017
   3.5200000000000002E-002    -5.3075373988168853E-018
   3.6299999999999999E-002     1.3549937088134779E-016
   3.7400000000000003E-002     2.4287356861448818E-016
   3.8500000000000000E-002     8.2507110346767044E-017
   3.9599999999999996E-002    -4.3762063099011834E-016
   4.0700000000000000E-002    -9.5997896741914892E-016
   4.1799999999999997E-002    -7.0931714261289426E-016
   4.2900000000000001E-002     8.7609655349872671E-016
   4.3999999999999997E-002     3.1924392261141986E-015
   4.5100000000000001E-002     4.0381554606519921E-015
   4.6199999999999998E-002     6.3660571683821698E-016
   4.7300000000000002E-002    -7.6308190248932685E-015
   4.8399999999999999E-002    -1.6095750356463420E-014
   4.9500000000000002E-002    -1.4588360359134300E-014
   5.0600000000000006E-002     6.1778140484920318E-015
   5.1699999999999996E-002     4.2263867644325159E-014
   5.2800000000000000E-002     6.7665328635363453E-014
   5.3900000000000003E-002     4.3719520869235987E-014
   5.5000000000000007E-002    -4.8239180255567685E-014
   5.6099999999999997E-002    -1.7069848410201233E-013
   5.7200000000000001E-002    -2.2827391561210109E-013
   5.8300000000000005E-002    -1.2312504802606400E-013
   5.9399999999999994E-002     1.5829956160999525E-013
   6.0499999999999998E-002     4.9350329595423958E-013
   6.1600000000000002E-002     6.6123061887024548E-013
   6.2700000000000006E-002     4.6002362075886483E-013
   6.3799999999999996E-002    -1.5741932497120859E-013
   6.4899999999999999E-002    -1.0075580777688109E-012
   6.6000000000000003E-002    -1.6990100732555691E-012
   6.7100000000000007E-002    -1.7637839973272396E-012
   6.8199999999999997E-002    -8.7379517683949803E-013
   6.9300000000000000E-002     9.3239684636342579E-013
   7.0400000000000004E-002     3.1381772180871792E-012
   7.1500000000000008E-002     4.8515605595433886E-012
   7.2599999999999998E-002     5.0968088256830857E-012
   7.3700000000000002E-002     3.1611185023761035E-012
   7.4800000000000005E-002    -1.1075729092549502E-012
   7.5899999999999995E-002    -7.0498849813471764E-012
   7.6999999999999999E-002    -1.3015813253580699E-011
   7.8100000000000003E-002    -1.6478488712445838E-011
   7.9200000000000007E-002    -1.4736446438123885E-011
   8.0299999999999996E-002    -6.1596110156880712E-012
   8.1400000000000000E-002     8.6270478608097001E-012
   8.2500000000000004E-002     2.6402579775264279E-011
   8.3600000000000008E-002     4.2107237835375955E-011
   8.4699999999999998E-002     5.0194189082919394E-011
   8.5800000000000001E-002     4.5852870111939836E-011
   8.6900000000000005E-002     2.5875863951529965E-011
   8.8000000000000009E-002    -1.0486864848724409E-011
   8.9099999999999999E-002    -6.0352577102573690E-011
   9.0200000000000002E-002    -1.1592492243917007E-010
   9.1300000000000006E-002    -1.6387387280492050E-010
   9.2399999999999996E-002    -1.8630687270704271E-010
   9.3500000000000000E-002    -1.6391739354748580E-010
   9.4600000000000004E-002    -8.0996147289180698E-011
   9.5700000000000007E-002     6.9274599945323700E-011
   9.6799999999999997E-002     2.8148841590969198E-010
   9.7900000000000001E-002     5.3798560051276922E-010
   9.9000000000000005E-002     8.1140055785411391E-010
  0.10010000000000001          1.0679764850252127E-009
  0.10120000000000000          1.2710602570464857E-009
  0.10230000000000000          1.3861147785121375E-009
  0.10340000000000001          1.3880598892512808E-009
  0.10450000000000001          1.2684674421947761E-009
  0.10560000000000000          1.0381405735060412E-009
  0.10670000000000000          7.2323108613048248E-010
  0.10780000000000001          3.5822428356979685E-010
  0.10890000000000001         -1.9009046073326097E-011
  0.11000000000000000         -3.6887273791030850E-010
  0.11110000000000000         -6.5197880427803057E-010
  0.11220000000000001         -8.3517720517178873E-010
  0.11330000000000000         -9.0023916099468693E-010
  0.11440000000000002         -8.5007506589462878E-010
  0.11550000000000001         -7.0842309796148584E-010
  0.11660000000000000         -5.1314752447240153E-010
  0.11770000000000001         -3.0645144755148124E-010
  0.11880000000000000         -1.2561551798739856E-010
  0.11989999999999999          3.1909930427176381E-012
  0.12100000000000001          6.7570983530718109E-011
  0.12210000000000000          6.9833264171315079E-011
  0.12320000000000002          2.7761144077986799E-011
  0.12430000000000001         -2.7540116021018690E-011
  0.12540000000000001         -6.2577144854802924E-011
  0.12650000000000003         -6.0734396678530089E-011
  0.12760000000000002         -3.6270000891569509E-011
  0.12870000000000001         -2.5936698969108996E-011
  0.12980000000000003         -5.8665253210854473E-011
  0.13090000000000002         -1.2837521323749712E-010
  0.13200000000000001         -1.9718994492823327E-010
  0.13310000000000002         -2.2765690721460174E-010
  0.13420000000000001         -2.1194958288450749E-010
  0.13530000000000003         -1.6922935275331952E-010
  0.13640000000000002         -1.1764415830395336E-010
  0.13750000000000001         -5.5007103039184102E-011
  0.13860000000000003          2.9573725413012397E-011
  0.13970000000000002          1.2730828891083235E-010
  0.14080000000000001          1.9875050216722201E-010
  0.14190000000000003          1.9750384661065823E-010
  0.14300000000000002          1.1115754844359671E-010
  0.14410000000000003         -1.7535336030438664E-011
  0.14520000000000002         -1.1419253043154498E-010
  0.14630000000000001         -1.3032348811226058E-010
  0.14740000000000003         -8.8938634235091740E-011
  0.14850000000000002         -6.9776573408120157E-011
  0.14960000000000001         -1.3253950714720020E-010
  0.15070000000000003         -2.4347726612639065E-010
  0.15180000000000002         -2.8721056088976127E-010
  0.15290000000000001         -1.7228485305054164E-010
  0.15400000000000003          6.5446051356055079E-011
  0.15510000000000002          2.7515306699754660E-010
  0.15620000000000003          3.2222108314883258E-010
  0.15730000000000002          2.1047882881042312E-010
  0.15840000000000001          6.6677052767971645E-011
  0.15950000000000003          1.7530746819482967E-012
  0.16060000000000002         -2.4147079735054033E-012
  0.16170000000000001         -5.7865396502210231E-011
  0.16280000000000003         -2.2369382735032417E-010
  0.16390000000000002         -4.0528666533923285E-010
  0.16500000000000001         -4.1511577508757114E-010
  0.16610000000000003         -1.5185498691838717E-010
  0.16720000000000002          2.6618512949383444E-010
  0.16830000000000003          5.5212889815692279E-010
  0.16940000000000002          4.7224835153514277E-010
  0.17050000000000001          6.2720460769494224E-011
  0.17160000000000003         -3.6489980481668738E-010
  0.17270000000000002         -4.7479531417593535E-010
  0.17380000000000001         -2.1262841487512674E-010
  0.17490000000000003          1.3323546432797428E-010
  0.17600000000000002          2.1114816839418182E-010
  0.17710000000000004         -2.8625974854423752E-011
  0.17820000000000003         -2.6789107043789784E-010
  0.17930000000000001         -1.5613664527958093E-010
  0.18040000000000003          2.8489396952657842E-010
  0.18150000000000002          6.2982447035508926E-010
  0.18260000000000001          4.6128736941319914E-010
  0.18370000000000003         -1.8011458990940810E-010
  0.18480000000000002         -7.7666134634668538E-010
  0.18590000000000001         -7.9192441493347587E-010
  0.18700000000000003         -1.7955097131316933E-010
  0.18810000000000002          5.4152993200773381E-010
  0.18920000000000003          7.3246453347053375E-010
  0.19030000000000002          2.1532547966884863E-010
  0.19140000000000001         -5.3250981402186426E-010
  0.19250000000000003         -7.7961748168320355E-010
  0.19360000000000002         -2.2245744135673817E-010
  0.19470000000000001          6.7169453332738271E-010
  0.19580000000000003          1.0442025022427970E-009
  0.19690000000000002          4.6687825827618212E-010
  0.19800000000000001         -5.7566934552610860E-010
  0.19910000000000003         -1.0896790136882828E-009
  0.20020000000000002         -5.4482052203042031E-010
  0.20130000000000003          5.4601828614053716E-010
  0.20240000000000002          1.0804748207249304E-009
  0.20350000000000001          4.5389692004960125E-010
  0.20460000000000003         -8.0309858763172315E-010
  0.20570000000000002         -1.4951632154591721E-009
  0.20680000000000001         -8.9487228738249769E-010
  0.20790000000000003          5.5364046680494994E-010
  0.20900000000000002          1.6177242878612219E-009
  0.21010000000000004          1.3783877372830489E-009
  0.21120000000000003          5.3883467132642693E-011
  0.21230000000000002         -1.1799269339363150E-009
  0.21340000000000003         -1.2263778881305143E-009
  0.21450000000000002         -7.3945412293330293E-011
  0.21560000000000001          1.1414165168588397E-009
  0.21670000000000003          1.1578522585153905E-009
  0.21780000000000002         -1.7571465116272833E-010
  0.21890000000000001         -1.6453395312865382E-009
  0.22000000000000003         -1.7680156227939392E-009
  0.22110000000000002         -2.6130772545762682E-010
  0.22220000000000004          1.5852060775145560E-009
  0.22330000000000003          2.0923895949209737E-009
  0.22440000000000002          8.0253204082225693E-010
  0.22550000000000003         -1.0802845284985096E-009
  0.22660000000000002         -1.8449017868960027E-009
  0.22770000000000001         -8.6477164318310429E-010
  0.22880000000000003          8.8707735601545323E-010
  0.22990000000000002          1.7910557481570777E-009
  0.23100000000000004          1.0378881087902414E-009
  0.23210000000000003         -7.0104794192005215E-010
  0.23320000000000002         -1.8899479758971438E-009
  0.23430000000000004         -1.4623887656384227E-009
  0.23540000000000003          2.3307908381120512E-010
  0.23650000000000002          1.6873413777318547E-009
  0.23760000000000003          1.5516040674512510E-009
  0.23870000000000002         -8.2752499297455984E-011
  0.23980000000000001         -1.6782552014760199E-009
  0.24090000000000000         -1.6640204769657885E-009
  0.24200000000000005          2.4162227774127132E-011
  0.24310000000000004          1.8312695804212353E-009
  0.24420000000000003          2.0705301917445240E-009
  0.24530000000000002          5.3106918862511066E-010
  0.24640000000000001         -1.3860609326954432E-009
  0.24750000000000005         -2.0456643046173895E-009
  0.24860000000000004         -1.0329999078351193E-009
  0.24970000000000003          6.3681648843072480E-010
  0.25080000000000002          1.5323275981415918E-009
  0.25190000000000001          9.9468822067905194E-010
  0.25300000000000000         -4.2789097265405474E-010
  0.25410000000000005         -1.4780916490764184E-009
  0.25520000000000004         -1.1933485311033110E-009
  0.25630000000000003          2.7640370547921123E-010
  0.25740000000000002          1.6956823722935610E-009
  0.25850000000000001          1.7562934440107369E-009
  0.25960000000000005          3.0823957275494251E-010
  0.26070000000000004         -1.3969366774446712E-009
  0.26180000000000003         -1.8417678493420908E-009
  0.26290000000000002         -6.9866373797466963E-010
  0.26400000000000001          8.9075602449639746E-010
  0.26510000000000000          1.4826236904852408E-009
  0.26620000000000005          6.8233235728243358E-010
  0.26730000000000004         -6.5304922580722291E-010
  0.26840000000000003         -1.3510845775499547E-009
  0.26950000000000002         -9.1362822862706139E-010
  0.27060000000000001          2.5173790829668974E-010
  0.27170000000000005          1.2559628892461205E-009
  0.27280000000000004          1.3337650983658023E-009
  0.27390000000000003          3.5585279167804629E-010
  0.27500000000000002         -9.6780528036077840E-010
  0.27610000000000001         -1.5107163298111459E-009
  0.27720000000000000         -7.0424949205616372E-010
  0.27830000000000005          7.8700040928580961E-010
  0.27940000000000004          1.5665737596037843E-009
  0.28050000000000003          8.7042062446585078E-010
  0.28160000000000002         -6.3246813342132668E-010
  0.28270000000000001         -1.5260777086467670E-009
  0.28380000000000005         -1.0709954034737734E-009
  0.28490000000000004          1.8030918425004927E-010
  0.28600000000000003          1.0929693816663644E-009
  0.28710000000000002          1.0308083275845092E-009
  0.28820000000000001          2.2070306693322550E-010
  0.28930000000000000         -6.4436711522120049E-010
  0.29040000000000005         -9.3308805126923744E-010
  0.29150000000000004         -4.0803960210666901E-010
  0.29260000000000003          5.8442267691916072E-010
  0.29370000000000002          1.2101689650378944E-009
  0.29480000000000001          7.7655520902553121E-010
  0.29590000000000005         -4.8857007328706459E-010
  0.29700000000000004         -1.4524593749953851E-009
  0.29810000000000003         -1.1587820702985141E-009
  0.29920000000000002          1.1743367389627224E-010
  0.30030000000000001          1.1235578023516268E-009
  0.30140000000000006          9.7457431014191798E-010
  0.30250000000000005          2.8989730754824805E-011
  0.30360000000000004         -6.6368505136082945E-010
  0.30470000000000003         -5.4609083921519641E-010
  0.30580000000000002          4.1637505943104003E-011
  0.30690000000000001          4.6928383401478868E-010
  0.30800000000000005          4.6933218422751111E-010
  0.30910000000000004          1.5221952864852284E-010
  0.31020000000000003         -2.7519331258218926E-010
  0.31130000000000002         -5.7457527624649174E-010
  0.31240000000000001         -4.7813869530344277E-010
  0.31350000000000006          4.2514138043348026E-011
  0.31460000000000005          5.4902982160598413E-010
  0.31570000000000004          4.9643505972696289E-010
