  -1.3200000000000002E-002     0.0000000000000000
  -1.2100000000000001E-002     0.0000000000000000
  -1.1000000000000001E-002     0.0000000000000000
  -9.9000000000000025E-003     0.0000000000000000
  -8.8000000000000023E-003     0.0000000000000000
  -7.7000000000000011E-003     4.3103213327523041E-019
  -6.6000000000000017E-003     1.8236695868591747E-018
  -5.5000000000000014E-003     9.6051261471953138E-018
  -4.4000000000000011E-003     5.0767280344433564E-017
  -3.3000000000000008E-003     1.4050286067522795E-016
  -2.2000000000000006E-003     3.8403506027193290E-018
  -1.1000000000000003E-003    -1.4207551498465949E-015
  -1.7347234759768071E-018    -4.2088224351283666E-015
   1.0999999999999985E-003     4.3487959002115606E-015
   2.1999999999999988E-003     6.4420033706307639E-014
   3.2999999999999991E-003     1.6470515001778402E-013
   4.3999999999999994E-003    -7.0801464734440711E-014
   5.4999999999999997E-003    -1.4267267922640769E-012
   6.6000000000000000E-003    -2.9602854455940131E-012
   7.7000000000000002E-003     2.2282059010392263E-012
   8.8000000000000005E-003     2.1904327310307004E-011
   9.9000000000000008E-003     3.3466601018217190E-011
   1.1000000000000001E-002    -4.1542887185830324E-011
   1.2100000000000001E-002    -2.3487070621719397E-010
   1.3199999999999998E-002    -2.6523033769265680E-010
   1.4299999999999998E-002     4.5843595586347874E-010
   1.5399999999999999E-002     1.8442849469835210E-009
   1.6500000000000001E-002     1.6646787281970887E-009
   1.7599999999999998E-002    -3.3119407216730679E-009
   1.8700000000000001E-002    -1.1183605153064491E-008
   1.9799999999999998E-002    -9.3834051639873906E-009
   2.0900000000000002E-002     1.6240386813137775E-008
   2.1999999999999999E-002     5.3953844059151379E-008
   2.3099999999999996E-002     4.9821842651454062E-008
   2.4199999999999999E-002    -5.0287738417864603E-008
   2.5299999999999996E-002    -2.0506483622284577E-007
   2.6400000000000000E-002    -2.3388194847484556E-007
   2.7499999999999997E-002     5.0437492404853401E-008
   2.8600000000000000E-002     5.7433322808719822E-007
   2.9699999999999997E-002     8.7842209950395045E-007
   3.0800000000000001E-002     4.0470951034876634E-007
   3.1899999999999998E-002    -9.1664662704715738E-007
   3.3000000000000002E-002    -2.3174497982836328E-006
   3.4099999999999998E-002    -2.5432605070818681E-006
   3.5200000000000002E-002    -7.4360366397741018E-007
   3.6299999999999999E-002     2.8047611522197258E-006
   3.7400000000000003E-002     6.6580851125763729E-006
   3.8500000000000000E-002     8.6722757259849459E-006
   3.9599999999999996E-002     6.5162685132236220E-006
   4.0700000000000000E-002    -1.7010481769830221E-006
   4.1799999999999997E-002    -1.6100968423415907E-005
   4.2900000000000001E-002    -3.2979685784084722E-005
   4.3999999999999997E-002    -4.3466843635542318E-005
   4.5100000000000001E-002    -3.5099012166028842E-005
   4.6199999999999998E-002     2.7530570605449611E-006
   4.7300000000000002E-002     7.1439346356783062E-005
   4.8399999999999999E-002     1.5766643628012389E-004
   4.9500000000000002E-002     2.3421610239893198E-004
   5.0600000000000006E-002     2.6796374004334211E-004
   5.1699999999999996E-002     2.3235916160047054E-004
   5.2800000000000000E-002     1.1872826871694997E-004
   5.3900000000000003E-002    -5.8621932112146169E-005
   5.5000000000000007E-002    -2.6467614225111902E-004
   5.6099999999999997E-002    -4.5086443424224854E-004
   5.7200000000000001E-002    -5.6465691886842251E-004
   5.8300000000000005E-002    -5.6210445472970605E-004
   5.9399999999999994E-002    -4.2422863771207631E-004
   6.0499999999999998E-002    -1.7244840273633599E-004
   6.1600000000000002E-002     1.2857171532232314E-004
   6.2700000000000006E-002     3.9005259168334305E-004
   6.3799999999999996E-002     5.3533987374976277E-004
   6.4899999999999999E-002     5.3302175365388393E-004
   6.6000000000000003E-002     4.0589153650216758E-004
   6.7100000000000007E-002     2.1174979337956756E-004
   6.8199999999999997E-002     1.2401251296978444E-005
   6.9300000000000000E-002    -1.4736127923242748E-004
   7.0400000000000004E-002    -2.4216923338826746E-004
   7.1500000000000008E-002    -2.5927866226993501E-004
   7.2599999999999998E-002    -1.9768414495047182E-004
   7.3700000000000002E-002    -7.7261931437533349E-005
   7.4800000000000005E-002     5.4440442909253761E-005
   7.5899999999999995E-002     1.3508976553566754E-004
   7.6999999999999999E-002     1.2254426837898791E-004
   7.8100000000000003E-002     2.9473470931407064E-005
   7.9200000000000007E-002    -7.5644304160960019E-005
   8.0299999999999996E-002    -1.1343071673763916E-004
   8.1400000000000000E-002    -5.5143445933936164E-005
   8.2500000000000004E-002     5.1965635066153482E-005
   8.3600000000000008E-002     1.2324321141932160E-004
   8.4699999999999998E-002     1.0897068568738177E-004
   8.5800000000000001E-002     3.4701708500506356E-005
   8.6900000000000005E-002    -2.8909082175232470E-005
   8.8000000000000009E-002    -3.7474412238225341E-005
   8.9099999999999999E-002    -1.4852231288386974E-005
   9.0200000000000002E-002    -2.3524265998275951E-005
   9.1300000000000006E-002    -9.2127440439071506E-005
   9.2399999999999996E-002    -1.7267564544454217E-004
   9.3500000000000000E-002    -1.7417513299733400E-004
   9.4600000000000004E-002    -4.8006972065195441E-005
   9.5700000000000007E-002     1.5147613885346800E-004
   9.6799999999999997E-002     2.9286625795066357E-004
   9.7900000000000001E-002     2.6917352806776762E-004
   9.9000000000000005E-002     9.2354865046218038E-005
  0.10010000000000001         -1.0686934547265992E-004
  0.10120000000000000         -1.8505215120967478E-004
  0.10230000000000000         -1.1002970859408379E-004
  0.10340000000000001          1.2351519217190798E-005
  0.10450000000000001          4.0772367356112227E-005
  0.10560000000000000         -6.2119346694089472E-005
  0.10670000000000000         -1.8825066217686981E-004
  0.10780000000000001         -1.8556507711764425E-004
  0.10890000000000001         -8.5053789007361047E-006
  0.11000000000000000          2.2613898909185082E-004
  0.11110000000000000          3.3313615131191909E-004
  0.11220000000000001          2.1871202625334263E-004
  0.11330000000000000         -3.5234519600635394E-005
  0.11440000000000002         -2.3506965953856707E-004
  0.11550000000000001         -2.3313083511311561E-004
  0.11660000000000000         -4.8492096539121121E-005
  0.11770000000000001          1.4942289271857589E-004
  0.11880000000000000          1.8405080481898040E-004
  0.11989999999999999          2.4755787308095023E-005
  0.12100000000000001         -1.8319879018235952E-004
  0.12210000000000000         -2.4524892796762288E-004
  0.12320000000000002         -9.3703492893837392E-005
  0.12430000000000001          1.4677451690658927E-004
  0.12540000000000001          2.6859011268243194E-004
  0.12650000000000003          1.6697501996532083E-004
  0.12760000000000002         -6.8008761445526034E-005
  0.12870000000000001         -2.3306069488171488E-004
  0.12980000000000003         -1.8722059030551463E-004
  0.13090000000000002          3.2928237487794831E-005
  0.13200000000000001          2.4713831953704357E-004
  0.13310000000000002          2.7635233709588647E-004
  0.13420000000000001          8.3043938502669334E-005
  0.13530000000000003         -1.9526286632753909E-004
  0.13640000000000002         -3.4539212356321514E-004
  0.13750000000000001         -2.4426088202744722E-004
  0.13860000000000003          3.4134514862671494E-005
  0.13970000000000002          2.6759863249026239E-004
  0.14080000000000001          2.6685508782975376E-004
  0.14190000000000003          4.0279450331581756E-005
  0.14300000000000002         -2.0870346634183079E-004
  0.14410000000000003         -2.5734741939231753E-004
  0.14520000000000002         -5.7411318266531453E-005
  0.14630000000000001          2.2430835815612227E-004
  0.14740000000000003          3.4826260525733232E-004
  0.14850000000000002          1.9970499852206558E-004
  0.14960000000000001         -1.1900077515747398E-004
  0.15070000000000003         -3.6622566403821111E-004
  0.15180000000000002         -3.4645796404220164E-004
  0.15290000000000001         -6.7541426687967032E-005
  0.15400000000000003          2.5220570387318730E-004
  0.15510000000000002          3.5009754355996847E-004
  0.15620000000000003          1.4148077752906829E-004
  0.15730000000000002         -1.9254226936027408E-004
  0.15840000000000001         -3.5156347439624369E-004
  0.15950000000000003         -1.8380247638560832E-004
  0.16060000000000002          1.7006782582029700E-004
  0.16170000000000001          3.9973348611965775E-004
  0.16280000000000003          3.0309957219287753E-004
  0.16390000000000002         -3.9415590435964987E-005
  0.16500000000000001         -3.4481182228773832E-004
  0.16610000000000003         -3.7239104858599603E-004
  0.16720000000000002         -1.1390503641450778E-004
  0.16830000000000003          2.1492132509592921E-004
  0.16940000000000002          3.5254209069535136E-004
  0.17050000000000001          1.9442377379164100E-004
  0.17160000000000003         -1.2676708865910769E-004
  0.17270000000000002         -3.4427142236381769E-004
  0.17380000000000001         -2.7388695161789656E-004
  0.17490000000000003          2.6987752789864317E-005
  0.17600000000000002          3.0381651595234871E-004
  0.17710000000000004          3.2739105517975986E-004
  0.17820000000000003          9.4092392828315496E-005
  0.17930000000000001         -1.8404630827717483E-004
  0.18040000000000003         -2.8092687716707587E-004
  0.18150000000000002         -1.4684066991321743E-004
  0.18260000000000001          8.0640769738238305E-005
  0.18370000000000003          2.1864500013180077E-004
  0.18480000000000002          1.7938730888999999E-004
  0.18590000000000001          6.1884029491920955E-006
  0.18700000000000003         -1.7739881877787411E-004
  0.18810000000000002         -2.4540090817026794E-004
  0.18920000000000003         -1.4305034710559994E-004
  0.19030000000000002          6.8190267484169453E-005
  0.19140000000000001          2.3825728567317128E-004
  0.19250000000000003          2.3797585163265467E-004
  0.19360000000000002          6.9209854700602591E-005
  0.19470000000000001         -1.3338202552404255E-004
  0.19580000000000003         -2.1780630049761385E-004
  0.19690000000000002         -1.3557595957536250E-004
  0.19800000000000001          3.8326274079736322E-005
  0.19910000000000003          1.7791040590964258E-004
  0.20020000000000002          1.8914350948762149E-004
  0.20130000000000003          5.6349410442635417E-005
  0.20240000000000002         -1.4343560906127095E-004
  0.20350000000000001         -2.6684161275625229E-004
  0.20460000000000003         -1.9598825019784272E-004
  0.20570000000000002          4.5801651140209287E-005
  0.20680000000000001          2.7524217148311436E-004
  0.20790000000000003          2.9155882657505572E-004
  0.20900000000000002          6.7464556195773184E-005
  0.21010000000000004         -2.0962365670129657E-004
  0.21120000000000003         -3.0367664294317365E-004
  0.21230000000000002         -1.4152523363009095E-004
  0.21340000000000003          1.3405717618297786E-004
  0.21450000000000002          2.9980213730596006E-004
  0.21560000000000001          2.3118878016248345E-004
  0.21670000000000003         -1.8781895050778985E-005
  0.21780000000000002         -2.6812945725396276E-004
  0.21890000000000001         -3.2865433604456484E-004
  0.22000000000000003         -1.3804117043036968E-004
  0.22110000000000002          1.7386126273777336E-004
  0.22220000000000004          3.5927756107412279E-004
  0.22330000000000003          2.5141949299722910E-004
  0.22440000000000002         -7.1750204369891435E-005
  0.22550000000000003         -3.3521195291541517E-004
  0.22660000000000002         -3.0982343014329672E-004
  0.22770000000000001         -2.1409483451861888E-005
  0.22880000000000003          2.7990574017167091E-004
  0.22990000000000002          3.4942544880323112E-004
  0.23100000000000004          1.4710544201079756E-004
  0.23210000000000003         -1.5801630797795951E-004
  0.23320000000000002         -3.3836992224678397E-004
  0.23430000000000004         -2.6844811509363353E-004
  0.23540000000000003          5.6010270554907038E-007
  0.23650000000000002          2.7240478084422648E-004
  0.23760000000000003          3.3314284519292414E-004
  0.23870000000000002          1.1863117106258869E-004
  0.23980000000000001         -2.0605961617548019E-004
  0.24090000000000000         -3.6333003663457930E-004
  0.24200000000000005         -2.0845790277235210E-004
  0.24310000000000004          1.2681575026363134E-004
  0.24420000000000003          3.5069309524260461E-004
  0.24530000000000002          2.8000891325064003E-004
  0.24640000000000001         -6.0266356740612537E-006
  0.24750000000000005         -2.6173249352723360E-004
  0.24860000000000004         -2.9678677674382925E-004
  0.24970000000000003         -1.1042334517696872E-004
  0.25080000000000002          1.4211227244231850E-004
  0.25190000000000001          2.7584307827055454E-004
  0.25300000000000000          1.9592352327890694E-004
  0.25410000000000005         -4.0240265661850572E-005
  0.25520000000000004         -2.5130782159976661E-004
  0.25630000000000003         -2.6159771368838847E-004
  0.25740000000000002         -5.4979791457299143E-005
  0.25850000000000001          1.9425687787588686E-004
  0.25960000000000005          2.7313036844134331E-004
  0.26070000000000004          1.2799579417333007E-004
  0.26180000000000003         -9.5742376288399100E-005
  0.26290000000000002         -2.0802105427719653E-004
  0.26400000000000001         -1.4714714779984206E-004
  0.26510000000000000          1.1276966915829689E-006
  0.26620000000000005          1.1655832349788398E-004
  0.26730000000000004          1.3996529742144048E-004
  0.26840000000000003          7.7058437454979867E-005
  0.26950000000000002         -3.3407406590413302E-005
  0.27060000000000001         -1.2945011258125305E-004
  0.27170000000000005         -1.4128943439573050E-004
  0.27280000000000004         -4.6127504901960492E-005
  0.27390000000000003          8.9715613285079598E-005
  0.27500000000000002          1.5584543871227652E-004
  0.27610000000000001          1.0096777259605005E-004
  0.27720000000000000         -2.1056672267150134E-005
  0.27830000000000005         -1.1246377107454464E-004
  0.27940000000000004         -1.1995532986475155E-004
  0.28050000000000003         -5.5038013670127839E-005
  0.28160000000000002          4.2237825255142525E-005
  0.28270000000000001          1.2454355601221323E-004
  0.28380000000000005          1.3595067139249295E-004
  0.28490000000000004          4.2414641939103603E-005
  0.28600000000000003         -1.0938736522803083E-004
  0.28710000000000002         -1.9520893692970276E-004
  0.28820000000000001         -1.2164463987573981E-004
  0.28930000000000000          6.3418839999940246E-005
  0.29040000000000005          1.9852429977618158E-004
  0.29150000000000004          1.6329252684954554E-004
  0.29260000000000003         -5.6901280913734809E-006
  0.29370000000000002         -1.5907773922663182E-004
  0.29480000000000001         -1.7738158931024373E-004
  0.29590000000000005         -6.0593360103666782E-005
  0.29700000000000004          9.6754753030836582E-005
  0.29810000000000003          1.8480872677173465E-004
  0.29920000000000002          1.4191692753229290E-004
  0.30030000000000001         -1.0820120223797858E-005
  0.30140000000000006         -1.6851277905516326E-004
  0.30250000000000005         -2.0301622862461954E-004
  0.30360000000000004         -7.1855058195069432E-005
  0.30470000000000003          1.2276125198695809E-004
  0.30580000000000002          2.1176628069952130E-004
  0.30690000000000001          1.1783449735958129E-004
  0.30800000000000005         -6.9329478719737381E-005
  0.30910000000000004         -1.8397513485979289E-004
  0.31020000000000003         -1.4083991118241102E-004
  0.31130000000000002          4.8008532758103684E-006
  0.31240000000000001          1.3094682071823627E-004
  0.31350000000000006          1.5452082152478397E-004
  0.31460000000000005          7.2894181357696652E-005
  0.31570000000000004         -5.5522457842016593E-005
