  -1.3200000000000002E-002     0.0000000000000000
  -1.2100000000000001E-002     0.0000000000000000
  -1.1000000000000001E-002     0.0000000000000000
  -9.9000000000000025E-003     0.0000000000000000
  -8.8000000000000023E-003     0.0000000000000000
  -7.7000000000000011E-003     0.0000000000000000
  -6.6000000000000017E-003     0.0000000000000000
  -5.5000000000000014E-003     0.0000000000000000
  -4.4000000000000011E-003     0.0000000000000000
  -3.3000000000000008E-003     0.0000000000000000
  -2.2000000000000006E-003     0.0000000000000000
  -1.1000000000000003E-003     0.0000000000000000
  -1.7347234759768071E-018     0.0000000000000000
   1.0999999999999985E-003     0.0000000000000000
   2.1999999999999988E-003     0.0000000000000000
   3.2999999999999991E-003     0.0000000000000000
   4.3999999999999994E-003     0.0000000000000000
   5.4999999999999997E-003     0.0000000000000000
   6.6000000000000000E-003     0.0000000000000000
   7.7000000000000002E-003     0.0000000000000000
   8.8000000000000005E-003     0.0000000000000000
   9.9000000000000008E-003     0.0000000000000000
   1.1000000000000001E-002     0.0000000000000000
   1.2100000000000001E-002    -8.7753396874331482E-035
   1.3199999999999998E-002    -2.3302940317628525E-034
   1.4299999999999998E-002     1.2911332402424454E-033
   1.5399999999999999E-002     5.0616926336361860E-033
   1.6500000000000001E-002    -6.4880580500750891E-033
   1.7599999999999998E-002    -7.3756069781397954E-032
   1.8700000000000001E-002    -7.4487650445575712E-032
   1.9799999999999998E-002     6.8967556010484319E-031
   2.0900000000000002E-002     2.1195349924422434E-030
   2.1999999999999999E-002    -3.2403786360642934E-030
   2.3099999999999996E-002    -2.6263729104941987E-029
   2.4199999999999999E-002    -1.4357061437553393E-029
   2.5299999999999996E-002     2.0440200241160406E-028
   2.6400000000000000E-002     4.4192634059977423E-028
   2.7499999999999997E-002    -9.0254932021016809E-028
   2.8600000000000000E-002    -4.6406853568845068E-027
   2.9699999999999997E-002    -6.5098314716809210E-028
   3.0800000000000001E-002     3.0129941384773897E-026
   3.1899999999999998E-002     4.8714632250702117E-026
   3.3000000000000002E-002    -1.1326053190378375E-025
   3.4099999999999998E-002    -4.5218576979871103E-025
   3.5200000000000002E-002    -1.7837872241021203E-026
   3.6299999999999999E-002     2.4352522686016193E-024
   3.7400000000000003E-002     3.6218757748967905E-024
   3.8500000000000000E-002    -7.0907701210267859E-024
   3.9599999999999996E-002    -2.7975418458063434E-023
   4.0700000000000000E-002    -6.8593167537131306E-024
   4.1799999999999997E-002     1.1838092292385772E-022
   4.2900000000000001E-002     2.0165538986371821E-022
   4.3999999999999997E-002    -2.1910168618229231E-022
   4.5100000000000001E-002    -1.1624301899393250E-021
   4.6199999999999998E-002    -7.9188871745831833E-022
   4.7300000000000002E-002     3.4587478909492979E-021
   4.8399999999999999E-002     8.0798953766565727E-021
   4.9500000000000002E-002    -1.2496172681295624E-021
   5.0600000000000006E-002    -3.1426126278666719E-020
   5.1699999999999996E-002    -4.1373738932918342E-020
   5.2800000000000000E-002     4.9146642057979771E-020
   5.3900000000000003E-002     2.1275930630052324E-019
   5.5000000000000007E-002     1.4837248507288762E-019
   5.6099999999999997E-002    -4.7345693442336809E-019
   5.7200000000000001E-002    -1.1673202789645532E-018
   5.8300000000000005E-002    -2.4899666721979356E-019
   5.9399999999999994E-002     3.1782746200464263E-018
   6.0499999999999998E-002     5.4374746517494714E-018
   6.1600000000000002E-002    -1.1926273528177302E-018
   6.2700000000000006E-002    -1.7250438084487116E-017
   6.3799999999999996E-002    -2.2315883706247494E-017
   6.4899999999999999E-002     1.3857223270605776E-017
   6.6000000000000003E-002     8.0354078326299721E-017
   6.7100000000000007E-002     8.3892637872793366E-017
   6.8199999999999997E-002    -8.0453922334957321E-017
   6.9300000000000000E-002    -3.3189887542306288E-016
   7.0400000000000004E-002    -3.0185003751208176E-016
   7.1500000000000008E-002     3.4557716050201935E-016
   7.2599999999999998E-002     1.2385217287172261E-015
   7.3700000000000002E-002     1.0814790674392003E-015
   7.4800000000000005E-002    -1.1676986570193339E-015
   7.5899999999999995E-002    -4.2029275093319503E-015
   7.6999999999999999E-002    -3.9148952261675463E-015
   7.8100000000000003E-002     2.9661194341461380E-015
   7.9200000000000007E-002     1.2863423501830069E-014
   8.0299999999999996E-002     1.4008267304108351E-014
   8.1400000000000000E-002    -4.0425837489002376E-015
   8.2500000000000004E-002    -3.4411719757347289E-014
   8.3600000000000008E-002    -4.7278915943924429E-014
   8.4699999999999998E-002    -9.9933667095067520E-015
   8.5800000000000001E-002     7.4050534042309490E-014
   8.6900000000000005E-002     1.4200312204327298E-013
   8.8000000000000009E-002     1.0036032606092898E-013
   8.9099999999999999E-002    -9.3536933569709352E-014
   9.0200000000000002E-002    -3.4997303449343931E-013
   9.1300000000000006E-002    -4.4422609037433891E-013
   9.2399999999999996E-002    -1.4173170558191839E-013
   9.3500000000000000E-002     5.8023827713069021E-013
   9.4600000000000004E-002     1.3426475643091296E-012
   9.5700000000000007E-002     1.3993670588616225E-012
   9.6799999999999997E-002     5.1665740235335919E-014
   9.7900000000000001E-002    -2.6148965805161684E-012
   9.9000000000000005E-002    -5.0999035723642283E-012
  0.10010000000000001         -4.6982864647382439E-012
  0.10120000000000000          8.7925359267687631E-013
  0.10230000000000000          1.0825818540227683E-011
  0.10340000000000001          1.9240747883841891E-011
  0.10450000000000001          1.6397693966552218E-011
  0.10560000000000000         -5.1527241674842461E-012
  0.10670000000000000         -4.1440368497847047E-011
  0.10780000000000001         -7.1029633563757244E-011
  0.10890000000000001         -6.0222930808873087E-011
  0.11000000000000000          1.6228471691470681E-011
  0.11110000000000000          1.4529372149851838E-010
  0.11220000000000001          2.5597646224895243E-010
  0.11330000000000000          2.3462570775123481E-010
  0.11440000000000002         -1.1284815096268552E-011
  0.11550000000000001         -4.5787734714863859E-010
  0.11660000000000000         -8.9291174454331212E-010
  0.11770000000000001         -9.4265328876019794E-010
  0.11880000000000000         -2.4938184850498146E-010
  0.11989999999999999          1.2287231232477325E-009
  0.12100000000000001          2.9386391098285003E-009
  0.12210000000000000          3.7060048363457554E-009
  0.12320000000000002          2.1685617745959007E-009
  0.12430000000000001         -2.3209745236840718E-009
  0.12540000000000001         -8.6591551706760583E-009
  0.12650000000000003         -1.3498744344531133E-008
  0.12760000000000002         -1.2050346498426734E-008
  0.12870000000000001         -5.1307103010600486E-010
  0.12980000000000003          2.0466021766196718E-008
  0.13090000000000002          4.3029782403891659E-008
  0.13200000000000001          5.2433019703812533E-008
  0.13310000000000002          3.2301365138209803E-008
  0.13420000000000001         -2.5421901028721550E-008
  0.13530000000000003         -1.0932502192417815E-007
  0.13640000000000002         -1.8263295942233526E-007
  0.13750000000000001         -1.8971361726016767E-007
  0.13860000000000003         -7.8771911660169280E-008
  0.13970000000000002          1.6316037942942785E-007
  0.14080000000000001          4.7665332658652915E-007
  0.14190000000000003          7.1875808771437733E-007
  0.14300000000000002          6.9448662998183863E-007
  0.14410000000000003          2.3797397830094269E-007
  0.14520000000000002         -6.7391317770670867E-007
  0.14630000000000001         -1.8205734022558318E-006
  0.14740000000000003         -2.7119826881971676E-006
  0.14850000000000002         -2.6938935206999304E-006
  0.14960000000000001         -1.1992277677563834E-006
  0.15070000000000003          1.9069949530603481E-006
  0.15180000000000002          6.0154156926728319E-006
  0.15290000000000001          9.6638232207624242E-006
  0.15400000000000003          1.0784761798277032E-005
  0.15510000000000002          7.3621517913124990E-006
  0.15620000000000003         -1.6170156413863879E-006
  0.15730000000000002         -1.5212493963190354E-005
  0.15840000000000001         -2.9999437174410559E-005
  0.15950000000000003         -4.0355287637794390E-005
  0.16060000000000002         -3.9764607208780944E-005
  0.16170000000000001         -2.2987773263594136E-005
  0.16280000000000003          1.1468434422567952E-005
  0.16390000000000002          5.9442358178785071E-005
  0.16500000000000001          1.1067745799664408E-004
  0.16610000000000003          1.5044522297102958E-004
  0.16720000000000002          1.6319917631335557E-004
  0.16830000000000003          1.3745481555815786E-004
  0.16940000000000002          7.0448913902509958E-005
  0.17050000000000001         -2.9102682674420066E-005
  0.17160000000000003         -1.4148012269288301E-004
  0.17270000000000002         -2.4008733453229070E-004
  0.17380000000000001         -2.9842584626749158E-004
  0.17490000000000003         -2.9798169271089137E-004
  0.17600000000000002         -2.3450615117326379E-004
  0.17710000000000004         -1.2042516027577221E-004
  0.17820000000000003          1.7777740140445530E-005
  0.17930000000000001          1.4671731332782656E-004
  0.18040000000000003          2.3570132907480001E-004
  0.18150000000000002          2.6568703469820321E-004
  0.18260000000000001          2.3460658849216998E-004
  0.18370000000000003          1.5724469267297536E-004
  0.18480000000000002          5.9725462051574141E-005
  0.18590000000000001         -2.9412300136755221E-005
  0.18700000000000003         -8.8367291027680039E-005
  0.18810000000000002         -1.0821951582329348E-004
  0.18920000000000003         -9.4019749667495489E-005
  0.19030000000000002         -6.0738835600204766E-005
  0.19140000000000001         -2.5982220904552378E-005
  0.19250000000000003         -2.5842882678261958E-006
  0.19360000000000002          5.8744635680341162E-006
  0.19470000000000001          4.9289619710179977E-006
  0.19580000000000003          4.8216452341875993E-006
  0.19690000000000002          1.4058927263249643E-005
  0.19800000000000001          3.4049397072521970E-005
  0.19910000000000003          5.7431079767411575E-005
  0.20020000000000002          7.1009788371156901E-005
  0.20130000000000003          6.2108592828735709E-005
  0.20240000000000002          2.5508226826786995E-005
  0.20350000000000001         -3.2265455956803635E-005
  0.20460000000000003         -9.3556729552801698E-005
  0.20570000000000002         -1.3533546007238328E-004
  0.20680000000000001         -1.3810064410790801E-004
  0.20790000000000003         -9.4420778623316437E-005
  0.20900000000000002         -1.3464783478411846E-005
  0.21010000000000004          8.0714584328234196E-005
  0.21120000000000003          1.5693303430452943E-004
  0.21230000000000002          1.8794041534420103E-004
  0.21340000000000003          1.6059288464020938E-004
  0.21450000000000002          8.1155798397958279E-005
  0.21560000000000001         -2.6359013645560481E-005
  0.21670000000000003         -1.2820100528188050E-004
  0.21780000000000002         -1.9223151321057230E-004
  0.21890000000000001         -1.9852026889566332E-004
  0.22000000000000003         -1.4559322153218091E-004
  0.22110000000000002         -5.0451104470994323E-005
  0.22220000000000004          5.7347679103258997E-005
  0.22330000000000003          1.4536455273628235E-004
  0.22440000000000002          1.8846342572942376E-004
  0.22550000000000003          1.7620675498619676E-004
  0.22660000000000002          1.1518884275574237E-004
  0.22770000000000001          2.5821849703788757E-005
  0.22880000000000003         -6.4942556491587311E-005
  0.22990000000000002         -1.3213539205025882E-004
  0.23100000000000004         -1.5959786833263934E-004
  0.23210000000000003         -1.4328127144835889E-004
  0.23320000000000002         -9.0809844550676644E-005
  0.23430000000000004         -1.8318509319215082E-005
  0.23540000000000003          5.4112508223624900E-005
  0.23650000000000002          1.0744554310804233E-004
  0.23760000000000003          1.2841117859352380E-004
  0.23870000000000002          1.1310714035062119E-004
  0.23980000000000001          6.8256420490797609E-005
  0.24090000000000000          9.1362326202215627E-006
  0.24200000000000005         -4.5604792830999941E-005
  0.24310000000000004         -8.0399644502904266E-005
  0.24420000000000003         -8.7761327449698001E-005
  0.24530000000000002         -6.9785084633622319E-005
  0.24640000000000001         -3.5992899938719347E-005
  0.24750000000000005          9.0206901859346544E-007
  0.24860000000000004          2.9280847229529172E-005
  0.24970000000000003          4.1748327930690721E-005
  0.25080000000000002          3.6903624277329072E-005
  0.25190000000000001          1.9731141946977004E-005
  0.25300000000000000          1.1922037401745911E-007
  0.25410000000000005         -1.0980033948726486E-005
  0.25520000000000004         -6.9506545514741447E-006
  0.25630000000000003          1.0173668670176994E-005
  0.25740000000000002          2.9668848583241925E-005
  0.25850000000000001          3.7510890251724049E-005
  0.25960000000000005          2.4667397156008519E-005
  0.26070000000000004         -6.8188751356501598E-006
  0.26180000000000003         -4.4133863411843777E-005
  0.26290000000000002         -7.0395704824477434E-005
  0.26400000000000001         -7.3425762820988894E-005
  0.26510000000000000         -5.1151873776689172E-005
  0.26620000000000005         -1.1126065146527253E-005
  0.26730000000000004          3.4029333619400859E-005
  0.26840000000000003          7.1375310653820634E-005
  0.26950000000000002          9.0331130195409060E-005
  0.27060000000000001          8.4086452261544764E-005
  0.27170000000000005          5.1692699344130233E-005
  0.27280000000000004          7.1362609332936700E-007
  0.27390000000000003         -5.2536932344082743E-005
  0.27500000000000002         -8.8112290541175753E-005
  0.27610000000000001         -9.1918947873637080E-005
  0.27720000000000000         -6.3922576373443007E-005
  0.27830000000000005         -1.8724875189946033E-005
  0.27940000000000004          2.2935584638617001E-005
  0.28050000000000003          4.6240271331043914E-005
  0.28160000000000002          4.9331156333209947E-005
  0.28270000000000001          4.0659393562236801E-005
  0.28380000000000005          2.9807521059410647E-005
  0.28490000000000004          2.0011069864267483E-005
  0.28600000000000003          8.4029825302422978E-006
  0.28710000000000002         -7.4456879701756407E-006
  0.28820000000000001         -2.3946207875269465E-005
  0.28930000000000000         -3.2908017601585016E-005
  0.29040000000000005         -2.8869691959698685E-005
  0.29150000000000004         -1.5093288311618380E-005
  0.29260000000000003         -1.8208885421699961E-006
  0.29370000000000002          2.3124198378354777E-006
  0.29480000000000001         -2.0408406271599233E-006
  0.29590000000000005         -5.6096569096553139E-006
  0.29700000000000004          5.6767129308354924E-007
  0.29810000000000003          1.5934760085656308E-005
  0.29920000000000002          2.9656690458068624E-005
  0.30030000000000001          2.9616912797791883E-005
  0.30140000000000006          1.3464544281305280E-005
  0.30250000000000005         -8.3151599028497003E-006
  0.30360000000000004         -2.0561088604154065E-005
  0.30470000000000003         -1.6066862372099422E-005
  0.30580000000000002         -1.6552316992601845E-006
  0.30690000000000001          7.8201192081905901E-006
  0.30800000000000005          2.4882119760150090E-006
  0.30910000000000004         -1.3828751434630249E-005
  0.31020000000000003         -2.6825040549738333E-005
  0.31130000000000002         -2.4028826373978518E-005
  0.31240000000000001         -5.4978650041448418E-006
  0.31350000000000006          1.6284702724078670E-005
  0.31460000000000005          2.6988895115209743E-005
  0.31570000000000004          2.2162081222631969E-005
