  -1.3200000000000002E-002     0.0000000000000000
  -1.2100000000000001E-002     0.0000000000000000
  -1.1000000000000001E-002     0.0000000000000000
  -9.9000000000000025E-003     0.0000000000000000
  -8.8000000000000023E-003     4.3978400607696502E-017
  -7.7000000000000011E-003     2.9542889249718372E-016
  -6.6000000000000017E-003     1.9081843886296999E-015
  -5.5000000000000014E-003     1.0825927251824265E-014
  -4.4000000000000011E-003     4.5485425322067119E-014
  -3.3000000000000008E-003     1.3298600231009122E-013
  -2.2000000000000006E-003     2.2176023224771552E-013
  -1.1000000000000003E-003    -6.8058094424873483E-014
  -1.7347234759768071E-018    -1.4339823816225672E-012
   1.0999999999999985E-003    -3.1139815118846892E-012
   2.1999999999999988E-003     5.3823801969207774E-013
   3.2999999999999991E-003     1.5779145351446644E-011
   4.3999999999999994E-003     2.5049245663821829E-011
   5.4999999999999997E-003    -2.6579799125570069E-011
   6.6000000000000000E-003    -1.4172285567326526E-010
   7.7000000000000002E-003    -1.0945967049424965E-010
   8.8000000000000005E-003     3.4091593437146628E-010
   9.9000000000000008E-003     8.2149526070551815E-010
   1.1000000000000001E-002     5.4015146522257140E-011
   1.2100000000000001E-002    -2.2105735020261363E-009
   1.3199999999999998E-002    -2.7795066248614830E-009
   1.4299999999999998E-002     2.0731549810193428E-009
   1.5399999999999999E-002     8.1923134942485376E-009
   1.6500000000000001E-002     3.6484180121476584E-009
   1.7599999999999998E-002    -1.2219653733325231E-008
   1.8700000000000001E-002    -1.5128934549579753E-008
   1.9799999999999998E-002     1.3320855529741493E-008
   2.0900000000000002E-002     3.5841804191250048E-008
   2.1999999999999999E-002    -1.0870862432454942E-008
   2.3099999999999996E-002    -9.3273499146562244E-008
   2.4199999999999999E-002    -5.3374414221707411E-008
   2.5299999999999996E-002     1.6564897009629931E-007
   2.6400000000000000E-002     2.9259192046993121E-007
   2.7499999999999997E-002    -1.9486002145185921E-008
   2.8600000000000000E-002    -5.7150600696331821E-007
   2.9699999999999997E-002    -5.6844947948775371E-007
   3.0800000000000001E-002     3.4628183698259818E-007
   3.1899999999999998E-002     1.1815758398370235E-006
   3.3000000000000002E-002     5.5745147164998343E-007
   3.4099999999999998E-002    -1.1240914545851410E-006
   3.5200000000000002E-002    -1.5112332221178804E-006
   3.6299999999999999E-002     5.4872464261279674E-007
   3.7400000000000003E-002     2.4637015485495795E-006
   3.8500000000000000E-002     6.9471172992052743E-007
   3.9599999999999996E-002    -3.5121920518577099E-006
   4.0700000000000000E-002    -4.0413751776213758E-006
   4.1799999999999997E-002     1.9222313767386368E-006
   4.2900000000000001E-002     7.7746781244059093E-006
   4.3999999999999997E-002     4.3883137550437823E-006
   4.5100000000000001E-002    -6.3567713368684053E-006
   4.6199999999999998E-002    -1.0806682439579163E-005
   4.7300000000000002E-002    -8.5346744072012370E-007
   4.8399999999999999E-002     1.2284613148949575E-005
   4.9500000000000002E-002     9.9979824881302193E-006
   5.0600000000000006E-002    -7.8015045801294036E-006
   5.1699999999999996E-002    -1.8569278836366720E-005
   5.2800000000000000E-002    -5.4053220992500428E-006
   5.3900000000000003E-002     1.7860285879578441E-005
   5.5000000000000007E-002     2.1552430553128943E-005
   5.6099999999999997E-002    -1.0220607009614469E-006
   5.7200000000000001E-002    -2.2936064851819538E-005
   5.8300000000000005E-002    -1.7810683857533149E-005
   5.9399999999999994E-002     6.3808147388044745E-006
   6.0499999999999998E-002     1.9451792468316853E-005
   6.1600000000000002E-002     8.8466249508201145E-006
   6.2700000000000006E-002    -7.9281371654360555E-006
   6.3799999999999996E-002    -1.1024511877621990E-005
   6.4899999999999999E-002    -2.0273182599339634E-006
   6.6000000000000003E-002     7.0141741161933169E-006
   6.7100000000000007E-002     1.2595833140949253E-005
   6.8199999999999997E-002     1.3526376278605312E-005
   6.9300000000000000E-002    -1.0767776075226720E-006
   7.0400000000000004E-002    -3.3557389542693272E-005
   7.1500000000000008E-002    -5.2135677833575755E-005
   7.2599999999999998E-002    -1.6551304724998772E-005
   7.3700000000000002E-002     5.7051136536756530E-005
   7.4800000000000005E-002     8.8502594735473394E-005
   7.5899999999999995E-002     2.5777453629416414E-005
   7.6999999999999999E-002    -7.0483889430761337E-005
   7.8100000000000003E-002    -8.2714104792103171E-005
   7.9200000000000007E-002     1.2917623280372936E-005
   8.0299999999999996E-002     9.8075965070165694E-005
   8.1400000000000000E-002     5.2550294640241191E-005
   8.2500000000000004E-002    -8.4998915554024279E-005
   8.3600000000000008E-002    -1.5143654309213161E-004
   8.4699999999999998E-002    -5.6333072279812768E-005
   8.5800000000000001E-002     1.0721295984694734E-004
   8.6900000000000005E-002     1.7425275291316211E-004
   8.8000000000000009E-002     9.1884663561359048E-005
   8.9099999999999999E-002    -4.6386456233449280E-005
   9.0200000000000002E-002    -1.2214556045364588E-004
   9.1300000000000006E-002    -9.6476403996348381E-005
   9.2399999999999996E-002    -5.5787440942367539E-006
   9.3500000000000000E-002     8.2013815699610859E-005
   9.4600000000000004E-002     8.8390930613968521E-005
   9.5700000000000007E-002    -2.3580134438816458E-005
   9.6799999999999997E-002    -1.7001423111651093E-004
   9.7900000000000001E-002    -1.7077170195989311E-004
   9.9000000000000005E-002     5.2932697144569829E-005
  0.10010000000000001          3.1573337037116289E-004
  0.10120000000000000          3.1306178425438702E-004
  0.10230000000000000         -1.6148342183441855E-005
  0.10340000000000001         -3.5435825702734292E-004
  0.10450000000000001         -3.3436354715377092E-004
  0.10560000000000000          2.4075607143458910E-005
  0.10670000000000000          3.1755509553477168E-004
  0.10780000000000001          2.2377975983545184E-004
  0.10890000000000001         -1.3355449482332915E-004
  0.11000000000000000         -3.4965449594892561E-004
  0.11110000000000000         -1.9987714767921716E-004
  0.11220000000000001          1.5490314399357885E-004
  0.11330000000000000          3.8792545092292130E-004
  0.11440000000000002          3.2177532557398081E-004
  0.11550000000000001          2.2227535737329163E-005
  0.11660000000000000         -2.9736847500316799E-004
  0.11770000000000001         -4.0262265247292817E-004
  0.11880000000000000         -1.7998855037149042E-004
  0.11989999999999999          2.1713605383411050E-004
  0.12100000000000001          4.1169722680933774E-004
  0.12210000000000000          1.5433077351190150E-004
  0.12320000000000002         -3.3248285762965679E-004
  0.12430000000000001         -5.0634192302823067E-004
  0.12540000000000001         -1.0819111776072532E-004
  0.12650000000000003          4.7804621863178909E-004
  0.12760000000000002          6.1685533728450537E-004
  0.12870000000000001          1.4909765741322190E-004
  0.12980000000000003         -4.2478679097257555E-004
  0.13090000000000002         -5.2828533807769418E-004
  0.13200000000000001         -1.3503833906725049E-004
  0.13310000000000002          2.8562764055095613E-004
  0.13420000000000001          3.3974336110986769E-004
  0.13530000000000003          6.8666602601297200E-005
  0.13640000000000002         -2.2102087677922100E-004
  0.13750000000000001         -3.0138037982396781E-004
  0.13860000000000003         -1.4411103620659560E-004
  0.13970000000000002          1.4114730583969504E-004
  0.14080000000000001          3.5754434065893292E-004
  0.14190000000000003          3.0317829805426300E-004
  0.14300000000000002         -2.8252374249859713E-005
  0.14410000000000003         -3.4216331550851464E-004
  0.14520000000000002         -3.0203288770280778E-004
  0.14630000000000001          5.6808432418620214E-005
  0.14740000000000003          3.1305733136832714E-004
  0.14850000000000002          1.5800351684447378E-004
  0.14960000000000001         -2.0422742818482220E-004
  0.15070000000000003         -3.0908104963600636E-004
  0.15180000000000002         -3.0862353014526889E-005
  0.15290000000000001          2.6451383018866181E-004
  0.15400000000000003          2.1022978762630373E-004
  0.15510000000000002         -9.4229297246783972E-005
  0.15620000000000003         -2.4358807422686368E-004
  0.15730000000000002         -5.7261881011072546E-005
  0.15840000000000001          2.2463942877948284E-004
  0.15950000000000003          2.7072848752140999E-004
  0.16060000000000002          3.4054846764774993E-005
  0.16170000000000001         -2.4992378894239664E-004
  0.16280000000000003         -3.2862368971109390E-004
  0.16390000000000002         -1.2874937965534627E-004
  0.16500000000000001          2.1293290774337947E-004
  0.16610000000000003          4.1666001197881997E-004
  0.16720000000000002          2.4101638700813055E-004
  0.16830000000000003         -2.4899884010665119E-004
  0.16940000000000002         -6.1194418231025338E-004
  0.17050000000000001         -4.0515372529625893E-004
  0.17160000000000003          2.8562845545820892E-004
  0.17270000000000002          8.1259856233373284E-004
  0.17380000000000001          6.0122448485344648E-004
  0.17490000000000003         -2.0723257330246270E-004
  0.17600000000000002         -8.5596472490578890E-004
  0.17710000000000004         -7.2617590194568038E-004
  0.17820000000000003          6.8654364440590143E-005
  0.17930000000000001          8.1830471754074097E-004
  0.18040000000000003          8.6067686788737774E-004
  0.18150000000000002          1.2519612209871411E-004
  0.18260000000000001         -8.0549897393211722E-004
  0.18370000000000003         -1.1211343808099627E-003
  0.18480000000000002         -4.4700625585392118E-004
  0.18590000000000001          7.2993739740923047E-004
  0.18700000000000003          1.3604642590507865E-003
  0.18810000000000002          7.8286050120368600E-004
  0.18920000000000003         -5.4689514217898250E-004
  0.19030000000000002         -1.4056350337341428E-003
  0.19140000000000001         -9.8851136863231659E-004
  0.19250000000000003          3.0471113859675825E-004
  0.19360000000000002          1.3016943121328950E-003
  0.19470000000000001          1.1737159220501781E-003
  0.19580000000000003          7.9634141002316028E-005
  0.19690000000000002         -1.1011704336851835E-003
  0.19800000000000001         -1.4645858900621533E-003
  0.19910000000000003         -6.6189980134367943E-004
  0.20020000000000002          8.0806581536307931E-004
  0.20130000000000003          1.7733083805069327E-003
  0.20240000000000002          1.2416508980095387E-003
  0.20350000000000001         -5.3453684085980058E-004
  0.20460000000000003         -1.9798488356173038E-003
  0.20570000000000002         -1.6163066029548645E-003
  0.20680000000000001          3.2151164487004280E-004
  0.20790000000000003          1.9831084646284580E-003
  0.20900000000000002          1.7881446983665228E-003
  0.21010000000000004          1.6328600395354442E-005
  0.21120000000000003         -1.6357100103050470E-003
  0.21230000000000002         -1.8237554468214512E-003
  0.21340000000000003         -6.0896074865013361E-004
  0.21450000000000002          9.7400334198027849E-004
  0.21560000000000001          1.8407697789371014E-003
  0.21670000000000003          1.3693246291950345E-003
  0.21780000000000002         -2.9614829691126943E-004
  0.21890000000000001         -1.9996312912553549E-003
  0.22000000000000003         -2.1247155964374542E-003
  0.22110000000000002         -1.7493394261691719E-004
  0.22220000000000004          2.2179672960191965E-003
  0.22330000000000003          2.6122508570551872E-003
  0.22440000000000002          4.3442205060273409E-004
  0.22550000000000003         -2.1581018809229136E-003
  0.22660000000000002         -2.5670994073152542E-003
  0.22770000000000001         -5.8177497703582048E-004
  0.22880000000000003          1.6233695205301046E-003
  0.22990000000000002          2.0759478211402893E-003
  0.23100000000000004          8.4780080942437053E-004
  0.23210000000000003         -6.9562834687530994E-004
  0.23320000000000002         -1.5522626927122474E-003
  0.23430000000000004         -1.4563017757609487E-003
  0.23540000000000003         -3.7665464333258569E-004
  0.23650000000000002          1.2912858510389924E-003
  0.23760000000000003          2.2409337107092142E-003
  0.23870000000000002          1.1788490228354931E-003
  0.23980000000000001         -1.3036949094384909E-003
  0.24090000000000000         -2.7090325020253658E-003
  0.24200000000000005         -1.3513757148757577E-003
  0.24310000000000004          1.3881449121981859E-003
  0.24420000000000003          2.5160636287182570E-003
  0.24530000000000002          1.0022060014307499E-003
  0.24640000000000001         -1.1572277871891856E-003
  0.24750000000000005         -1.6694935038685799E-003
  0.24860000000000004         -6.1926239868625998E-004
  0.24970000000000003          3.3530202927067876E-004
  0.25080000000000002          5.1062536658719182E-004
  0.25190000000000001          6.0153665253892541E-004
  0.25300000000000000          8.4020232316106558E-004
  0.25410000000000005          3.6236969754099846E-004
  0.25520000000000004         -1.0231174528598785E-003
  0.25630000000000003         -1.7661458114162087E-003
  0.25740000000000002         -5.1486922893673182E-004
  0.25850000000000001          1.5704560792073607E-003
  0.25960000000000005          1.9461603369563818E-003
  0.26070000000000004          9.9644079455174506E-005
  0.26180000000000003         -1.6415728023275733E-003
  0.26290000000000002         -1.2573535786941648E-003
  0.26400000000000001          3.2734501291997731E-004
  0.26510000000000000          8.6486979853361845E-004
  0.26620000000000005          8.8848573795985430E-005
  0.26730000000000004         -2.6818990590982139E-004
  0.26840000000000003          4.7319420264102519E-004
  0.26950000000000002          7.8539986861869693E-004
  0.27060000000000001         -4.3089722748845816E-004
  0.27170000000000005         -1.6674271319061518E-003
  0.27280000000000004         -8.3231757162138820E-004
  0.27390000000000003          1.3786465860903263E-003
  0.27500000000000002          2.0772176794707775E-003
  0.27610000000000001          2.2526019893120974E-004
  0.27720000000000000         -1.7855633050203323E-003
  0.27830000000000005         -1.4624407049268484E-003
  0.27940000000000004          3.9618980372324586E-004
  0.28050000000000003          1.1532752541825175E-003
  0.28160000000000002          2.4087703786790371E-004
  0.28270000000000001         -4.0392426308244467E-004
  0.28380000000000005          2.5596056366339326E-004
  0.28490000000000004          6.9454679032787681E-004
  0.28600000000000003         -4.3562057544477284E-004
  0.28710000000000002         -1.6662771813571453E-003
  0.28820000000000001         -7.2372693102806807E-004
  0.28930000000000000          1.6654542414471507E-003
  0.29040000000000005          2.2824082989245653E-003
  0.29150000000000004         -1.4669720258098096E-005
  0.29260000000000003         -2.3676760029047728E-003
  0.29370000000000002         -1.7582240980118513E-003
  0.29480000000000001          8.2768336869776249E-004
  0.29590000000000005          1.9409373635426164E-003
  0.29700000000000004          5.4352573351934552E-004
  0.29810000000000003         -9.3658309197053313E-004
  0.29920000000000002         -5.6599796516820788E-004
  0.30030000000000001          3.9815492345951498E-004
  0.30140000000000006          1.1653473848127760E-005
  0.30250000000000005         -9.7421312239021063E-004
  0.30360000000000004         -3.9629661478102207E-004
  0.30470000000000003          1.4449000591412187E-003
  0.30580000000000002          1.7537053208798170E-003
  0.30690000000000001         -4.7271515359170735E-004
  0.30800000000000005         -2.4375552311539650E-003
  0.30910000000000004         -1.3230448821559548E-003
  0.31020000000000003          1.5153952408581972E-003
  0.31130000000000002          2.3008836433291435E-003
  0.31240000000000001          1.4383174129761755E-004
  0.31350000000000006         -1.8389426404610276E-003
  0.31460000000000005         -1.1263436172157526E-003
  0.31570000000000004          7.8512955224141479E-004
