  -1.3200000000000002E-002     0.0000000000000000
  -1.2100000000000001E-002     0.0000000000000000
  -1.1000000000000001E-002     0.0000000000000000
  -9.9000000000000025E-003     0.0000000000000000
  -8.8000000000000023E-003     4.3978400607696502E-017
  -7.7000000000000011E-003     3.2676972035052367E-016
  -6.6000000000000017E-003     2.1796209670167871E-015
  -5.5000000000000014E-003     1.2593236932314893E-014
  -4.4000000000000011E-003     5.5467735710513361E-014
  -3.3000000000000008E-003     1.7670290415345430E-013
  -2.2000000000000006E-003     3.5348956292473310E-013
  -1.1000000000000003E-003     1.1802340246606924E-013
  -1.7347234759768071E-018    -1.9299783125814596E-012
   1.0999999999999985E-003    -7.0098167721799332E-012
   2.1999999999999988E-003    -1.0850609473422868E-011
   3.2999999999999991E-003     2.3228628222293768E-012
   4.3999999999999994E-003     5.0884574331888643E-011
   5.4999999999999997E-003     1.2269930904640347E-010
   6.6000000000000000E-003     1.4367669554093965E-010
   7.7000000000000002E-003    -2.9171692839113916E-011
   8.8000000000000005E-003    -6.1111032900740270E-010
   9.9000000000000008E-003    -1.7155659115530852E-009
   1.1000000000000001E-002    -2.4587478719695355E-009
   1.2100000000000001E-002     2.7237864741458395E-010
   1.3199999999999998E-002     9.9776009676588728E-009
   1.4299999999999998E-002     2.2197392368639157E-008
   1.5399999999999999E-002     1.6845174144464181E-008
   1.6500000000000001E-002    -2.8783464500747868E-008
   1.7599999999999998E-002    -1.0049227228137170E-007
   1.8700000000000001E-002    -1.2250579572992137E-007
   1.9799999999999998E-002    -7.6055304276678726E-009
   2.0900000000000002E-002     2.3351599054421968E-007
   2.1999999999999999E-002     4.4279232724875328E-007
   2.3099999999999996E-002     4.0865350570129522E-007
   2.4199999999999999E-002     1.1771382091296800E-008
   2.5299999999999996E-002    -7.1608531015954213E-007
   2.6400000000000000E-002    -1.5526118204434169E-006
   2.7499999999999997E-002    -1.9235592390032252E-006
   2.8600000000000000E-002    -8.9736136033025105E-007
   2.9699999999999997E-002     2.0595882688212441E-006
   3.0800000000000001E-002     5.7673400988278445E-006
   3.1899999999999998E-002     7.1083563852880616E-006
   3.3000000000000002E-002     3.2940631626843242E-006
   3.4099999999999998E-002    -4.8959013838612009E-006
   3.5200000000000002E-002    -1.2718704965664074E-005
   3.6299999999999999E-002    -1.5256915503414348E-005
   3.7400000000000003E-002    -1.1338819604134187E-005
   3.8500000000000000E-002    -2.7750991193897789E-006
   3.9599999999999996E-002     9.3624994406127371E-006
   4.0700000000000000E-002     2.4575523639214225E-005
   4.1799999999999997E-002     3.7694870115956292E-005
   4.2900000000000001E-002     3.7605175748467445E-005
   4.3999999999999997E-002     1.6930576748563908E-005
   4.5100000000000001E-002    -1.6616295397398062E-005
   4.6199999999999998E-002    -4.4589447497855872E-005
   4.7300000000000002E-002    -5.7479581300867721E-005
   4.8399999999999999E-002    -6.4965846831910312E-005
   4.9500000000000002E-002    -7.8390010457951576E-005
   5.0600000000000006E-002    -8.4423583757597953E-005
   5.1699999999999996E-002    -4.8300880735041574E-005
   5.2800000000000000E-002     4.8216348659479991E-005
   5.3900000000000003E-002     1.7759580805432051E-004
   5.5000000000000007E-002     2.8515560552477837E-004
   5.6099999999999997E-002     3.3518471173010767E-004
   5.7200000000000001E-002     3.2773439306765795E-004
   5.8300000000000005E-002     2.6980540133081377E-004
   5.9399999999999994E-002     1.4901005488354713E-004
   6.0499999999999998E-002    -4.6200733777368441E-005
   6.1600000000000002E-002    -2.8562554507516325E-004
   6.2700000000000006E-002    -4.9727904843166471E-004
   6.3799999999999996E-002    -6.1666080728173256E-004
   6.4899999999999999E-002    -6.2639516545459628E-004
   6.6000000000000003E-002    -5.4305576486513019E-004
   6.7100000000000007E-002    -3.8194065564312041E-004
   6.8199999999999997E-002    -1.5278361388482153E-004
   6.9300000000000000E-002     1.1759064364014193E-004
   7.0400000000000004E-002     3.8073337054811418E-004
   7.1500000000000008E-002     5.8739841915667057E-004
   7.2599999999999998E-002     6.9574749795719981E-004
   7.3700000000000002E-002     6.6154531668871641E-004
   7.4800000000000005E-002     4.5937590766698122E-004
   7.5899999999999995E-002     1.4357181498780847E-004
   7.6999999999999999E-002    -1.3980416406411678E-004
   7.8100000000000003E-002    -2.6177815743722022E-004
   7.9200000000000007E-002    -2.4698322522453964E-004
   8.0299999999999996E-002    -2.5399282458238304E-004
   8.1400000000000000E-002    -3.7877779686823487E-004
   8.2500000000000004E-002    -5.0679786363616586E-004
   8.3600000000000008E-002    -4.2129404027946293E-004
   8.4699999999999998E-002    -6.5654050558805466E-005
   8.5800000000000001E-002     3.5577939706854522E-004
   8.6900000000000005E-002     5.7065556757152081E-004
   8.8000000000000009E-002     4.9943034537136555E-004
   8.9099999999999999E-002     2.8836907586082816E-004
   9.0200000000000002E-002     1.1447286669863388E-004
   9.1300000000000006E-002     1.9054328731726855E-005
   9.2399999999999996E-002    -6.6847693233285099E-005
   9.3500000000000000E-002    -2.0068540470674634E-004
   9.4600000000000004E-002    -3.6790571175515652E-004
   9.5700000000000007E-002    -4.9530714750289917E-004
   9.6799999999999997E-002    -4.7719411668367684E-004
   9.7900000000000001E-002    -2.3097069060895592E-004
   9.9000000000000005E-002     1.9264934235252440E-004
  0.10010000000000001          5.6235591182485223E-004
  0.10120000000000000          6.2767631607130170E-004
  0.10230000000000000          3.7990152486599982E-004
  0.10340000000000001          8.4194973169360310E-005
  0.10450000000000001         -2.4371072868234478E-005
  0.10560000000000000         -2.7647562092170119E-005
  0.10670000000000000         -1.9297683320473880E-004
  0.10780000000000001         -5.5405561579391360E-004
  0.10890000000000001         -7.6570338569581509E-004
  0.11000000000000000         -4.8381942906416953E-004
  0.11110000000000000          1.7636176198720932E-004
  0.11220000000000001          6.9772364804521203E-004
  0.11330000000000000          6.9389125565066934E-004
  0.11440000000000002          2.8727381140924990E-004
  0.11550000000000001         -8.0786747275851667E-005
  0.11660000000000000         -1.2728408910334110E-004
  0.11770000000000001          5.2523872000165284E-005
  0.11880000000000000          1.6577540372963995E-004
  0.11989999999999999          1.2714882359432522E-005
  0.12100000000000001         -3.6897187237627804E-004
  0.12210000000000000         -7.1666546864435077E-004
  0.12320000000000002         -6.8323896266520023E-004
  0.12430000000000001         -1.2101324682589620E-004
  0.12540000000000001          6.6071149194613099E-004
  0.12650000000000003          1.0270692873746157E-003
  0.12760000000000002          5.9932668227702379E-004
  0.12870000000000001         -2.7086457703262568E-004
  0.12980000000000003         -7.6468661427497864E-004
  0.13090000000000002         -4.3106728116981685E-004
  0.13200000000000001          3.2508256845176220E-004
  0.13310000000000002          6.8831606768071651E-004
  0.13420000000000001          3.0549595248885453E-004
  0.13530000000000003         -4.0516906301490963E-004
  0.13640000000000002         -7.7728403266519308E-004
  0.13750000000000001         -5.5908109061419964E-004
  0.13860000000000003         -1.4491391084447969E-005
  0.13970000000000002          4.5291084097698331E-004
  0.14080000000000001          6.0986034804955125E-004
  0.14190000000000003          4.2041149572469294E-004
  0.14300000000000002          1.3101631566314609E-006
  0.14410000000000003         -3.7912480183877051E-004
  0.14520000000000002         -4.2477119131945074E-004
  0.14630000000000001         -9.0752364485524595E-005
  0.14740000000000003          3.0518870335072279E-004
  0.14850000000000002          3.7444286863319576E-004
  0.14960000000000001          6.4181396737694740E-005
  0.15070000000000003         -3.0993059044703841E-004
  0.15180000000000002         -4.2578493594191968E-004
  0.15290000000000001         -2.4332867178600281E-004
  0.15400000000000003          7.4524039519019425E-005
  0.15510000000000002          3.7208857247605920E-004
  0.15620000000000003          5.2346271695569158E-004
  0.15730000000000002          3.7092875572852790E-004
  0.15840000000000001         -1.3568524445872754E-004
  0.15950000000000003         -7.0692703593522310E-004
  0.16060000000000002         -8.2211248809471726E-004
  0.16170000000000001         -2.4485768517479300E-004
  0.16280000000000003          6.1434996314346790E-004
  0.16390000000000002          1.0068282717838883E-003
  0.16500000000000001          5.7452399050816894E-004
  0.16610000000000003         -2.8480286709964275E-004
  0.16720000000000002         -8.0910261021926999E-004
  0.16830000000000003         -5.9016497107222676E-004
  0.16940000000000002          9.9415512522682548E-005
  0.17050000000000001          6.1394053045660257E-004
  0.17160000000000003          5.1458814414218068E-004
  0.17270000000000002         -8.9644250692799687E-005
  0.17380000000000001         -6.6740787588059902E-004
  0.17490000000000003         -7.1514729643240571E-004
  0.17600000000000002         -1.7177443078253418E-004
  0.17710000000000004          5.3512450540438294E-004
  0.17820000000000003          8.5527647752314806E-004
  0.17930000000000001          5.7290407130494714E-004
  0.18040000000000003         -5.1058992539765313E-005
  0.18150000000000002         -5.4249848471954465E-004
  0.18260000000000001         -5.9708312619477510E-004
  0.18370000000000003         -2.5791421649046242E-004
  0.18480000000000002          1.7854303587228060E-004
  0.18590000000000001          3.9111703517846763E-004
  0.18700000000000003          2.4986336939036846E-004
  0.18810000000000002         -9.5384333690162748E-005
  0.18920000000000003         -3.4019228769466281E-004
  0.19030000000000002         -2.9721553437411785E-004
  0.19140000000000001         -4.9547456001164392E-005
  0.19250000000000003          1.9183842232450843E-004
  0.19360000000000002          3.2908830326050520E-004
  0.19470000000000001          3.7962579517625272E-004
  0.19580000000000003          2.8500065673142672E-004
  0.19690000000000002         -7.2967828600667417E-005
  0.19800000000000001         -5.6463090004399419E-004
  0.19910000000000003         -7.2181597352027893E-004
  0.20020000000000002         -2.2455022553913295E-004
  0.20130000000000003          5.6001171469688416E-004
  0.20240000000000002          8.2957820268347859E-004
  0.20350000000000001          2.6717581204138696E-004
  0.20460000000000003         -5.2027305355295539E-004
  0.20570000000000002         -6.9980375701561570E-004
  0.20680000000000001         -1.8955272389575839E-004
  0.20790000000000003          3.5028925049118698E-004
  0.20900000000000002          4.2186735663563013E-004
  0.21010000000000004          1.9781621813308448E-004
  0.21120000000000003          3.5567441955208778E-005
  0.21230000000000002         -9.6103998657781631E-005
  0.21340000000000003         -3.6255884333513677E-004
  0.21450000000000002         -5.1519693806767464E-004
  0.21560000000000001         -1.3023983046878129E-004
  0.21670000000000003          6.0294789727777243E-004
  0.21780000000000002          8.6816656403243542E-004
  0.21890000000000001          2.5671924231573939E-004
  0.22000000000000003         -5.8825308224186301E-004
  0.22110000000000002         -7.6611654367297888E-004
  0.22220000000000004         -2.8278326499275863E-004
  0.22330000000000003          1.0922522051259875E-004
  0.22440000000000002          1.0733491217251867E-004
  0.22550000000000003          1.9757241534534842E-004
  0.22660000000000002          6.0481834225356579E-004
  0.22770000000000001          6.3790415879338980E-004
  0.22880000000000003         -2.6895888731814921E-004
  0.22990000000000002         -1.3011811533942819E-003
  0.23100000000000004         -1.0016673477366567E-003
  0.23210000000000003          6.5618479857221246E-004
  0.23320000000000002          1.8418189138174057E-003
  0.23430000000000004          1.0505586396902800E-003
  0.23540000000000003         -9.0548192383721471E-004
  0.23650000000000002         -1.8639806658029556E-003
  0.23760000000000003         -9.6778868464753032E-004
  0.23870000000000002          5.3750822553411126E-004
  0.23980000000000001          1.1642302852123976E-003
  0.24090000000000000          8.5015303920954466E-004
  0.24200000000000005          3.2916813506744802E-004
  0.24310000000000004         -2.3389466514345258E-004
  0.24420000000000003         -9.9635834340006113E-004
  0.24530000000000002         -1.3298421399667859E-003
  0.24640000000000001         -2.9967160662636161E-004
  0.24750000000000005          1.5440528513863683E-003
  0.24860000000000004          2.1088426001369953E-003
  0.24970000000000003          3.3265419187955558E-004
  0.25080000000000002         -2.0018105860799551E-003
  0.25190000000000001         -2.1983361802995205E-003
  0.25300000000000000         -8.5416359070222825E-005
  0.25410000000000005          1.7619105055928230E-003
  0.25520000000000004          1.4113824581727386E-003
  0.25630000000000003         -1.2678523489739746E-004
  0.25740000000000002         -7.3974201222881675E-004
  0.25850000000000001         -2.2567418636754155E-004
  0.25960000000000005         -6.1090817325748503E-005
  0.26070000000000004         -6.5689219627529383E-004
  0.26180000000000003         -6.3679320737719536E-004
  0.26290000000000002          6.9521274417638779E-004
  0.26400000000000001          1.7507559387013316E-003
  0.26510000000000000          7.8044494148343801E-004
  0.26620000000000005         -1.3164490228518844E-003
  0.26730000000000004         -1.9358199788257480E-003
  0.26840000000000003         -3.4695790964178741E-004
  0.26950000000000002          1.3246040325611830E-003
  0.27060000000000001          1.1590428184717894E-003
  0.27170000000000005         -3.5754652344621718E-005
  0.27280000000000004         -3.8054081960581243E-004
  0.27390000000000003          7.2512128099333495E-005
  0.27500000000000002         -2.2502399224322289E-004
  0.27610000000000001         -1.2812010245397687E-003
  0.27720000000000000         -1.0955857578665018E-003
  0.27830000000000005          1.0675763478502631E-003
  0.27940000000000004          2.7636785525828600E-003
  0.28050000000000003          1.3807142386212945E-003
  0.28160000000000002         -1.8920182483270764E-003
  0.28270000000000001         -3.1607833225280046E-003
  0.28380000000000005         -8.9686835417523980E-004
  0.28490000000000004          2.0600631833076477E-003
  0.28600000000000003          2.3612235672771931E-003
  0.28710000000000002          3.3961480949074030E-004
  0.28820000000000001         -1.1551812058314681E-003
  0.28930000000000000         -9.6233095973730087E-004
  0.29040000000000005         -5.0227489555254579E-004
  0.29150000000000004         -6.7326962016522884E-004
  0.29260000000000003         -2.7344268164597452E-004
  0.29370000000000002          1.4289770042523742E-003
  0.29480000000000001          2.4918259587138891E-003
  0.29590000000000005          7.3546852217987180E-004
  0.29700000000000004         -2.4666634853929281E-003
  0.29810000000000003         -3.2365557271987200E-003
  0.29920000000000002         -3.4042820334434509E-004
  0.30030000000000001          2.8373047243803740E-003
  0.30140000000000006          2.6274172123521566E-003
  0.30250000000000005         -2.3530962062068284E-004
  0.30360000000000004         -2.0416188053786755E-003
  0.30470000000000003         -1.2508907821029425E-003
  0.30580000000000002          1.1288778478046879E-004
  0.30690000000000001          2.0836685143876821E-004
  0.30800000000000005          1.4361404282681178E-005
  0.30910000000000004          9.4649061793461442E-004
  0.31020000000000003          1.8002423457801342E-003
  0.31130000000000002          4.1639996925368905E-004
  0.31240000000000001         -2.3395696189254522E-003
  0.31350000000000006         -2.9230855870991945E-003
  0.31460000000000005         -2.6531055482337251E-005
  0.31570000000000004          3.0800425447523594E-003
