  -1.3200000000000002E-002     0.0000000000000000
  -1.2100000000000001E-002     0.0000000000000000
  -1.1000000000000001E-002     0.0000000000000000
  -9.9000000000000025E-003     0.0000000000000000
  -8.8000000000000023E-003     0.0000000000000000
  -7.7000000000000011E-003     5.3213861917357221E-023
  -6.6000000000000017E-003     4.6389671088715229E-022
  -5.5000000000000014E-003     3.1834827414379291E-021
  -4.4000000000000011E-003     1.9002438933617106E-020
  -3.3000000000000008E-003     8.9858762516652135E-020
  -2.2000000000000006E-003     3.2162813978441299E-019
  -1.1000000000000003E-003     8.2172732096719527E-019
  -1.7347234759768071E-018     1.2394762777733195E-018
   1.0999999999999985E-003    -7.7893297688039953E-020
   2.1999999999999988E-003    -5.1631807334462748E-018
   3.2999999999999991E-003    -9.5972025841076683E-018
   4.3999999999999994E-003     5.0615342982339211E-018
   5.4999999999999997E-003     5.0029858754509890E-017
   6.6000000000000000E-003     6.2836636266247838E-017
   7.7000000000000002E-003    -9.5841182411783045E-017
   8.8000000000000005E-003    -3.8696522847789380E-016
   9.9000000000000008E-003    -2.6558106609249788E-016
   1.1000000000000001E-002     8.4981248587071533E-016
   1.2100000000000001E-002     2.0305645558819484E-015
   1.3199999999999998E-002     5.3652475071362194E-016
   1.4299999999999998E-002    -4.3207184520759750E-015
   1.5399999999999999E-002    -6.6694434060232156E-015
   1.6500000000000001E-002     8.9452301411241516E-016
   1.7599999999999998E-002     1.2873081371494663E-014
   1.8700000000000001E-002     1.0065853248033933E-014
   1.9799999999999998E-002    -1.1047394180279269E-014
   2.0900000000000002E-002    -1.6042322906282408E-014
   2.1999999999999999E-002     2.2331327393276985E-014
   2.3099999999999996E-002     4.7551142168776594E-014
   2.4199999999999999E-002    -4.0089930480142685E-014
   2.5299999999999996E-002    -1.9231415505222005E-013
   2.6400000000000000E-002    -1.4410333007159465E-013
   2.7499999999999997E-002     2.5814401072472848E-013
   2.8600000000000000E-002     6.3681313911337356E-013
   2.9699999999999997E-002     3.2395977176899460E-013
   3.0800000000000001E-002    -6.7671617007963869E-013
   3.1899999999999998E-002    -1.2583915029798498E-012
   3.3000000000000002E-002    -4.1036098130664556E-013
   3.4099999999999998E-002     1.1121839126743138E-012
   3.5200000000000002E-002     1.2745774487926687E-012
   3.6299999999999999E-002    -3.9162339278593639E-013
   3.7400000000000003E-002    -1.3938686359640795E-012
   3.8500000000000000E-002     5.8496534439261838E-013
   3.9599999999999996E-002     3.4044008931366498E-012
   4.0700000000000000E-002     1.9740791033090455E-012
   4.1799999999999997E-002    -4.3462993620790868E-012
   4.2900000000000001E-002    -8.3407733844631515E-012
   4.3999999999999997E-002    -2.9278959898931811E-012
   4.5100000000000001E-002     7.7948446308706565E-012
   4.6199999999999998E-002     1.0825897470145840E-011
   4.7300000000000002E-002     7.8087227439391227E-013
   4.8399999999999999E-002    -1.0296880535720643E-011
   4.9500000000000002E-002    -6.5102432993124904E-012
   5.0600000000000006E-002     9.3739616763288680E-012
   5.1699999999999996E-002     1.5818377857579335E-011
   5.2800000000000000E-002    -2.0604407123623464E-013
   5.3900000000000003E-002    -2.2770887606049506E-011
   5.5000000000000007E-002    -2.3724865821916907E-011
   5.6099999999999997E-002     1.3996412535910441E-012
   5.7200000000000001E-002     2.5287296562259698E-011
   5.8300000000000005E-002     2.1422540824600489E-011
   5.9399999999999994E-002    -3.9931643061597022E-012
   6.0499999999999998E-002    -2.1688293522226232E-011
   6.1600000000000002E-002    -1.5846537623764867E-011
   6.2700000000000006E-002     6.9976240513885957E-013
   6.3799999999999996E-002     7.6522399528045071E-012
   6.4899999999999999E-002     1.2663052030570388E-012
   6.6000000000000003E-002    -7.5726942078135906E-012
   6.7100000000000007E-002    -7.9225289523199294E-012
   6.8199999999999997E-002     6.9666598878637132E-012
   6.9300000000000000E-002     3.8221481535316570E-011
   7.0400000000000004E-002     6.8174910161644675E-011
   7.1500000000000008E-002     5.7524346397386239E-011
   7.2599999999999998E-002    -1.6207753888997090E-011
   7.3700000000000002E-002    -1.0996923510697698E-010
   7.4800000000000005E-002    -1.3469954318612309E-010
   7.5899999999999995E-002    -5.2341030815084011E-011
   7.6999999999999999E-002     6.1207955370790046E-011
   7.8100000000000003E-002     8.9472616815466921E-011
   7.9200000000000007E-002     1.7653196612843480E-011
   8.0299999999999996E-002    -3.8536472624084439E-011
   8.1400000000000000E-002     2.3945373461842223E-011
   8.2500000000000004E-002     1.5001333508735115E-010
   8.3600000000000008E-002     1.7323310841366180E-010
   8.4699999999999998E-002     1.3214053115606639E-011
   8.5800000000000001E-002    -2.1496787683261687E-010
   8.6900000000000005E-002    -3.1342134443335112E-010
   8.8000000000000009E-002    -2.0102756959072821E-010
   8.9099999999999999E-002     2.2544886096875771E-011
   9.0200000000000002E-002     1.8998876083475835E-010
   9.1300000000000006E-002     2.0963780711369395E-010
   9.2399999999999996E-002     1.1255021914458041E-010
   9.3500000000000000E-002     8.7120293618125899E-012
   9.4600000000000004E-002     4.1111558601869547E-012
   9.5700000000000007E-002     1.0646239445577521E-010
   9.6799999999999997E-002     1.8028242787515580E-010
   9.7900000000000001E-002     4.8384376366561455E-011
   9.9000000000000005E-002    -2.9014696201201673E-010
  0.10010000000000001         -5.6462995390305082E-010
  0.10120000000000000         -4.5707546081352746E-010
  0.10230000000000000          2.9283624136677844E-011
  0.10340000000000001          4.9610343610950736E-010
  0.10450000000000001          5.3415005751844546E-010
  0.10560000000000000          1.6761667054332463E-010
  0.10670000000000000         -1.6978521366617372E-010
  0.10780000000000001         -1.2294490425723836E-010
  0.10890000000000001          1.9466837863912900E-010
  0.11000000000000000          3.5068142834049354E-010
  0.11110000000000000          8.3611909063030510E-011
  0.11220000000000001         -4.2530909349913770E-010
  0.11330000000000000         -7.4679690209578098E-010
  0.11440000000000002         -5.9889537773472057E-010
  0.11550000000000001         -6.1645792637232688E-011
  0.11660000000000000          5.0249931993207042E-010
  0.11770000000000001          7.0682848463121672E-010
  0.11880000000000000          4.2398423660827689E-010
  0.11989999999999999         -7.6646203273078584E-011
  0.12100000000000001         -3.1454194804325653E-010
  0.12210000000000000         -5.4283948863753650E-011
  0.12320000000000002          3.9271427776377266E-010
  0.12430000000000001          4.3740819299920020E-010
  0.12540000000000001         -1.3057079029099583E-010
  0.12650000000000003         -8.2946155499641350E-010
  0.12760000000000002         -9.4991692289880802E-010
  0.12870000000000001         -3.2397731719591150E-010
  0.12980000000000003          4.8237108751791880E-010
  0.13090000000000002          7.7472689374857850E-010
  0.13200000000000001          4.2785716636295490E-010
  0.13310000000000002         -8.2408399548761224E-011
  0.13420000000000001         -2.4706500734161807E-010
  0.13530000000000003         -6.3229342551693324E-013
  0.13640000000000002          3.2888688994425763E-010
  0.13750000000000001          3.9097092230377939E-010
  0.13860000000000003          8.8385604390950334E-011
  0.13970000000000002         -3.8857397854918929E-010
  0.14080000000000001         -6.9474620500997730E-010
  0.14190000000000003         -5.6828902694761041E-010
  0.14300000000000002         -7.4986197806659050E-011
  0.14410000000000003          3.8413097702694188E-010
  0.14520000000000002          4.2923048448884060E-010
  0.14630000000000001          1.0887040574614204E-010
  0.14740000000000003         -1.4275128301655116E-010
  0.14850000000000002         -1.5573773173849226E-011
  0.14960000000000001          3.0278812790385246E-010
  0.15070000000000003          3.7403463659657632E-010
  0.15180000000000002          7.1293061731925178E-011
  0.15290000000000001         -2.6879162784432253E-010
  0.15400000000000003         -2.8881455560458846E-010
  0.15510000000000002         -5.4459527165651167E-011
  0.15620000000000003          6.5878087707194055E-011
  0.15730000000000002         -1.0852587578602524E-010
  0.15840000000000001         -3.5221689453912575E-010
  0.15950000000000003         -3.2409369632446783E-010
  0.16060000000000002          3.1610321998831736E-011
  0.16170000000000001          4.2852107973168074E-010
  0.16280000000000003          5.2302384645486200E-010
  0.16390000000000002          2.1989206289152463E-010
  0.16500000000000001         -2.3902668733200017E-010
  0.16610000000000003         -4.4029649370891377E-010
  0.16720000000000002         -1.3740814042151328E-010
  0.16830000000000003          4.5711009977189576E-010
  0.16940000000000002          7.5034001234541847E-010
  0.17050000000000001          3.0311747556410751E-010
  0.17160000000000003         -6.3434113517502055E-010
  0.17270000000000002         -1.2261895943055379E-009
  0.17380000000000001         -8.3479378965023443E-010
  0.17490000000000003          2.8408431163029491E-010
  0.17600000000000002          1.1522104381711529E-009
  0.17710000000000004          9.8461938602412147E-010
  0.17820000000000003         -6.1644515880754369E-011
  0.17930000000000001         -1.0248369930465628E-009
  0.18040000000000003         -9.9788077800866404E-010
  0.18150000000000002          7.0494464432524495E-011
  0.18260000000000001          1.2903571544597980E-009
  0.18370000000000003          1.5355660076821209E-009
  0.18480000000000002          4.2420222889916204E-010
  0.18590000000000001         -1.2280388927976560E-009
  0.18700000000000003         -1.9970560760640410E-009
  0.18810000000000002         -1.1199114968718504E-009
  0.18920000000000003          7.0449418521079110E-010
  0.19030000000000002          1.8671568735584287E-009
  0.19140000000000001          1.3290015754563456E-009
  0.19250000000000003         -4.0525299782601110E-010
  0.19360000000000002         -1.7708068345001493E-009
  0.19470000000000001         -1.5613108583778512E-009
  0.19580000000000003          6.8381397766437146E-011
  0.19690000000000002          1.7944307151296357E-009
  0.19800000000000001          2.1880643963356761E-009
  0.19910000000000003          8.0954865033788792E-010
  0.20020000000000002         -1.3698654433014212E-009
  0.20130000000000003         -2.5715201079634653E-009
  0.20240000000000002         -1.6274719349951283E-009
  0.20350000000000001          8.1897405523889688E-010
  0.20460000000000003          2.6186304236119895E-009
  0.20570000000000002          2.0226695873759581E-009
  0.20680000000000001         -5.2902193736770187E-010
  0.20790000000000003         -2.6916842088553494E-009
  0.20900000000000002         -2.4547852639500434E-009
  0.21010000000000004         -5.4231393681325457E-011
  0.21120000000000003          2.3660802206393328E-009
  0.21230000000000002          2.8071829305531537E-009
  0.21340000000000003          1.0415415196973754E-009
  0.21450000000000002         -1.4609427001488484E-009
  0.21560000000000001         -2.7848827688359279E-009
  0.21670000000000003         -1.8814916291631789E-009
  0.21780000000000002          6.7878241916119464E-010
  0.21890000000000001          2.8807174423661763E-009
  0.22000000000000003          2.6630984084619058E-009
  0.22110000000000002         -1.2542690497330256E-010
  0.22220000000000004         -3.1256222055020544E-009
  0.22330000000000003         -3.4420770678167401E-009
  0.22440000000000002         -5.9770882687715243E-010
  0.22550000000000003          2.7723101592158628E-009
  0.22660000000000002          3.5310261381482633E-009
  0.22770000000000001          1.1835522562009260E-009
  0.22880000000000003         -1.8678694146956332E-009
  0.22990000000000002         -2.9550144553525115E-009
  0.23100000000000004         -1.5302625833157890E-009
  0.23210000000000003          9.2032831355837175E-010
  0.23320000000000002          2.5292088423611858E-009
  0.23430000000000004          2.2598514171079387E-009
  0.23540000000000003          2.2836914304047440E-010
  0.23650000000000002         -2.2588653170174666E-009
  0.23760000000000003         -3.1836437930365946E-009
  0.23870000000000002         -1.3968929346575010E-009
  0.23980000000000001          1.8162655823772411E-009
  0.24090000000000000          3.4519531677545956E-009
  0.24200000000000005          1.8097114917736690E-009
  0.24310000000000004         -1.4676951876069211E-009
  0.24420000000000003         -3.0654463412105315E-009
  0.24530000000000002         -1.6187611251439193E-009
  0.24640000000000001          1.0405939443458578E-009
  0.24750000000000005          2.2997030946214636E-009
  0.24860000000000004          1.5387252583209943E-009
  0.24970000000000003          2.8439691573955983E-011
  0.25080000000000002         -1.0761301849626648E-009
  0.25190000000000001         -1.5628430771741364E-009
  0.25300000000000000         -1.3216973071550342E-009
  0.25410000000000005         -6.3906324676565873E-011
  0.25520000000000004          1.6323521423444731E-009
  0.25630000000000003          2.0906385511665349E-009
  0.25740000000000002          4.1188844002171265E-010
  0.25850000000000001         -1.8898536069400507E-009
  0.25960000000000005         -2.2913437813798510E-009
  0.26070000000000004         -3.3797972753824013E-010
  0.26180000000000003          1.7359536030880918E-009
  0.26290000000000002          1.8235838394886628E-009
  0.26400000000000001          3.8981631811374484E-010
  0.26510000000000000         -6.4786387365955989E-010
  0.26620000000000005         -6.3905164493505140E-010
  0.26730000000000004         -5.2273280148895651E-010
  0.26840000000000003         -7.3092348840120280E-010
  0.26950000000000002         -3.6654934643109982E-010
  0.27060000000000001          9.4815844065010424E-010
  0.27170000000000005          1.7414806263715832E-009
  0.27280000000000004          5.1721604776844288E-010
  0.27390000000000003         -1.7141529307096448E-009
  0.27500000000000002         -2.2773596342062774E-009
  0.27610000000000001         -3.2713307063225727E-010
  0.27720000000000000          1.8956582970020008E-009
  0.27830000000000005          1.9579180499107451E-009
  0.27940000000000004          2.5062438235856632E-010
  0.28050000000000003         -9.7727947956371963E-010
  0.28160000000000002         -8.0972051286209989E-010
  0.28270000000000001         -3.5069991355385355E-010
  0.28380000000000005         -3.8042821670636329E-010
  0.28490000000000004         -1.0044402809494812E-010
  0.28600000000000003          1.0199415756417807E-009
  0.28710000000000002          1.6132265523438605E-009
  0.28820000000000001          1.9031605458241785E-010
  0.28930000000000000         -2.1083037538005556E-009
  0.29040000000000005         -2.3917243741067296E-009
  0.29150000000000004          8.6568870127923248E-011
  0.29260000000000003          2.5471120768116862E-009
  0.29370000000000002          2.1427670748863648E-009
  0.29480000000000001         -3.8902908672255876E-010
  0.29590000000000005         -1.9193286959762190E-009
  0.29700000000000004         -1.1010941047828737E-009
  0.29810000000000003          3.7480696324365681E-010
  0.29920000000000002          7.1744221674663322E-010
  0.30030000000000001          3.7521985518651491E-010
  0.30140000000000006          5.1476478635237299E-010
  0.30250000000000005          6.6841038259823904E-010
  0.30360000000000004         -3.5674180276501488E-010
  0.30470000000000003         -1.8614125796290182E-009
  0.30580000000000002         -1.6177549300167016E-009
  0.30690000000000001          7.4788653048329934E-010
  0.30800000000000005          2.5415425319863516E-009
  0.30910000000000004          1.3857567315866959E-009
  0.31020000000000003         -1.3709132717920625E-009
  0.31130000000000002         -2.2939554700229792E-009
  0.31240000000000001         -4.3292838758368646E-010
  0.31350000000000006          1.6021353133055527E-009
  0.31460000000000005          1.4120785651883239E-009
  0.31570000000000004         -1.4085395350083019E-010
