  -1.3200000000000002E-002     0.0000000000000000
  -1.2100000000000001E-002     0.0000000000000000
  -1.1000000000000001E-002     0.0000000000000000
  -9.9000000000000025E-003     0.0000000000000000
  -8.8000000000000023E-003     0.0000000000000000
  -7.7000000000000011E-003     0.0000000000000000
  -6.6000000000000017E-003     0.0000000000000000
  -5.5000000000000014E-003     0.0000000000000000
  -4.4000000000000011E-003     0.0000000000000000
  -3.3000000000000008E-003     0.0000000000000000
  -2.2000000000000006E-003     0.0000000000000000
  -1.1000000000000003E-003     0.0000000000000000
  -1.7347234759768071E-018     0.0000000000000000
   1.0999999999999985E-003     0.0000000000000000
   2.1999999999999988E-003     0.0000000000000000
   3.2999999999999991E-003     0.0000000000000000
   4.3999999999999994E-003     0.0000000000000000
   5.4999999999999997E-003     0.0000000000000000
   6.6000000000000000E-003     0.0000000000000000
   7.7000000000000002E-003     0.0000000000000000
   8.8000000000000005E-003     0.0000000000000000
   9.9000000000000008E-003     0.0000000000000000
   1.1000000000000001E-002     0.0000000000000000
   1.2100000000000001E-002     0.0000000000000000
   1.3199999999999998E-002     0.0000000000000000
   1.4299999999999998E-002     0.0000000000000000
   1.5399999999999999E-002     0.0000000000000000
   1.6500000000000001E-002     0.0000000000000000
   1.7599999999999998E-002     0.0000000000000000
   1.8700000000000001E-002     0.0000000000000000
   1.9799999999999998E-002     0.0000000000000000
   2.0900000000000002E-002     0.0000000000000000
   2.1999999999999999E-002     0.0000000000000000
   2.3099999999999996E-002     0.0000000000000000
   2.4199999999999999E-002     0.0000000000000000
   2.5299999999999996E-002     0.0000000000000000
   2.6400000000000000E-002    -2.6011928966311912E-037
   2.7499999999999997E-002    -5.0961396800089061E-038
   2.8600000000000000E-002     1.0861084589045887E-036
   2.9699999999999997E-002     1.4541413621521796E-036
   3.0800000000000001E-002     2.5048093461773873E-037
   3.1899999999999998E-002    -1.9034372000625731E-036
   3.3000000000000002E-002    -2.1982967637884193E-036
   3.4099999999999998E-002     4.1828456928043004E-036
   3.5200000000000002E-002     1.5997061839149021E-035
   3.6299999999999999E-002    -9.9130427271356831E-037
   3.7400000000000003E-002    -8.2729639371941751E-035
   3.8500000000000000E-002    -1.1897805101933650E-034
   3.9599999999999996E-002     1.4245642698116304E-034
   4.0700000000000000E-002     6.2370710880623221E-034
   4.1799999999999997E-002     4.4157367228467496E-034
   4.2900000000000001E-002    -1.1476965726547290E-033
   4.3999999999999997E-002    -2.6196618945204248E-033
   4.5100000000000001E-002    -1.0830498934892727E-033
   4.6199999999999998E-002     2.3664813498464281E-033
   4.7300000000000002E-002     3.7686756636965479E-033
   4.8399999999999999E-002     1.0322256136228456E-032
   4.9500000000000002E-002     3.2884216426647452E-032
   5.0600000000000006E-002     2.2476991885321714E-032
   5.1699999999999996E-002    -1.3875993759903102E-031
   5.2800000000000000E-002    -3.8379406250675148E-031
   5.3900000000000003E-002    -1.5237584147887119E-031
   5.5000000000000007E-002     1.0875710409231550E-030
   5.6099999999999997E-002     2.2726667355634109E-030
   5.7200000000000001E-002     4.7097897387447150E-031
   5.8300000000000005E-002    -5.2605358314552515E-030
   5.9399999999999994E-002    -9.1144092950329078E-030
   6.0499999999999998E-002    -2.2825852747770051E-030
   6.1600000000000002E-002     1.4243162241568886E-029
   6.2700000000000006E-002     2.6302548630383542E-029
   6.3799999999999996E-002     2.3399383776620994E-029
   6.4899999999999999E-002     4.5299185084078786E-030
   6.6000000000000003E-002    -5.3078466766973162E-029
   6.7100000000000007E-002    -1.8281350736711408E-028
   6.8199999999999997E-002    -2.7138119957140128E-028
   6.9300000000000000E-002     4.8688014550719724E-029
   7.0400000000000004E-002     9.6749013719095018E-028
   7.1500000000000008E-002     1.6265023418524468E-027
   7.2599999999999998E-002     2.3799628732104227E-028
   7.3700000000000002E-002    -3.5635058056409260E-027
   7.4800000000000005E-002    -6.1971025302817188E-027
   7.5899999999999995E-002    -2.2129069876105447E-027
   7.6999999999999999E-002     8.5357330691038956E-027
   7.8100000000000003E-002     1.7033331184564968E-026
   7.9200000000000007E-002     1.2443690674926501E-026
   8.0299999999999996E-002    -6.6868233743086386E-027
   8.1400000000000000E-002    -3.2557719368861870E-026
   8.2500000000000004E-002    -5.4387158456823395E-026
   8.3600000000000008E-002    -4.8526387235705842E-026
   8.4699999999999998E-002     3.0627161029632283E-026
   8.5800000000000001E-002     1.9052458881928245E-025
   8.6900000000000005E-002     2.8379342555845435E-025
   8.8000000000000009E-002     4.4495394291687980E-026
   8.9099999999999999E-002    -5.4718685880408677E-025
   9.0200000000000002E-002    -9.0328675724513001E-025
   9.1300000000000006E-002    -2.1352177007707649E-025
   9.2399999999999996E-002     1.3538575808594339E-024
   9.3500000000000000E-002     2.0655415613171190E-024
   9.4600000000000004E-002     2.1492291030426544E-025
   9.5700000000000007E-002    -3.1565709031176080E-024
   9.6799999999999997E-002    -4.0815667180439677E-024
   9.7900000000000001E-002     2.7545920870240752E-025
   9.9000000000000005E-002     7.3241112324866351E-024
  0.10010000000000001          1.0134000644725860E-023
  0.10120000000000000          3.0542373026943964E-024
  0.10230000000000000         -1.4196639039779502E-023
  0.10340000000000001         -3.4605387314218944E-023
  0.10450000000000001         -3.8822183329649066E-023
  0.10560000000000000          4.6103555656012637E-024
  0.10670000000000000          1.0731680162933473E-022
  0.10780000000000001          2.0061733726486875E-022
  0.10890000000000001          1.2805977922526364E-022
  0.11000000000000000         -2.1373644752837971E-022
  0.11110000000000000         -6.5053206289771760E-022
  0.11220000000000001         -7.0008933994920921E-022
  0.11330000000000000          4.6340703021340178E-023
  0.11440000000000002          1.3540569993742474E-021
  0.11550000000000001          2.2008287263838365E-021
  0.11660000000000000          1.4297969359014844E-021
  0.11770000000000001         -1.2010821023757475E-021
  0.11880000000000000         -4.4352980158631523E-021
  0.11989999999999999         -5.8803688135026536E-021
  0.12100000000000001         -3.1823954512968193E-021
  0.12210000000000000          4.2254308237897986E-021
  0.12320000000000002          1.3205583858033197E-020
  0.12430000000000001          1.6518633658383440E-020
  0.12540000000000001          6.6607898915362103E-021
  0.12650000000000003         -1.6086901924180445E-020
  0.12760000000000002         -3.7883392177114022E-020
  0.12870000000000001         -3.7166132881976781E-020
  0.12980000000000003         -2.8789247757567777E-021
  0.13090000000000002          4.9251180239065428E-020
  0.13200000000000001          8.1112413213457843E-020
  0.13310000000000002          5.9407193940066397E-020
  0.13420000000000001         -1.5388918199137678E-020
  0.13530000000000003         -1.0275982677919861E-019
  0.13640000000000002         -1.4297382618157493E-019
  0.13750000000000001         -9.0766334744987660E-020
  0.13860000000000003          5.2027912464306569E-020
  0.13970000000000002          2.1466074895953830E-019
  0.14080000000000001          2.6978888589207960E-019
  0.14190000000000003          1.1039757957816138E-019
  0.14300000000000002         -2.3045786948186096E-019
  0.14410000000000003         -5.2523244370974661E-019
  0.14520000000000002         -4.7203873326314592E-019
  0.14630000000000001          4.5436869488824421E-020
  0.14740000000000003          7.7156398669468260E-019
  0.14850000000000002          1.1792957862827896E-018
  0.14960000000000001          8.2520701131026444E-019
  0.15070000000000003         -3.1010466082154262E-019
  0.15180000000000002         -1.7461048608200773E-018
  0.15290000000000001         -2.6821432691656960E-018
  0.15400000000000003         -2.3044412277405610E-018
  0.15510000000000002         -1.8865597410906693E-019
  0.15620000000000003          3.2221664777097150E-018
  0.15730000000000002          6.3548977739998904E-018
  0.15840000000000001          6.9575509626233619E-018
  0.15950000000000003          3.3722071146594836E-018
  0.16060000000000002         -4.0308871073275499E-018
  0.16170000000000001         -1.2301006197998525E-017
  0.16280000000000003         -1.6888084999713361E-017
  0.16390000000000002         -1.3758012882297391E-017
  0.16500000000000001         -1.6354393651963283E-018
  0.16610000000000003          1.6332209701910376E-017
  0.16720000000000002          3.2452145006304944E-017
  0.16830000000000003          3.6890991387889053E-017
  0.16940000000000002          2.2544786088436843E-017
  0.17050000000000001         -9.1531654138443026E-018
  0.17160000000000003         -4.5742399659912786E-017
  0.17270000000000002         -6.7912209887428316E-017
  0.17380000000000001         -5.9116904313270379E-017
  0.17490000000000003         -1.6767321593364295E-017
  0.17600000000000002          4.2356689855729140E-017
  0.17710000000000004          8.7589096272056033E-017
  0.17820000000000003          8.8646100746000794E-017
  0.17930000000000001          3.6017769902441324E-017
  0.18040000000000003         -4.6392040843232333E-017
  0.18150000000000002         -1.0713760422561552E-016
  0.18260000000000001         -9.2839529257285320E-017
  0.18370000000000003          1.5500841901096605E-017
  0.18480000000000002          1.7767263839932698E-016
  0.18590000000000001          2.9344119733755350E-016
  0.18700000000000003          2.4231667092144808E-016
  0.18810000000000002         -4.3126368180819932E-017
  0.18920000000000003         -5.1443640785027553E-016
  0.19030000000000002         -9.7686118109087438E-016
  0.19140000000000001         -1.1296973708737170E-015
  0.19250000000000003         -6.9631492217474473E-016
  0.19360000000000002          4.1096294242302901E-016
  0.19470000000000001          1.9314068556698606E-015
  0.19580000000000003          3.2432681909712715E-015
  0.19690000000000002          3.5463704608167503E-015
  0.19800000000000001          2.2325844549009408E-015
  0.19910000000000003         -7.3041599217517003E-016
  0.20020000000000002         -4.6082658088780759E-015
  0.20130000000000003         -7.9425102088239059E-015
  0.20240000000000002         -8.9926472572696842E-015
  0.20350000000000001         -6.5367705179124064E-015
  0.20460000000000003         -6.0998029493246212E-016
  0.20570000000000002          7.1661240445353505E-015
  0.20680000000000001          1.4063227883923893E-014
  0.20790000000000003          1.7095203494444343E-014
  0.20900000000000002          1.4411325390960468E-014
  0.21010000000000004          6.3610742853117096E-015
  0.21120000000000003         -4.4706640360471939E-015
  0.21230000000000002         -1.3849968704727784E-014
  0.21340000000000003         -1.8080072419139441E-014
  0.21450000000000002         -1.6003235723898411E-014
  0.21560000000000001         -1.0177768323222855E-014
  0.21670000000000003         -6.1342905310467905E-015
  0.21780000000000002         -8.7755086671751498E-015
  0.21890000000000001         -1.8584465292636326E-014
  0.22000000000000003         -3.0379836152153242E-014
  0.22110000000000002         -3.2021521529203636E-014
  0.22220000000000004         -9.7352181722379534E-015
  0.22330000000000003          4.3629071302996383E-014
  0.22440000000000002          1.2185539307197485E-013
  0.22550000000000003          1.9917536587046869E-013
  0.22660000000000002          2.3589864870526833E-013
  0.22770000000000001          1.9172715444350924E-013
  0.22880000000000003          4.2589168953652279E-014
  0.22990000000000002         -1.9887345622301295E-013
  0.23100000000000004         -4.7102079181460255E-013
  0.23210000000000003         -6.8179316359273656E-013
  0.23320000000000002         -7.3522904344563988E-013
  0.23430000000000004         -5.5360186920760945E-013
  0.23540000000000003         -1.2481179555590832E-013
  0.23650000000000002          4.5168859971744801E-013
  0.23760000000000003          1.0047004461027909E-012
  0.23870000000000002          1.3669343434941084E-012
  0.23980000000000001          1.4050660591610753E-012
  0.24090000000000000          1.0787361672329188E-012
  0.24200000000000005          4.8442060909467677E-013
  0.24310000000000004         -1.9468594217222218E-013
  0.24420000000000003         -7.3733174513895827E-013
  0.24530000000000002         -9.8887456383145445E-013
  0.24640000000000001         -9.6988519646123983E-013
  0.24750000000000005         -9.5476610558614672E-013
  0.24860000000000004         -1.2580459677474787E-012
  0.24970000000000003         -1.9455591651618143E-012
  0.25080000000000002         -2.7958262874966389E-012
  0.25190000000000001         -3.7058277453649868E-012
  0.25300000000000000         -4.3223558413019170E-012
  0.25410000000000005         -3.7942084370190532E-012
  0.25520000000000004         -1.5538915640322948E-012
  0.25630000000000003          2.4315783761497123E-012
  0.25740000000000002          7.5791638590172461E-012
  0.25850000000000001          1.2068850259450148E-011
  0.25960000000000005          1.3555099750983679E-011
  0.26070000000000004          1.1371856581399165E-011
  0.26180000000000003          6.0721675083919013E-012
  0.26290000000000002         -7.5525479967253339E-013
  0.26400000000000001         -7.2600692818669543E-012
  0.26510000000000000         -1.1892388115941621E-011
  0.26620000000000005         -1.2451133873936371E-011
  0.26730000000000004         -7.8209730358658192E-012
  0.26840000000000003          2.0125847060951940E-013
  0.26950000000000002          9.9404009329395748E-012
  0.27060000000000001          1.5009851001002161E-011
  0.27170000000000005          1.1030302539405401E-011
  0.27280000000000004         -7.7364953636124834E-013
  0.27390000000000003         -1.7679892272415287E-011
  0.27500000000000002         -3.4334306231453837E-011
  0.27610000000000001         -4.1879642115327798E-011
  0.27720000000000000         -3.0945048606900727E-011
  0.27830000000000005         -3.7681463851968466E-012
  0.27940000000000004          2.9125223066639450E-011
  0.28050000000000003          5.9449820066781456E-011
  0.28160000000000002          7.6822895267447677E-011
  0.28270000000000001          6.8813496567621257E-011
  0.28380000000000005          3.1552531420953045E-011
  0.28490000000000004         -2.5793292848796945E-011
  0.28600000000000003         -8.2725437611230745E-011
  0.28710000000000002         -1.1434368729634770E-010
  0.28820000000000001         -1.0465127375791639E-010
  0.28930000000000000         -5.3501567759406399E-011
  0.29040000000000005          2.5969358607991211E-011
  0.29150000000000004          1.0921769044713869E-010
  0.29260000000000003          1.6384850420880781E-010
  0.29370000000000002          1.5964694843884075E-010
  0.29480000000000001          8.4246533360587961E-011
  0.29590000000000005         -4.4156546474827252E-011
  0.29700000000000004         -1.7921431005873956E-010
  0.29810000000000003         -2.6513499729041712E-010
  0.29920000000000002         -2.5750429566429034E-010
  0.30030000000000001         -1.4023612826541410E-010
  0.30140000000000006          6.3763098967495324E-011
  0.30250000000000005          2.8955915443162894E-010
  0.30360000000000004          4.4575401703106365E-010
  0.30470000000000003          4.5308812257616182E-010
  0.30580000000000002          2.8079624736498943E-010
  0.30690000000000001         -3.6545752535310783E-011
  0.30800000000000005         -4.0381822885571239E-010
  0.30910000000000004         -6.9046102169068035E-010
  0.31020000000000003         -7.7106421247918888E-010
  0.31130000000000002         -5.7344223813871054E-010
  0.31240000000000001         -1.1838956204268669E-010
  0.31350000000000006          4.6631076777714497E-010
  0.31460000000000005          9.7622843142630700E-010
  0.31570000000000004          1.2013851025116651E-009
