  -1.3200000000000002E-002     0.0000000000000000
  -1.2100000000000001E-002     0.0000000000000000
  -1.1000000000000001E-002     0.0000000000000000
  -9.9000000000000025E-003     1.3629673778492446E-010
  -8.8000000000000023E-003     1.0660127225392557E-009
  -7.7000000000000011E-003     7.3904677933001039E-009
  -6.6000000000000017E-003     4.3662804927180332E-008
  -5.5000000000000014E-003     2.0113597543058859E-007
  -4.4000000000000011E-003     6.9906189992252621E-007
  -3.3000000000000008E-003     1.7093325368477963E-006
  -2.2000000000000006E-003     2.2483955035568215E-006
  -1.1000000000000003E-003    -1.9626741050160490E-006
  -1.7347234759768071E-018    -1.7569615010870621E-005
   1.0999999999999985E-003    -4.0759994590189308E-005
   2.1999999999999988E-003    -3.5645010939333588E-005
   3.2999999999999991E-003     5.7920577091863379E-005
   4.3999999999999994E-003     2.4900602875277400E-004
   5.4999999999999997E-003     4.1256140684708953E-004
   6.6000000000000000E-003     3.1335247331298888E-004
   7.7000000000000002E-003    -3.3713536686263978E-004
   8.8000000000000005E-003    -1.8970507662743330E-003
   9.9000000000000008E-003    -4.2503522709012032E-003
   1.1000000000000001E-002    -4.9028075300157070E-003
   1.2100000000000001E-002     1.9721505232155323E-003
   1.3199999999999998E-002     1.9647993147373199E-002
   1.4299999999999998E-002     3.6425817757844925E-002
   1.5399999999999999E-002     2.3545874282717705E-002
   1.6500000000000001E-002    -3.7788633257150650E-002
   1.7599999999999998E-002   -0.11662629991769791
   1.8700000000000001E-002   -0.13447137176990509
   1.9799999999999998E-002    -3.4930936992168427E-002
   2.0900000000000002E-002    0.14503712952136993
   2.1999999999999999E-002    0.29651150107383728
   2.3099999999999996E-002    0.33383873105049133
   2.4199999999999999E-002    0.23194876313209534
   2.5299999999999996E-002    -3.5020332783460617E-002
   2.6400000000000000E-002   -0.49437537789344788
   2.7499999999999997E-002    -1.0035774707794189
   2.8600000000000000E-002    -1.1415773630142212
   2.9699999999999997E-002   -0.51173317432403564
   3.0800000000000001E-002    0.70707350969314575
   3.1899999999999998E-002     1.6911581754684448
   3.3000000000000002E-002     1.7425253391265869
   3.4099999999999998E-002     1.1097673177719116
   3.5200000000000002E-002    0.70265102386474609
   3.6299999999999999E-002    0.83687841892242432
   3.7400000000000003E-002    0.60989284515380859
   3.8500000000000000E-002    -1.0629396438598633
   3.9599999999999996E-002    -3.9462378025054932
   4.0700000000000000E-002    -6.5710878372192383
   4.1799999999999997E-002    -7.9282622337341309
   4.2900000000000001E-002    -8.4648513793945312
   4.3999999999999997E-002    -8.9239025115966797
   4.5100000000000001E-002    -8.6882438659667969
   4.6199999999999998E-002    -6.2179846763610840
   4.7300000000000002E-002    -1.2531625032424927
   4.8399999999999999E-002     4.2820711135864258
   4.9500000000000002E-002     8.1483497619628906
   5.0600000000000006E-002     10.038135528564453
   5.1699999999999996E-002     11.254550933837891
   5.2800000000000000E-002     12.505983352661133
   5.3900000000000003E-002     12.981800079345703
   5.5000000000000007E-002     11.639571189880371
   5.6099999999999997E-002     8.3748741149902344
   5.7200000000000001E-002     3.5564398765563965
   5.8300000000000005E-002    -2.3869302272796631
   5.9399999999999994E-002    -7.8691005706787109
   6.0499999999999998E-002    -9.7346343994140625
   6.1600000000000002E-002    -6.1281199455261230
   6.2700000000000006E-002    -3.4967266023159027E-002
   6.3799999999999996E-002     2.2861657142639160
   6.4899999999999999E-002    -1.8803837299346924
   6.6000000000000003E-002    -7.6637048721313477
   6.7100000000000007E-002    -7.6404714584350586
   6.8199999999999997E-002   -0.79709804058074951
   6.9300000000000000E-002     5.8507037162780762
   7.0400000000000004E-002     5.5071473121643066
   7.1500000000000008E-002   -0.50182938575744629
   7.2599999999999998E-002    -4.8550391197204590
   7.3700000000000002E-002    -2.9638862609863281
   7.4800000000000005E-002     2.8253161907196045
   7.5899999999999995E-002     7.2901377677917480
   7.6999999999999999E-002     7.6735491752624512
   7.8100000000000003E-002     4.1705079078674316
   7.9200000000000007E-002    -1.9006751775741577
   8.0299999999999996E-002    -7.8385949134826660
   8.1400000000000000E-002    -9.3922882080078125
   8.2500000000000004E-002    -4.6713442802429199
   8.3600000000000008E-002     1.7427313327789307
   8.4699999999999998E-002     2.4305498600006104
   8.5800000000000001E-002    -3.3516323566436768
   8.6900000000000005E-002    -7.0466871261596680
   8.8000000000000009E-002    -1.0966918468475342
   8.9099999999999999E-002     10.044260025024414
   9.0200000000000002E-002     13.920035362243652
   9.1300000000000006E-002     5.5670146942138672
   9.2399999999999996E-002    -5.6418099403381348
   9.3500000000000000E-002    -7.4626822471618652
   9.4600000000000004E-002    0.20983758568763733
   9.5700000000000007E-002     6.1801295280456543
   9.6799999999999997E-002     2.5124537944793701
   9.7900000000000001E-002    -6.6940746307373047
   9.9000000000000005E-002    -11.950374603271484
  0.10010000000000001         -9.1995792388916016
  0.10120000000000000         -1.3476215600967407
  0.10230000000000000          7.0894227027893066
  0.10340000000000001          12.206991195678711
  0.10450000000000001          9.8913860321044922
  0.10560000000000000        -0.65085840225219727
  0.10670000000000000         -11.429893493652344
  0.10780000000000001         -10.180940628051758
  0.10890000000000001          4.8452372550964355
  0.11000000000000000          18.394893646240234
  0.11110000000000000          13.249042510986328
  0.11220000000000001         -8.3833160400390625
  0.11330000000000000         -24.770111083984375
  0.11440000000000002         -18.579395294189453
  0.11550000000000001          3.6758661270141602
  0.11660000000000000          19.970651626586914
  0.11770000000000001          17.118665695190430
  0.11880000000000000          1.6207664012908936
  0.11989999999999999         -11.673131942749023
  0.12100000000000001         -14.478097915649414
  0.12210000000000000         -7.3400440216064453
  0.12320000000000002          5.3355336189270020
  0.12430000000000001          16.370170593261719
  0.12540000000000001          16.246440887451172
  0.12650000000000003          1.2594238519668579
  0.12760000000000002         -17.723487854003906
  0.12870000000000001         -22.067996978759766
  0.12980000000000003         -5.6163110733032227
  0.13090000000000002          15.915977478027344
  0.13200000000000001          21.059001922607422
  0.13310000000000002          6.2201094627380371
  0.13420000000000001         -11.953003883361816
  0.13530000000000003         -16.859394073486328
  0.13640000000000002         -8.2430086135864258
  0.13750000000000001          3.1639044284820557
  0.13860000000000003          10.127367973327637
  0.13970000000000002          12.171445846557617
  0.14080000000000001          8.7846441268920898
  0.14190000000000003         -1.5082218647003174
  0.14300000000000002         -13.909144401550293
  0.14410000000000003         -16.922388076782227
  0.14520000000000002         -4.8880143165588379
  0.14630000000000001          12.377205848693848
  0.14740000000000003          18.376449584960938
  0.14850000000000002          8.0033731460571289
  0.14960000000000001         -7.6773571968078613
  0.15070000000000003         -14.851335525512695
  0.15180000000000002         -10.376180648803711
  0.15290000000000001        -0.42319098114967346
  0.15400000000000003          8.6994609832763672
  0.15510000000000002          13.482460975646973
  0.15620000000000003          10.452715873718262
  0.15730000000000002         -1.8561780452728271
  0.15840000000000001         -16.542984008789062
  0.15950000000000003         -20.095779418945312
  0.16060000000000002         -5.8716783523559570
  0.16170000000000001          15.776342391967773
  0.16280000000000003          25.457237243652344
  0.16390000000000002          13.881235122680664
  0.16500000000000001         -8.9464540481567383
  0.16610000000000003         -23.807905197143555
  0.16720000000000002         -19.557626724243164
  0.16830000000000003        -0.77183133363723755
  0.16940000000000002          17.935554504394531
  0.17050000000000001          22.975105285644531
  0.17160000000000003          10.425376892089844
  0.17270000000000002         -11.142870903015137
  0.17380000000000001         -25.498151779174805
  0.17490000000000003         -20.350017547607422
  0.17600000000000002          1.8495104312896729
  0.17710000000000004          24.160573959350586
  0.17820000000000003          28.276575088500977
  0.17930000000000001          9.8849334716796875
  0.18040000000000003         -17.106750488281250
  0.18150000000000002         -31.188776016235352
  0.18260000000000001         -20.343078613281250
  0.18370000000000003          7.5901455879211426
  0.18480000000000002          30.042335510253906
  0.18590000000000001          27.914093017578125
  0.18700000000000003          2.5342941284179688
  0.18810000000000002         -24.644258499145508
  0.18920000000000003         -31.024991989135742
  0.19030000000000002         -12.817520141601562
  0.19140000000000001          13.434325218200684
  0.19250000000000003          27.364702224731445
  0.19360000000000002          20.917819976806641
  0.19470000000000001         0.55112826824188232
  0.19580000000000003         -20.150783538818359
  0.19690000000000002         -27.571378707885742
  0.19800000000000001         -14.321406364440918
  0.19910000000000003          13.093929290771484
  0.20020000000000002          33.454635620117188
  0.20130000000000003          26.647354125976562
  0.20240000000000002         -4.4333353042602539
  0.20350000000000001         -32.401477813720703
  0.20460000000000003         -31.844818115234375
  0.20570000000000002         -5.5476593971252441
  0.20680000000000001          20.585083007812500
  0.20790000000000003          26.396339416503906
  0.20900000000000002          14.026441574096680
  0.21010000000000004         -3.2741129398345947
  0.21120000000000003         -17.297842025756836
  0.21230000000000002         -23.663505554199219
  0.21340000000000003         -14.897137641906738
  0.21450000000000002          10.716272354125977
  0.21560000000000001          35.038520812988281
  0.21670000000000003          30.922372817993164
  0.21780000000000002         -4.7867527008056641
  0.21890000000000001         -39.403839111328125
  0.22000000000000003         -37.507614135742188
  0.22110000000000002         -1.7745853662490845
  0.22220000000000004          30.862707138061523
  0.22330000000000003          32.409496307373047
  0.22440000000000002          10.156549453735352
  0.22550000000000003         -12.139955520629883
  0.22660000000000002         -23.388927459716797
  0.22770000000000001         -24.517864227294922
  0.22880000000000003         -12.089399337768555
  0.22990000000000002          16.260337829589844
  0.23100000000000004          41.715011596679688
  0.23210000000000003          33.071544647216797
  0.23320000000000002         -12.210483551025391
  0.23430000000000004         -51.488407135009766
  0.23540000000000003         -40.675716400146484
  0.23650000000000002          10.876023292541504
  0.23760000000000003          48.430797576904297
  0.23870000000000002          36.142498016357422
  0.23980000000000001         -5.2044959068298340
  0.24090000000000000         -31.649969100952148
  0.24200000000000005         -28.378021240234375
  0.24310000000000004         -12.175829887390137
  0.24420000000000003          4.0750536918640137
  0.24530000000000002          22.292110443115234
  0.24640000000000001          35.161365509033203
  0.24750000000000005          20.889080047607422
  0.24860000000000004         -21.455022811889648
  0.24970000000000003         -51.650451660156250
  0.25080000000000002         -30.070161819458008
  0.25190000000000001          26.054279327392578
  0.25300000000000000          55.165699005126953
  0.25410000000000005          25.774604797363281
  0.25520000000000004         -25.145755767822266
  0.25630000000000003         -41.705642700195312
  0.25740000000000002         -17.222169876098633
  0.25850000000000001          9.7153234481811523
  0.25960000000000005          14.744456291198730
  0.26070000000000004          11.724404335021973
  0.26180000000000003          14.847797393798828
  0.26290000000000002          9.8837490081787109
  0.26400000000000001         -15.966381072998047
  0.26510000000000000         -38.066326141357422
  0.26620000000000005         -20.753471374511719
  0.26730000000000004          25.561204910278320
  0.26840000000000003          47.063774108886719
  0.26950000000000002          16.181842803955078
  0.27060000000000001         -28.870500564575195
  0.27170000000000005         -34.451629638671875
  0.27280000000000004         -1.7718448638916016
  0.27390000000000003          21.848794937133789
  0.27500000000000002          13.070673942565918
  0.27610000000000001         -1.1373105049133301
  0.27720000000000000          5.5698356628417969
  0.27830000000000005          15.541807174682617
  0.27940000000000004        -0.22440300881862640
  0.28050000000000003         -27.800460815429688
  0.28160000000000002         -25.009313583374023
  0.28270000000000001          12.717827796936035
  0.28380000000000005          37.672145843505859
  0.28490000000000004          14.823808670043945
  0.28600000000000003         -27.396396636962891
  0.28710000000000002         -36.564559936523438
  0.28820000000000001         -8.3841047286987305
  0.28930000000000000          13.568534851074219
  0.29040000000000005          5.3082799911499023
  0.29150000000000004         -7.1064038276672363
  0.29260000000000003          3.4278011322021484
  0.29370000000000002          18.402320861816406
  0.29480000000000001          4.9272861480712891
  0.29590000000000005         -25.149003982543945
  0.29700000000000004         -25.665382385253906
  0.29810000000000003          13.768506050109863
  0.29920000000000002          44.850563049316406
  0.30030000000000001          25.223306655883789
  0.30140000000000006         -21.251699447631836
  0.30250000000000005         -37.193878173828125
  0.30360000000000004         -9.8277235031127930
  0.30470000000000003          17.832696914672852
  0.30580000000000002          13.177187919616699
  0.30690000000000001         -4.3031702041625977
  0.30800000000000005         -3.0488460063934326
  0.30910000000000004          8.5188655853271484
  0.31020000000000003         0.56864619255065918
  0.31130000000000002         -22.380216598510742
  0.31240000000000001         -22.208042144775391
  0.31350000000000006          12.122141838073730
  0.31460000000000005          39.216606140136719
  0.31570000000000004          20.706293106079102
