  -1.3200000000000002E-002     0.0000000000000000
  -1.2100000000000001E-002     0.0000000000000000
  -1.1000000000000001E-002     0.0000000000000000
  -9.9000000000000025E-003     0.0000000000000000
  -8.8000000000000023E-003     2.4188119819830133E-020
  -7.7000000000000011E-003     2.2809960340486642E-019
  -6.6000000000000017E-003     1.6066144989931163E-018
  -5.5000000000000014E-003     9.7316864352771521E-018
  -4.4000000000000011E-003     4.7165223105397899E-017
  -3.3000000000000008E-003     1.7485907288123401E-016
  -2.2000000000000006E-003     4.6646490864076504E-016
  -1.1000000000000003E-003     7.2579706857423313E-016
  -1.7347234759768071E-018    -2.7077811614971544E-016
   1.0999999999999985E-003    -5.1876655674366976E-015
   2.1999999999999988E-003    -1.5010899356740319E-014
   3.2999999999999991E-003    -1.9701161343044400E-014
   4.3999999999999994E-003     9.5629308237334815E-015
   5.4999999999999997E-003     1.0503406412849803E-013
   6.6000000000000000E-003     2.5154089423364001E-013
   7.7000000000000002E-003     3.1451864767120807E-013
   8.8000000000000005E-003    -3.7636485995893448E-014
   9.9000000000000008E-003    -1.3173084584955363E-012
   1.1000000000000001E-002    -3.6131809350026245E-012
   1.2100000000000001E-002    -4.8156838759749743E-012
   1.3199999999999998E-002     8.2180475532295238E-013
   1.4299999999999998E-002     1.8518049940685621E-011
   1.5399999999999999E-002     3.9991461531219130E-011
   1.6500000000000001E-002     3.3425397866215789E-011
   1.7599999999999998E-002    -3.7676257946817060E-011
   1.8700000000000001E-002    -1.6032519756237207E-010
   1.9799999999999998E-002    -2.3188642672700155E-010
   2.0900000000000002E-002    -1.0763567120930517E-010
   2.1999999999999999E-002     2.6433388811142322E-010
   2.3099999999999996E-002     7.3262912403393443E-010
   2.4199999999999999E-002     9.6386276737803200E-010
   2.5299999999999996E-002     5.7649007789706275E-010
   2.6400000000000000E-002    -6.7129335423743441E-010
   2.7499999999999997E-002    -2.5831872196846462E-009
   2.8600000000000000E-002    -4.1346934764874277E-009
   2.9699999999999997E-002    -3.4954690253385934E-009
   3.0800000000000001E-002     8.0934148272149287E-010
   3.1899999999999998E-002     7.8909740963695185E-009
   3.3000000000000002E-002     1.3612304172738732E-008
   3.4099999999999998E-002     1.2731293352885587E-008
   3.5200000000000002E-002     3.0432592001972125E-009
   3.6299999999999999E-002    -1.2343331690090054E-008
   3.7400000000000003E-002    -2.6970987221375253E-008
   3.8500000000000000E-002    -3.4733641740558596E-008
   3.9599999999999996E-002    -3.1110570120063130E-008
   4.0700000000000000E-002    -1.2444655084209444E-008
   4.1799999999999997E-002     2.1804064331831796E-008
   4.2900000000000001E-002     6.3219090407073963E-008
   4.3999999999999997E-002     9.3213749607912177E-008
   4.5100000000000001E-002     9.3386603339240537E-008
   4.6199999999999998E-002     5.9723454626237071E-008
   4.7300000000000002E-002     3.5854919033795341E-009
   4.8399999999999999E-002    -6.3759493684756308E-008
   4.9500000000000002E-002    -1.4260521652431635E-007
   5.0600000000000006E-002    -2.3215270061882620E-007
   5.1699999999999996E-002    -3.0515116122842301E-007
   5.2800000000000000E-002    -3.0519768756676058E-007
   5.3900000000000003E-002    -1.8100101328855089E-007
   5.5000000000000007E-002     7.3512254061824933E-008
   5.6099999999999997E-002     4.1469942857474962E-007
   5.7200000000000001E-002     7.7930496900080470E-007
   5.8300000000000005E-002     1.1079519026679918E-006
   5.9399999999999994E-002     1.3383004215938854E-006
   6.0499999999999998E-002     1.3948455261925119E-006
   6.1600000000000002E-002     1.2123410897402209E-006
   6.2700000000000006E-002     7.8174377904360881E-007
   6.3799999999999996E-002     1.6907715405523049E-007
   6.4899999999999999E-002    -5.1460352779031382E-007
   6.6000000000000003E-002    -1.1578011935853283E-006
   6.7100000000000007E-002    -1.6665489965816960E-006
   6.8199999999999997E-002    -1.9606470686994726E-006
   6.9300000000000000E-002    -1.9800031623162795E-006
   7.0400000000000004E-002    -1.7059250012607663E-006
   7.1500000000000008E-002    -1.1734523468476254E-006
   7.2599999999999998E-002    -4.6772200334999070E-007
   7.3700000000000002E-002     2.7878905939360266E-007
   7.4800000000000005E-002     8.9529561364543042E-007
   7.5899999999999995E-002     1.2269168792045093E-006
   7.6999999999999999E-002     1.2289892765693367E-006
   7.8100000000000003E-002     1.0081190566779696E-006
   7.9200000000000007E-002     7.2830033559512231E-007
   8.0299999999999996E-002     4.5276331661625591E-007
   8.1400000000000000E-002     1.0473937805954847E-007
   8.2500000000000004E-002    -3.8232724364206661E-007
   8.3600000000000008E-002    -8.9277779125040979E-007
   8.4699999999999998E-002    -1.1605992540353327E-006
   8.5800000000000001E-002    -1.0010303412855137E-006
   8.6900000000000005E-002    -4.9149110736834700E-007
   8.8000000000000009E-002     9.7056158665509429E-008
   8.9099999999999999E-002     5.3034585789646371E-007
   9.0200000000000002E-002     7.5190894222032512E-007
   9.1300000000000006E-002     8.2534887724250439E-007
   9.2399999999999996E-002     7.9906249084160663E-007
   9.3500000000000000E-002     6.5191932208108483E-007
   9.4600000000000004E-002     3.3919423003681004E-007
   9.5700000000000007E-002    -1.3557279032738734E-007
   9.6799999999999997E-002    -6.7044845764030470E-007
   9.7900000000000001E-002    -1.0599389952403726E-006
   9.9000000000000005E-002    -1.0810157391460962E-006
  0.10010000000000001         -6.6576279778018943E-007
  0.10120000000000000         -1.1245091968703491E-008
  0.10230000000000000          5.4292274853651179E-007
  0.10340000000000001          7.9817584719421575E-007
  0.10450000000000001          8.3107897808076814E-007
  0.10560000000000000          8.0246877587342169E-007
  0.10670000000000000          6.8112541384834913E-007
  0.10780000000000001          2.7025751592191227E-007
  0.10890000000000001         -4.5560997818938631E-007
  0.11000000000000000         -1.1428475090724532E-006
  0.11110000000000000         -1.3119492905389052E-006
  0.11220000000000001         -8.3120232829969609E-007
  0.11330000000000000         -6.5814177219181147E-008
  0.11440000000000002          4.7382661705341889E-007
  0.11550000000000001          5.8739448149935924E-007
  0.11660000000000000          4.7295549165937700E-007
  0.11770000000000001          4.3183732145735121E-007
  0.11880000000000000          5.5190190551002161E-007
  0.11989999999999999          6.5007151306417654E-007
  0.12100000000000001          4.5413023030960176E-007
  0.12210000000000000         -1.4297029338194989E-007
  0.12320000000000002         -9.1291769876988837E-007
  0.12430000000000001         -1.3552564723795513E-006
  0.12540000000000001         -1.0584224128251662E-006
  0.12650000000000003         -1.3014297906011052E-007
  0.12760000000000002          7.6437476081991917E-007
  0.12870000000000001          9.4502883030145313E-007
  0.12980000000000003          3.7547562214967911E-007
  0.13090000000000002         -2.8218903480592417E-007
  0.13200000000000001         -3.4048065344904899E-007
  0.13310000000000002          2.1688863682811643E-007
  0.13420000000000001          7.6348527500158525E-007
  0.13530000000000003          7.0866508394828998E-007
  0.13640000000000002          5.8315880124837349E-008
  0.13750000000000001         -6.7668491965378053E-007
  0.13860000000000003         -9.9214980764372740E-007
  0.13970000000000002         -7.5101905849805917E-007
  0.14080000000000001         -1.6649491385578585E-007
  0.14190000000000003          4.0015464719544980E-007
  0.14300000000000002          6.3210154621629044E-007
  0.14410000000000003          4.2430349367350573E-007
  0.14520000000000002         -1.7839271393427225E-008
  0.14630000000000001         -3.0137724138512567E-007
  0.14740000000000003         -1.8343725116665155E-007
  0.14850000000000002          1.9036009746287164E-007
  0.14960000000000001          4.3160341078873898E-007
  0.15070000000000003          2.9644138521689456E-007
  0.15180000000000002         -1.0820209439543760E-007
  0.15290000000000001         -4.7621458065805200E-007
  0.15400000000000003         -5.6905707879195688E-007
  0.15510000000000002         -3.2342009603780753E-007
  0.15620000000000003          1.6913310219024424E-007
  0.15730000000000002          6.6104843199354946E-007
  0.15840000000000001          7.9043235245990218E-007
  0.15950000000000003          3.2699563234928064E-007
  0.16060000000000002         -5.1397614697634708E-007
  0.16170000000000001         -1.1008097544618067E-006
  0.16280000000000003         -8.9758901822278858E-007
  0.16390000000000002         -5.9410325548014953E-009
  0.16500000000000001          8.6380271113739582E-007
  0.16610000000000003          1.0231492524326313E-006
  0.16720000000000002          4.2150125523221504E-007
  0.16830000000000003         -3.4809585258699371E-007
  0.16940000000000002         -6.1800807316103601E-007
  0.17050000000000001         -2.2566233326415386E-007
  0.17160000000000003          3.9502845083916327E-007
  0.17270000000000002          6.2874761397324619E-007
  0.17380000000000001          2.1236888869680115E-007
  0.17490000000000003         -5.4803643934064894E-007
  0.17600000000000002         -1.0358432973589515E-006
  0.17710000000000004         -8.3600082234625006E-007
  0.17820000000000003         -7.1280389590810955E-008
  0.17930000000000001          7.1421891334466636E-007
  0.18040000000000003          1.0012336133513600E-006
  0.18150000000000002          6.7477691345629864E-007
  0.18260000000000001          4.8007024133767118E-008
  0.18370000000000003         -4.2224152707603935E-007
  0.18480000000000002         -4.6589570956712123E-007
  0.18590000000000001         -1.5258265761985967E-007
  0.18700000000000003          1.9995655975435511E-007
  0.18810000000000002          2.8492004844338226E-007
  0.18920000000000003          4.5352994249014955E-008
  0.19030000000000002         -3.0522136285071610E-007
  0.19140000000000001         -4.9594109441386536E-007
  0.19250000000000003         -4.1768106484596501E-007
  0.19360000000000002         -1.3117131913986668E-007
  0.19470000000000001          2.5862144070742943E-007
  0.19580000000000003          6.2416603441306506E-007
  0.19690000000000002          7.4078411671507638E-007
  0.19800000000000001          3.9010484442769666E-007
  0.19910000000000003         -3.1744093575980514E-007
  0.20020000000000002         -8.3794230931744096E-007
  0.20130000000000003         -6.5343851929355878E-007
  0.20240000000000002          1.1083594841920785E-007
  0.20350000000000001          7.1405071366825723E-007
  0.20460000000000003          5.7484731996737537E-007
  0.20570000000000002         -9.6194924026349327E-008
  0.20680000000000001         -5.8534095614959369E-007
  0.20790000000000003         -4.9693562687025405E-007
  0.20900000000000002         -7.2249385141276434E-008
  0.21010000000000004          2.6857659918277932E-007
  0.21120000000000003          3.9693762232673180E-007
  0.21230000000000002          3.6364247080200585E-007
  0.21340000000000003          1.1137789357462680E-007
  0.21450000000000002         -3.7138778452572296E-007
  0.21560000000000001         -7.2637806169950636E-007
  0.21670000000000003         -4.6638868411719159E-007
  0.21780000000000002          3.4272420634806622E-007
  0.21890000000000001          9.6141138783423230E-007
  0.22000000000000003          7.7906770457047969E-007
  0.22110000000000002          3.4164227002975167E-008
  0.22220000000000004         -5.4273078831101884E-007
  0.22330000000000003         -6.3818771423029830E-007
  0.22440000000000002         -5.1907966280850815E-007
  0.22550000000000003         -3.5138072007612209E-007
  0.22660000000000002          8.9934225400156720E-008
  0.22770000000000001          7.7343167959043058E-007
  0.22880000000000003          9.7635154361341847E-007
  0.22990000000000002          1.1277442979462649E-007
  0.23100000000000004         -1.1537922546267509E-006
  0.23210000000000003         -1.3438075256999582E-006
  0.23320000000000002          3.0094543745917690E-008
  0.23430000000000004          1.6209022533075768E-006
  0.23540000000000003          1.7006944972308702E-006
  0.23650000000000002          1.7748990899235650E-007
  0.23760000000000003         -1.3799833595840028E-006
  0.23870000000000002         -1.6166377463378012E-006
  0.23980000000000001         -6.8068163727730280E-007
  0.24090000000000000          4.2722922444227152E-007
  0.24200000000000005          1.0758558346424252E-006
  0.24310000000000004          1.1282562581982347E-006
  0.24420000000000003          4.5161723960518430E-007
  0.24530000000000002         -8.2779297372326255E-007
  0.24640000000000001         -1.7240255374417757E-006
  0.24750000000000005         -1.0396156540082302E-006
  0.24860000000000004          9.6947690053639235E-007
  0.24970000000000003          2.3123000119085191E-006
  0.25080000000000002          1.3942641317044036E-006
  0.25190000000000001         -9.1581671313178958E-007
  0.25300000000000000         -2.1718806237913668E-006
  0.25410000000000005         -1.2498090882218094E-006
  0.25520000000000004          4.9550192215974675E-007
  0.25630000000000003          1.2020303756798967E-006
  0.25740000000000002          7.2544037266197847E-007
  0.25850000000000001          1.9446129329026007E-007
  0.25960000000000005          3.6740601672136108E-008
  0.26070000000000004         -3.5815003229799913E-007
  0.26180000000000003         -1.0696769550122553E-006
  0.26290000000000002         -1.0375463261880213E-006
  0.26400000000000001          3.0773639991821256E-007
  0.26510000000000000          1.6998967566905776E-006
  0.26620000000000005          1.4050943946131156E-006
  0.26730000000000004         -3.8365348586921755E-007
  0.26840000000000003         -1.6391812778238091E-006
  0.26950000000000002         -1.1014759593308554E-006
  0.27060000000000001          2.6452988777236897E-007
  0.27170000000000005          8.8233832684636582E-007
  0.27280000000000004          6.5337582100255531E-007
  0.27390000000000003          4.8395997964689741E-007
  0.27500000000000002          4.0007847701417631E-007
  0.27610000000000001         -4.2834520286305633E-007
  0.27720000000000000         -1.7355779391436954E-006
  0.27830000000000005         -1.7509830740891630E-006
  0.27940000000000004          3.5620723792817444E-007
  0.28050000000000003          2.6356233320257161E-006
  0.28160000000000002          2.3544064333691495E-006
  0.28270000000000001         -4.2463454974495107E-007
  0.28380000000000005         -2.6563429855741560E-006
  0.28490000000000004         -2.0165857677056920E-006
  0.28600000000000003          4.1512180359859485E-007
  0.28710000000000002          1.9005827880391735E-006
  0.28820000000000001          1.4520212516799802E-006
  0.28930000000000000          2.8738946866724291E-007
  0.29040000000000005         -5.1814373591696494E-007
  0.29150000000000004         -1.1646932307485258E-006
  0.29260000000000003         -1.6853850866027642E-006
  0.29370000000000002         -1.0498412166271009E-006
  0.29480000000000001          1.1066003935411572E-006
  0.29590000000000005          2.8816125450248364E-006
  0.29700000000000004          1.9294552657811437E-006
  0.29810000000000003         -1.2073153357050614E-006
  0.29920000000000002         -3.1746562854095828E-006
  0.30030000000000001         -1.8013741964750807E-006
  0.30140000000000006          1.2042228263453580E-006
  0.30250000000000005          2.5198821731464704E-006
  0.30360000000000004          1.2675715197474346E-006
  0.30470000000000003         -5.4330865850715782E-007
  0.30580000000000002         -1.1692102361848811E-006
  0.30690000000000001         -9.9252019936102442E-007
  0.30800000000000005         -8.7001973270162125E-007
  0.30910000000000004         -3.4155107186961686E-007
  0.31020000000000003          1.1691520285239676E-006
  0.31130000000000002          2.3883053472673055E-006
  0.31240000000000001          1.3305619859238504E-006
  0.31350000000000006         -1.5638984223187435E-006
  0.31460000000000005         -3.1861875413596863E-006
  0.31570000000000004         -1.5067561207615654E-006
