  -1.3200000000000002E-002     0.0000000000000000
  -1.2100000000000001E-002     0.0000000000000000
  -1.1000000000000001E-002     0.0000000000000000
  -9.9000000000000025E-003     0.0000000000000000
  -8.8000000000000023E-003     0.0000000000000000
  -7.7000000000000011E-003     0.0000000000000000
  -6.6000000000000017E-003     0.0000000000000000
  -5.5000000000000014E-003     0.0000000000000000
  -4.4000000000000011E-003     0.0000000000000000
  -3.3000000000000008E-003     0.0000000000000000
  -2.2000000000000006E-003     0.0000000000000000
  -1.1000000000000003E-003     0.0000000000000000
  -1.7347234759768071E-018     0.0000000000000000
   1.0999999999999985E-003     0.0000000000000000
   2.1999999999999988E-003     0.0000000000000000
   3.2999999999999991E-003     0.0000000000000000
   4.3999999999999994E-003     0.0000000000000000
   5.4999999999999997E-003     0.0000000000000000
   6.6000000000000000E-003     0.0000000000000000
   7.7000000000000002E-003     0.0000000000000000
   8.8000000000000005E-003     0.0000000000000000
   9.9000000000000008E-003     0.0000000000000000
   1.1000000000000001E-002     0.0000000000000000
   1.2100000000000001E-002     0.0000000000000000
   1.3199999999999998E-002     0.0000000000000000
   1.4299999999999998E-002     0.0000000000000000
   1.5399999999999999E-002     0.0000000000000000
   1.6500000000000001E-002     0.0000000000000000
   1.7599999999999998E-002     0.0000000000000000
   1.8700000000000001E-002     0.0000000000000000
   1.9799999999999998E-002     0.0000000000000000
   2.0900000000000002E-002     0.0000000000000000
   2.1999999999999999E-002     0.0000000000000000
   2.3099999999999996E-002     0.0000000000000000
   2.4199999999999999E-002     0.0000000000000000
   2.5299999999999996E-002     0.0000000000000000
   2.6400000000000000E-002     0.0000000000000000
   2.7499999999999997E-002     0.0000000000000000
   2.8600000000000000E-002     0.0000000000000000
   2.9699999999999997E-002     0.0000000000000000
   3.0800000000000001E-002     0.0000000000000000
   3.1899999999999998E-002     0.0000000000000000
   3.3000000000000002E-002     0.0000000000000000
   3.4099999999999998E-002     0.0000000000000000
   3.5200000000000002E-002     0.0000000000000000
   3.6299999999999999E-002     0.0000000000000000
   3.7400000000000003E-002     0.0000000000000000
   3.8500000000000000E-002     0.0000000000000000
   3.9599999999999996E-002     0.0000000000000000
   4.0700000000000000E-002     0.0000000000000000
   4.1799999999999997E-002    -2.2246824291445156E-036
   4.2900000000000001E-002    -1.0580851083646624E-035
   4.3999999999999997E-002     6.1054899640291512E-036
   4.5100000000000001E-002     8.1861053509560960E-035
   4.6199999999999998E-002     5.7820294188418412E-035
   4.7300000000000002E-002    -3.9746269575709167E-034
   4.8399999999999999E-002    -8.2472564267546686E-034
   4.9500000000000002E-002     1.0997168421804980E-033
   5.0600000000000006E-002     5.8162240903297808E-033
   5.1699999999999996E-002     1.9278037558508435E-033
   5.2800000000000000E-002    -2.6802064657434960E-032
   5.3900000000000003E-002    -4.4846091021653205E-032
   5.5000000000000007E-002     6.9065853199088781E-032
   5.6099999999999997E-002     3.0123747206629810E-031
   5.7200000000000001E-002     8.5738024758651629E-032
   5.8300000000000005E-002    -1.2275875584733280E-030
   5.9399999999999994E-002    -2.0151068955016333E-030
   6.0499999999999998E-002     2.5221784830226225E-030
   6.1600000000000002E-002     1.1779775215126933E-029
   6.2700000000000006E-002     5.6036297186184542E-030
   6.3799999999999996E-002    -3.9411845195951517E-029
   6.4899999999999999E-002    -7.5286924679092467E-029
   6.6000000000000003E-002     4.8614781064584399E-029
   6.7100000000000007E-002     3.4867820529638856E-028
   6.8199999999999997E-002     2.9698340484236718E-028
   6.9300000000000000E-002    -8.5207358526269522E-028
   7.0400000000000004E-002    -2.2198387946663832E-027
   7.1500000000000008E-002    -8.9272973768452887E-029
   7.2599999999999998E-002     7.4504684639537772E-027
   7.3700000000000002E-002     1.0582187709410885E-026
   7.4800000000000005E-002    -9.8793657985254283E-027
   7.5899999999999995E-002    -4.7901630969186178E-026
   7.6999999999999999E-002    -3.5148267707385720E-026
   7.8100000000000003E-002     1.0062340544747486E-025
   7.9200000000000007E-002     2.4817063644616282E-025
   8.0299999999999996E-002     4.3180292288462600E-026
   8.1400000000000000E-002    -6.7570156938022594E-025
   8.2500000000000004E-002    -1.0736870236601103E-024
   8.3600000000000008E-002     4.2971728558478644E-025
   8.4699999999999998E-002     3.6348079661465312E-024
   8.5800000000000001E-002     3.9343830225000944E-024
   8.6900000000000005E-002    -4.3655771543070677E-024
   8.8000000000000009E-002    -1.6751737423685013E-023
   8.9099999999999999E-002    -1.2225845195205763E-023
   9.0200000000000002E-002     2.6189868086697314E-023
   9.1300000000000006E-002     6.8589455157711336E-023
   9.2399999999999996E-002     3.1945177947858165E-023
   9.3500000000000000E-002    -1.2425459189751612E-022
   9.4600000000000004E-002    -2.5598844345719231E-022
   9.5700000000000007E-002    -6.9708217693495775E-023
   9.6799999999999997E-002     5.0382806735942193E-022
   9.7900000000000001E-002     8.8936759056243114E-022
   9.9000000000000005E-002     1.3646951610235000E-022
  0.10010000000000001         -1.8012013338603815E-021
  0.10120000000000000         -2.9259278600366830E-021
  0.10230000000000000         -3.5820737348149920E-022
  0.10340000000000001          5.7383259887940299E-021
  0.10450000000000001          9.2124914277620652E-021
  0.10560000000000000          1.7499486495731634E-021
  0.10670000000000000         -1.6186276688786181E-020
  0.10780000000000001         -2.7759544815948855E-020
  0.10890000000000001         -9.8573990764886253E-021
  0.11000000000000000          3.9107005560581624E-020
  0.11110000000000000          7.8894974635750456E-020
  0.11220000000000001          4.7981642175729794E-020
  0.11330000000000000         -7.2800824870342594E-020
  0.11440000000000002         -2.0451005377138211E-019
  0.11550000000000001         -1.9456477079377756E-019
  0.11660000000000000          5.7618060436251018E-020
  0.11770000000000001          4.5182688518814240E-019
  0.11880000000000000          6.5633653829391530E-019
  0.11989999999999999          2.9337172760778400E-019
  0.12100000000000001         -7.0623067697583024E-019
  0.12210000000000000         -1.7985557630766054E-018
  0.12320000000000002         -1.8894252756783120E-018
  0.12430000000000001          5.6463166859317106E-021
  0.12540000000000001          3.6402353466177441E-018
  0.12650000000000003          6.6822317539509059E-018
  0.12760000000000002          5.2813157733989543E-018
  0.12870000000000001         -3.2001194260481860E-018
  0.12980000000000003         -1.6216199275361039E-017
  0.13090000000000002         -2.3982664221070420E-017
  0.13200000000000001         -1.3301780588263156E-017
  0.13310000000000002          2.1538110591682258E-017
  0.13420000000000001          6.6027085123754667E-017
  0.13530000000000003          8.2513701321887867E-017
  0.13640000000000002          2.8548196622189476E-017
  0.13750000000000001         -1.0403719894086876E-016
  0.13860000000000003         -2.5109420865604838E-016
  0.13970000000000002         -2.7787474347026918E-016
  0.14080000000000001         -5.1734628366144927E-017
  0.14190000000000003          4.2663763121910466E-016
  0.14300000000000002          9.1188295436639205E-016
  0.14410000000000003          9.4379036785210632E-016
  0.14520000000000002          1.0256336823009118E-016
  0.14630000000000001         -1.5675503006496198E-015
  0.14740000000000003         -3.2187368462693660E-015
  0.14850000000000002         -3.3145119204065938E-015
  0.14960000000000001         -4.5255255130079077E-016
  0.15070000000000003          5.2738829335553447E-015
  0.15180000000000002          1.1142392313445628E-014
  0.15290000000000001          1.2059159789181480E-014
  0.15400000000000003          3.0805116571893049E-015
  0.15510000000000002         -1.6186316813249745E-014
  0.15620000000000003         -3.7583773441519919E-014
  0.15730000000000002         -4.4505089717705726E-014
  0.15840000000000001         -1.9187425696139300E-014
  0.15950000000000003          4.3342306604637545E-014
  0.16060000000000002          1.2108735780551327E-013
  0.16170000000000001          1.6205736568224854E-013
  0.16280000000000003          1.0322055303589941E-013
  0.16390000000000002         -8.7322096981642255E-014
  0.16500000000000001         -3.6107754156425309E-013
  0.16610000000000003         -5.6612852426807247E-013
  0.16720000000000002         -4.8732345199128946E-013
  0.16830000000000003          3.5172880504408949E-014
  0.16940000000000002          9.4228596279888333E-013
  0.17050000000000001          1.8378846621674994E-012
  0.17160000000000003          2.0363281373614317E-012
  0.17270000000000002          8.5825937285941012E-013
  0.17380000000000001         -1.8658900379636689E-012
  0.17490000000000003         -5.3024667989731711E-012
  0.17600000000000002         -7.4907927083422976E-012
  0.17710000000000004         -5.9320695057485384E-012
  0.17820000000000003          1.0322467706991301E-012
  0.17930000000000001          1.2470021543142806E-011
  0.18040000000000003          2.3684661870637669E-011
  0.18150000000000002          2.6800282479366722E-011
  0.18260000000000001          1.3881606801546820E-011
  0.18370000000000003         -1.7811337474360478E-011
  0.18480000000000002         -6.0485207120652973E-011
  0.18590000000000001         -9.3796255484779323E-011
  0.18700000000000003         -8.9573522210617540E-011
  0.18810000000000002         -2.4572673756884100E-011
  0.18920000000000003          1.0166289338142676E-010
  0.19030000000000002          2.5168381267981488E-010
  0.19140000000000001          3.4867500553481534E-010
  0.19250000000000003          2.9786798028119676E-010
  0.19360000000000002          3.1896093405370252E-011
  0.19470000000000001         -4.3225409362968037E-010
  0.19580000000000003         -9.5086605256256007E-010
  0.19690000000000002         -1.2584236985802022E-009
  0.19800000000000001         -1.0443064191179019E-009
  0.19910000000000003         -9.9357799765442678E-011
  0.20020000000000002          1.5088827964859775E-009
  0.20130000000000003          3.3111191566348452E-009
  0.20240000000000002          4.4552659339558431E-009
  0.20350000000000001          3.9366767623505439E-009
  0.20460000000000003          1.0322183108257832E-009
  0.20570000000000002         -4.1764893765616762E-009
  0.20680000000000001         -1.0406390416051181E-008
  0.20790000000000003         -1.5160592781171545E-008
  0.20900000000000002         -1.5294126853859780E-008
  0.21010000000000004         -8.1666655660228571E-009
  0.21120000000000003          6.8787993079411081E-009
  0.21230000000000002          2.7236467303737300E-008
  0.21340000000000003          4.6617209648047719E-008
  0.21450000000000002          5.6040846629912267E-008
  0.21560000000000001          4.6405478570932246E-008
  0.21670000000000003          1.2192686860146296E-008
  0.21780000000000002         -4.4769073781480984E-008
  0.21890000000000001         -1.1296863533516444E-007
  0.22000000000000003         -1.7172300204038038E-007
  0.22110000000000002         -1.9529431938281050E-007
  0.22220000000000004         -1.6021272131183650E-007
  0.22330000000000003         -5.4069861477046288E-008
  0.22440000000000002          1.1698161017648090E-007
  0.22550000000000003          3.2502831004421751E-007
  0.22660000000000002          5.2366738145792624E-007
  0.22770000000000001          6.5808904992081807E-007
  0.22880000000000003          6.7996353436683421E-007
  0.22990000000000002          5.6304332929357770E-007
  0.23100000000000004          3.1441877013094199E-007
  0.23210000000000003         -2.2962103329859929E-008
  0.23320000000000002         -3.7853078538319096E-007
  0.23430000000000004         -6.7171265527576907E-007
  0.23540000000000003         -8.3416529150781571E-007
  0.23650000000000002         -8.2983240190515062E-007
  0.23760000000000003         -6.6614336446946254E-007
  0.23870000000000002         -3.9221978909154132E-007
  0.23980000000000001         -8.4125133525958518E-008
  0.24090000000000000          1.7831845866567164E-007
  0.24200000000000005          3.3551162914591259E-007
  0.24310000000000004          3.6479880805018183E-007
  0.24420000000000003          2.8430159204617667E-007
  0.24530000000000002          1.4284613314430317E-007
  0.24640000000000001          5.4005761668252106E-011
  0.24750000000000005         -9.5745264161450905E-008
  0.24860000000000004         -1.2341760680101288E-007
  0.24970000000000003         -9.2954955732693634E-008
  0.25080000000000002         -3.6542175507747743E-008
  0.25190000000000001          8.8763556505000452E-009
  0.25300000000000000          1.9723636057733529E-008
  0.25410000000000005         -3.3922973319278071E-009
  0.25520000000000004         -3.6971179895317619E-008
  0.25630000000000003         -4.7457810126161348E-008
  0.25740000000000002         -9.8317842756046048E-009
  0.25850000000000001          7.6723267738998402E-008
  0.25960000000000005          1.8385441080681630E-007
  0.26070000000000004          2.6311369083487079E-007
  0.26180000000000003          2.6621219717526401E-007
  0.26290000000000002          1.6824446902319323E-007
  0.26400000000000001         -1.6388261414590488E-008
  0.26510000000000000         -2.3332786724949983E-007
  0.26620000000000005         -4.0489609887117695E-007
  0.26730000000000004         -4.5874344323237892E-007
  0.26840000000000003         -3.5768590578300063E-007
  0.26950000000000002         -1.1854387338416927E-007
  0.27060000000000001          1.8859418560168706E-007
  0.27170000000000005          4.6191289015951043E-007
  0.27280000000000004          6.0321082173686591E-007
  0.27390000000000003          5.5422106015612371E-007
  0.27500000000000002          3.2010746053856565E-007
  0.27610000000000001         -2.9281203239861497E-008
  0.27720000000000000         -3.8164512261573691E-007
  0.27830000000000005         -6.2035991277298308E-007
  0.27940000000000004         -6.6483397631600383E-007
  0.28050000000000003         -4.9852582151288516E-007
  0.28160000000000002         -1.7461375989569206E-007
  0.28270000000000001          2.0244007714609324E-007
  0.28380000000000005          5.1246553312012111E-007
  0.28490000000000004          6.5948762539846939E-007
  0.28600000000000003          6.0217422515052021E-007
  0.28710000000000002          3.6502990496956045E-007
  0.28820000000000001          2.7655829626382911E-008
  0.28930000000000000         -3.0309846010823094E-007
  0.29040000000000005         -5.2798390015595942E-007
  0.29150000000000004         -5.8558049431667314E-007
  0.29260000000000003         -4.6868782987985469E-007
  0.29370000000000002         -2.2281913913957396E-007
  0.29480000000000001          7.1287587388724205E-008
  0.29590000000000005          3.2441820962958445E-007
  0.29700000000000004          4.6596662173215009E-007
  0.29810000000000003          4.6325854441420233E-007
  0.29920000000000002          3.2818610407048254E-007
  0.30030000000000001          1.1042396863558679E-007
  0.30140000000000006         -1.1969633817443537E-007
  0.30250000000000005         -2.9313042659850908E-007
  0.30360000000000004         -3.6256381008570315E-007
  0.30470000000000003         -3.1569081215820916E-007
  0.30580000000000002         -1.7754288705873478E-007
  0.30690000000000001         -9.8787011904022393E-010
  0.30800000000000005          1.5190410351806349E-007
  0.30910000000000004          2.3159888939972006E-007
  0.31020000000000003          2.1824936879966117E-007
  0.31130000000000002          1.2774954427641205E-007
  0.31240000000000001          4.1896064395530175E-009
  0.31350000000000006         -9.8451884866790351E-008
  0.31460000000000005         -1.3817907529301010E-007
  0.31570000000000004         -1.0176992049082401E-007
