  -1.3200000000000002E-002     0.0000000000000000
  -1.2100000000000001E-002     1.4779982251099388E-013
  -1.1000000000000001E-002     1.5196256796315422E-012
  -9.9000000000000025E-003     1.2145874583868732E-011
  -8.8000000000000023E-003     8.0062650953394154E-011
  -7.7000000000000011E-003     4.3405656846573493E-010
  -6.6000000000000017E-003     1.9328829647946577E-009
  -5.5000000000000014E-003     7.0626069437196293E-009
  -4.4000000000000011E-003     2.1137044114993842E-008
  -3.3000000000000008E-003     5.1647667476117931E-008
  -2.2000000000000006E-003     1.0245866377545099E-007
  -1.1000000000000003E-003     1.6339724595582084E-007
  -1.7347234759768071E-018     2.0572574044308567E-007
   1.0999999999999985E-003     1.9728310007849359E-007
   2.1999999999999988E-003     1.3233545814728132E-007
   3.2999999999999991E-003     4.5141305804463627E-008
   4.3999999999999994E-003    -1.5622863003272869E-008
   5.4999999999999997E-003    -2.8490351411392112E-008
   6.6000000000000000E-003    -1.0294447072567436E-008
   7.7000000000000002E-003     1.1332260463348121E-008
   8.8000000000000005E-003     2.3814656913145882E-008
   9.9000000000000008E-003     2.5580158435900557E-008
   1.1000000000000001E-002     1.3227244188840359E-008
   1.2100000000000001E-002    -1.1541580136054108E-008
   1.3199999999999998E-002    -2.9540563772911810E-008
   1.4299999999999998E-002    -1.8482337438285867E-008
   1.5399999999999999E-002     1.5822658738784412E-008
   1.6500000000000001E-002     3.7674109165664049E-008
   1.7599999999999998E-002     2.1267993588480749E-008
   1.8700000000000001E-002    -1.6632721866471911E-008
   1.9799999999999998E-002    -3.5920376006970400E-008
   2.0900000000000002E-002    -2.0354891105966999E-008
   2.1999999999999999E-002     7.9560242838283557E-009
   2.3099999999999996E-002     2.0720531068718628E-008
   2.4199999999999999E-002     1.4640161971612997E-008
   2.5299999999999996E-002     3.8719876194193148E-009
   2.6400000000000000E-002    -4.6383723528720111E-009
   2.7499999999999997E-002    -1.3306503454657559E-008
   2.8600000000000000E-002    -1.7667192153680844E-008
   2.9699999999999997E-002    -6.7266032743873438E-009
   3.0800000000000001E-002     1.6079658493595161E-008
   3.1899999999999998E-002     2.7439613248247952E-008
   3.3000000000000002E-002     1.1196783944456001E-008
   3.4099999999999998E-002    -1.7213539038607450E-008
   3.5200000000000002E-002    -2.6694838339835769E-008
   3.6299999999999999E-002    -8.5933722360209686E-009
   3.7400000000000003E-002     1.4148128002489102E-008
   3.8500000000000000E-002     1.7884307368376540E-008
   3.9599999999999996E-002     5.4262829785045597E-009
   4.0700000000000000E-002    -4.9053290318568088E-009
   4.1799999999999997E-002    -6.4203504734905437E-009
   4.2900000000000001E-002    -6.8821472964941677E-009
   4.3999999999999997E-002    -8.8624787508706504E-009
   4.5100000000000001E-002    -3.7121725693367580E-009
   4.6199999999999998E-002     1.0522044568972433E-008
   4.7300000000000002E-002     1.8755713426799048E-008
   4.8399999999999999E-002     7.4845898367925656E-009
   4.9500000000000002E-002    -1.3259651154839958E-008
   5.0600000000000006E-002    -1.9586609667499033E-008
   5.1699999999999996E-002    -4.4904275853241415E-009
   5.2800000000000000E-002     1.3206540749877149E-008
   5.3900000000000003E-002     1.4110624668717264E-008
   5.5000000000000007E-002     1.7519244943642320E-009
   5.6099999999999997E-002    -6.7829888372727964E-009
   5.7200000000000001E-002    -5.5591256042930581E-009
   5.8300000000000005E-002    -3.2632467839022183E-009
   5.9399999999999994E-002    -4.7472528130754199E-009
   6.0499999999999998E-002    -2.8872877422259080E-009
   6.1600000000000002E-002     6.6275069876553516E-009
   6.2700000000000006E-002     1.3530384812554530E-008
   6.3799999999999996E-002     6.0075695529349105E-009
   6.4899999999999999E-002    -9.8787333868699534E-009
   6.6000000000000003E-002    -1.5338518011276392E-008
   6.7100000000000007E-002    -3.5878657822507876E-009
   6.8199999999999997E-002     1.0888969725897368E-008
   6.9300000000000000E-002     1.1797181898032250E-008
   7.0400000000000004E-002     1.3167638091005074E-009
   7.1500000000000008E-002    -6.1861378242156206E-009
   7.2599999999999998E-002    -4.8964063914525013E-009
   7.3700000000000002E-002    -1.9760011404912348E-009
   7.4800000000000005E-002    -2.6331474778373831E-009
   7.5899999999999995E-002    -1.8487302799741201E-009
   7.6999999999999999E-002     4.6363917149960798E-009
   7.8100000000000003E-002     9.7374508456482545E-009
   7.9200000000000007E-002     4.0506633602888087E-009
   8.0299999999999996E-002    -8.3049203070117983E-009
   8.1400000000000000E-002    -1.2500800394832368E-008
   8.2500000000000004E-002    -2.5943065473654769E-009
   8.3600000000000008E-002     9.8745740473304977E-009
   8.4699999999999998E-002     1.0882030387904251E-008
   8.5800000000000001E-002     1.3946095389627544E-009
   8.6900000000000005E-002    -6.2278071588650619E-009
   8.8000000000000009E-002    -5.4807505200926698E-009
   8.9099999999999999E-002    -1.5365740901884806E-009
   9.0200000000000002E-002    -2.7044727568537041E-010
   9.1300000000000006E-002     2.0701498848474387E-010
   9.2399999999999996E-002     3.2944609262841595E-009
   9.3500000000000000E-002     5.5053903658119907E-009
   9.4600000000000004E-002     1.2050943576369377E-009
   9.5700000000000007E-002    -6.7132135406211546E-009
   9.6799999999999997E-002    -8.3597280209346536E-009
   9.7900000000000001E-002    -3.1080160667329437E-010
   9.9000000000000005E-002     8.5172846553405179E-009
  0.10010000000000001          8.0010211789272034E-009
  0.10120000000000000         -2.9919194899363788E-010
  0.10230000000000000         -6.1512364091242944E-009
  0.10340000000000001         -4.3238248537136315E-009
  0.10450000000000001          3.8203973318218232E-010
  0.10560000000000000          1.8677137614275807E-009
  0.10670000000000000          7.7014172816802784E-010
  0.10780000000000001          8.8244545004556585E-010
  0.10890000000000001          1.7994377099483927E-009
  0.11000000000000000          1.0028371189019225E-010
  0.11110000000000000         -3.6267506775544689E-009
  0.11220000000000001         -4.2381942400027128E-009
  0.11330000000000000          3.3737393434485341E-010
  0.11440000000000002          5.0792672290356222E-009
  0.11550000000000001          4.2304115766000905E-009
  0.11660000000000000         -8.9977841843946749E-010
  0.11770000000000001         -3.9081373692795296E-009
  0.11880000000000000         -1.9385195670906796E-009
  0.11989999999999999          1.3432714940364576E-009
  0.12100000000000001          1.7636938576259809E-009
  0.12210000000000000          1.0255083587873415E-010
  0.12320000000000002         -4.0895342667823797E-010
  0.12430000000000001          4.9141268831931484E-010
  0.12540000000000001          2.9480679009097344E-010
  0.12650000000000003         -1.5321021118452904E-009
  0.12760000000000002         -2.2851247560851107E-009
  0.12870000000000001         -2.6869231839476981E-010
  0.12980000000000003          2.2518222841938496E-009
  0.13090000000000002          2.1020267748639299E-009
  0.13200000000000001         -3.1427799251915189E-010
  0.13310000000000002         -1.7165959764753325E-009
  0.13420000000000001         -5.7981935919215744E-010
  0.13530000000000003          1.1133157729048548E-009
  0.13640000000000002          1.0909175784945546E-009
  0.13750000000000001         -1.5387191520943588E-010
  0.13860000000000003         -6.6678629284666613E-010
  0.13970000000000002         -9.3223734287661841E-011
  0.14080000000000001          1.9873716561313870E-010
  0.14190000000000003         -4.0270153878196879E-010
  0.14300000000000002         -8.3182655208347001E-010
  0.14410000000000003         -2.2952743872206582E-010
  0.14520000000000002          5.9699251098166428E-010
  0.14630000000000001          4.4875575477831831E-010
  0.14740000000000003         -3.6442407425063550E-010
  0.14850000000000002         -4.8663872931342667E-010
  0.14960000000000001          4.1322284483058525E-010
  0.15070000000000003          1.1152843093498177E-009
  0.15180000000000002          5.9003796293310984E-010
  0.15290000000000001         -5.8133287073047768E-010
  0.15400000000000003         -1.0332878996877071E-009
  0.15510000000000002         -3.5318842295239961E-010
  0.15620000000000003          6.0014548886044849E-010
  0.15730000000000002          8.7802282111582031E-010
  0.15840000000000001          3.5968708567146734E-010
  0.15950000000000003         -4.7106407663477512E-010
  0.16060000000000002         -1.0964206209607141E-009
  0.16170000000000001         -1.1261721555300142E-009
  0.16280000000000003         -3.6624936416984610E-010
  0.16390000000000002          8.5007384464930169E-010
  0.16500000000000001          1.5976550082896779E-009
  0.16610000000000003          1.0960954366368014E-009
  0.16720000000000002         -3.7295730392905568E-010
  0.16830000000000003         -1.5357526361725604E-009
  0.16940000000000002         -1.2986278719040456E-009
  0.17050000000000001          1.8220626396558970E-010
  0.17160000000000003          1.6316202833266402E-009
  0.17270000000000002          1.7924239870126257E-009
  0.17380000000000001          4.6985287882606031E-010
  0.17490000000000003         -1.3457484016043963E-009
  0.17600000000000002         -2.2602744120803209E-009
  0.17710000000000004         -1.5354797433531076E-009
  0.17820000000000003          3.2546573769387521E-010
  0.17930000000000001          1.9166446207918852E-009
  0.18040000000000003          2.0010642032275427E-009
  0.18150000000000002          5.0828452557993842E-010
  0.18260000000000001         -1.3708310042659377E-009
  0.18370000000000003         -2.1138426564704105E-009
  0.18480000000000002         -1.0905534253424776E-009
  0.18590000000000001          9.0707857891558774E-010
  0.18700000000000003          2.2778048336391521E-009
  0.18810000000000002          1.9030375053574744E-009
  0.18920000000000003          6.5192733156305138E-011
  0.19030000000000002         -1.7975380073309566E-009
  0.19140000000000001         -2.2889112827328972E-009
  0.19250000000000003         -1.1382597087106205E-009
  0.19360000000000002          7.2142131157804101E-010
  0.19470000000000001          1.9651615890126095E-009
  0.19580000000000003          1.7716945688306396E-009
  0.19690000000000002          2.5235621925467910E-010
  0.19800000000000001         -1.5988832480218207E-009
  0.19910000000000003         -2.3966884032944336E-009
  0.20020000000000002         -1.3152139377581307E-009
  0.20130000000000003          1.0212903855943978E-009
  0.20240000000000002          2.7477711217471779E-009
  0.20350000000000001          2.3268105220353164E-009
  0.20460000000000003          7.3867675864924820E-011
  0.20570000000000002         -2.0874912909363275E-009
  0.20680000000000001         -2.4731161563096293E-009
  0.20790000000000003         -1.0592277055465615E-009
  0.20900000000000002          8.8630108807663532E-010
  0.21010000000000004          2.0894073138322256E-009
  0.21120000000000003          1.9199004608339010E-009
  0.21230000000000002          3.5226732642001934E-010
  0.21340000000000003         -1.8654147115881869E-009
  0.21450000000000002         -3.0801217132392367E-009
  0.21560000000000001         -1.8113266442298936E-009
  0.21670000000000003          1.3913360463746471E-009
  0.21780000000000002          3.7567642330316176E-009
  0.21890000000000001          2.8812554564439097E-009
  0.22000000000000003         -5.2764093094737063E-010
  0.22110000000000002         -3.2302065466893737E-009
  0.22220000000000004         -2.9008795365825790E-009
  0.22330000000000003         -3.3082392381089676E-010
  0.22440000000000002          1.9837418374635263E-009
  0.22550000000000003          2.5544479864691993E-009
  0.22660000000000002          1.5598133895622368E-009
  0.22770000000000001         -3.2793026627508937E-010
  0.22880000000000003         -2.3806698834505369E-009
  0.22990000000000002         -3.2241895819851152E-009
  0.23100000000000004         -1.4793655189748733E-009
  0.23210000000000003          2.1005708283894364E-009
  0.23320000000000002          4.2530889921010839E-009
  0.23430000000000004          2.4439124057806794E-009
  0.23540000000000003         -1.7880894542798842E-009
  0.23650000000000002         -4.1245997728367456E-009
  0.23760000000000003         -2.3522603864734037E-009
  0.23870000000000002          1.2689171935420518E-009
  0.23980000000000001          3.0576350340538738E-009
  0.24090000000000000          2.0861945504435653E-009
  0.24200000000000005          1.9691671904187302E-010
  0.24310000000000004         -1.1178393766186900E-009
  0.24420000000000003         -1.9500923098547673E-009
  0.24530000000000002         -2.2176225300540864E-009
  0.24640000000000001         -8.7799129078192095E-010
  0.24750000000000005          1.9344628121586993E-009
  0.24860000000000004          3.5683604959757531E-009
  0.24970000000000003          1.6502386124273016E-009
  0.25080000000000002         -2.2587061110357354E-009
  0.25190000000000001         -3.8570071581034426E-009
  0.25300000000000000         -1.3584570135449781E-009
  0.25410000000000005          2.2165820290354077E-009
  0.25520000000000004          2.9892248676333111E-009
  0.25630000000000003          9.5434504743252546E-010
  0.25740000000000002         -8.6418266986854064E-010
  0.25850000000000001         -9.6468955046447036E-010
  0.25960000000000005         -7.3102324193996537E-010
  0.26070000000000004         -1.1987129067136948E-009
  0.26180000000000003         -1.0056570021177436E-009
  0.26290000000000002          9.8027119754817704E-010
  0.26400000000000001          2.8145381580912954E-009
  0.26510000000000000          1.6529808632981258E-009
  0.26620000000000005         -1.7841613741964579E-009
  0.26730000000000004         -3.4504621382325240E-009
  0.26840000000000003         -1.2534079329995507E-009
  0.26950000000000002          2.0524451027625901E-009
  0.27060000000000001          2.6263644592461333E-009
  0.27170000000000005          5.5293913892029423E-010
  0.27280000000000004         -9.7135111065682622E-010
  0.27390000000000003         -5.5613669225351714E-010
  0.27500000000000002         -6.7571066797444956E-011
  0.27610000000000001         -8.6296148005260420E-010
  0.27720000000000000         -1.2651132363927786E-009
  0.27830000000000005          4.9006576574583960E-010
  0.27940000000000004          2.6366824279477896E-009
  0.28050000000000003          1.8579568994425699E-009
  0.28160000000000002         -1.6063692598322632E-009
  0.28270000000000001         -3.5880816096067747E-009
  0.28380000000000005         -1.5007862730342936E-009
  0.28490000000000004          2.0545924961368200E-009
  0.28600000000000003          2.8506346172463282E-009
  0.28710000000000002          6.1259408656866299E-010
  0.28820000000000001         -1.2625072098870760E-009
  0.28930000000000000         -8.6648954678025802E-010
  0.29040000000000005          7.0518625661097900E-011
  0.29150000000000004         -2.8030508469889526E-010
  0.29260000000000003         -7.6897371803497094E-010
  0.29370000000000002          4.1816064499933248E-010
  0.29480000000000001          2.0808135214878121E-009
  0.29590000000000005          1.3455045966281887E-009
  0.29700000000000004         -1.6565536720136720E-009
  0.29810000000000003         -3.2052469567389608E-009
  0.29920000000000002         -1.0244981529794472E-009
  0.30030000000000001          2.2867283622218793E-009
  0.30140000000000006          2.6634030536598630E-009
  0.30250000000000005          4.5074735610661776E-011
  0.30360000000000004         -1.8880936814014149E-009
  0.30470000000000003         -1.0285566842682670E-009
  0.30580000000000002          6.6234806528342460E-010
  0.30690000000000001          6.7442823548091724E-010
  0.30800000000000005         -3.3684918743226433E-010
  0.30910000000000004         -1.7475131064426108E-010
  0.31020000000000003          9.9794261743113566E-010
  0.31130000000000002          8.9230517419380817E-010
  0.31240000000000001         -9.6483032674399283E-010
  0.31350000000000006         -2.0362171948562491E-009
  0.31460000000000005         -5.0456921973918156E-010
  0.31570000000000004          1.7448057443303355E-009
