  -1.3200000000000002E-002     0.0000000000000000
  -1.2100000000000001E-002     0.0000000000000000
  -1.1000000000000001E-002     0.0000000000000000
  -9.9000000000000025E-003     0.0000000000000000
  -8.8000000000000023E-003    -7.1245084484750087E-012
  -7.7000000000000011E-003    -5.2018212653992535E-011
  -6.6000000000000017E-003    -3.2571459418484494E-010
  -5.5000000000000014E-003    -1.8119522549042699E-009
  -4.4000000000000011E-003    -7.5619599471110632E-009
  -3.3000000000000008E-003    -2.1089064716761641E-008
  -2.2000000000000006E-003    -2.6631703065049805E-008
  -1.1000000000000003E-003     6.1257168226802605E-008
  -1.7347234759768071E-018     3.5615673255051661E-007
   1.0999999999999985E-003     4.0150885638468026E-007
   2.1999999999999988E-003    -2.1549478788074339E-006
   3.2999999999999991E-003    -1.0597529580991250E-005
   4.3999999999999994E-003    -1.8113103578798473E-005
   5.4999999999999997E-003     1.2194424925837666E-005
   6.6000000000000000E-003     1.3482637587003410E-004
   7.7000000000000002E-003     3.0531469383276999E-004
   8.8000000000000005E-003     1.9930732378270477E-004
   9.9000000000000008E-003    -7.0642452919855714E-004
   1.1000000000000001E-002    -2.3847431875765324E-003
   1.2100000000000001E-002    -3.1584477983415127E-003
   1.3199999999999998E-002     1.5515998529735953E-004
   1.4299999999999998E-002     9.1970572248101234E-003
   1.5399999999999999E-002     1.9234644249081612E-002
   1.6500000000000001E-002     1.7706416547298431E-002
   1.7599999999999998E-002    -8.2897879183292389E-003
   1.8700000000000001E-002    -5.6542344391345978E-002
   1.9799999999999998E-002    -9.7391404211521149E-002
   2.0900000000000002E-002    -8.0405361950397491E-002
   2.1999999999999999E-002     3.2057743519544601E-002
   2.3099999999999996E-002    0.21746572852134705
   2.4199999999999999E-002    0.36823043227195740
   2.5299999999999996E-002    0.33002406358718872
   2.6400000000000000E-002     8.8702403008937836E-003
   2.7499999999999997E-002   -0.51405668258666992
   2.8600000000000000E-002   -0.96447336673736572
   2.9699999999999997E-002    -1.0132865905761719
   3.0800000000000001E-002   -0.50211071968078613
   3.1899999999999998E-002    0.41579708456993103
   3.3000000000000002E-002     1.3480209112167358
   3.4099999999999998E-002     1.9021615982055664
   3.5200000000000002E-002     1.8991924524307251
   3.6299999999999999E-002     1.3986254930496216
   3.7400000000000003E-002    0.54485321044921875
   3.8500000000000000E-002   -0.61220049858093262
   3.9599999999999996E-002    -2.1669960021972656
   4.0700000000000000E-002    -4.2265667915344238
   4.1799999999999997E-002    -6.6655774116516113
   4.2900000000000001E-002    -8.9368638992309570
   4.3999999999999997E-002    -10.144685745239258
   4.5100000000000001E-002    -9.4668273925781250
   4.6199999999999998E-002    -6.7159352302551270
   4.7300000000000002E-002    -2.5926060676574707
   4.8399999999999999E-002     1.6757597923278809
   4.9500000000000002E-002     5.1031260490417480
   5.0600000000000006E-002     7.5000190734863281
   5.1699999999999996E-002     9.3436603546142578
   5.2800000000000000E-002     11.098662376403809
   5.3900000000000003E-002     12.596463203430176
   5.5000000000000007E-002     12.997496604919434
   5.6099999999999997E-002     11.368842124938965
   5.7200000000000001E-002     7.4655261039733887
   5.8300000000000005E-002     2.1628592014312744
   5.9399999999999994E-002    -2.8428766727447510
   6.0499999999999998E-002    -6.0025486946105957
   6.1600000000000002E-002    -6.9201707839965820
   6.2700000000000006E-002    -6.5354452133178711
   6.3799999999999996E-002    -6.1789851188659668
   6.4899999999999999E-002    -6.2600336074829102
   6.6000000000000003E-002    -5.8523135185241699
   6.7100000000000007E-002    -3.6761195659637451
   6.8199999999999997E-002    0.41537460684776306
   6.9300000000000000E-002     4.8853077888488770
   7.0400000000000004E-002     7.4447536468505859
   7.1500000000000008E-002     6.6576638221740723
   7.2599999999999998E-002     2.9396367073059082
   7.3700000000000002E-002    -1.6837515830993652
   7.4800000000000005E-002    -4.7846565246582031
   7.5899999999999995E-002    -4.9531011581420898
   7.6999999999999999E-002    -2.6158680915832520
   7.8100000000000003E-002    0.31752777099609375
   7.9200000000000007E-002     1.8702317476272583
   8.0299999999999996E-002     1.4566667079925537
   8.1400000000000000E-002    0.14023950695991516
   8.2500000000000004E-002   -0.53762775659561157
   8.3600000000000008E-002    -2.6281294412910938E-003
   8.4699999999999998E-002    0.98928046226501465
   8.5800000000000001E-002     1.2092154026031494
   8.6900000000000005E-002     1.5691079199314117E-002
   8.8000000000000009E-002    -2.2368185520172119
   8.9099999999999999E-002    -4.3886189460754395
   9.0200000000000002E-002    -4.9249200820922852
   9.1300000000000006E-002    -2.7373783588409424
   9.2399999999999996E-002     1.8377282619476318
   9.3500000000000000E-002     6.5560421943664551
   9.4600000000000004E-002     8.3872842788696289
   9.5700000000000007E-002     5.8246665000915527
   9.6799999999999997E-002    0.38090056180953979
   9.7900000000000001E-002    -4.3626079559326172
   9.9000000000000005E-002    -5.5119361877441406
  0.10010000000000001         -3.0491838455200195
  0.10120000000000000         0.30700165033340454
  0.10230000000000000          1.2864887714385986
  0.10340000000000001         -1.3780722618103027
  0.10450000000000001         -5.7279772758483887
  0.10560000000000000         -7.6459546089172363
  0.10670000000000000         -3.9530413150787354
  0.10780000000000001          4.4296927452087402
  0.10890000000000001          12.171394348144531
  0.11000000000000000          13.290492057800293
  0.11110000000000000          6.3440098762512207
  0.11220000000000001         -3.7748718261718750
  0.11330000000000000         -9.6399488449096680
  0.11440000000000002         -7.5301852226257324
  0.11550000000000001        -0.42066910862922668
  0.11660000000000000          4.8554139137268066
  0.11770000000000001          3.4840345382690430
  0.11880000000000000         -3.4802029132843018
  0.11989999999999999         -10.078068733215332
  0.12100000000000001         -10.120007514953613
  0.12210000000000000         -2.1174430847167969
  0.12320000000000002          9.0317354202270508
  0.12430000000000001          15.227394104003906
  0.12540000000000001          11.457156181335449
  0.12650000000000003         0.33008411526679993
  0.12760000000000002         -9.5326890945434570
  0.12870000000000001         -10.569808959960938
  0.12980000000000003         -2.7177147865295410
  0.13090000000000002          6.7259674072265625
  0.13200000000000001          9.5866403579711914
  0.13310000000000002          3.5605628490447998
  0.13420000000000001         -6.4719886779785156
  0.13530000000000003         -12.807425498962402
  0.13640000000000002         -10.733393669128418
  0.13750000000000001         -1.6109848022460938
  0.13860000000000003          8.2523069381713867
  0.13970000000000002          11.980656623840332
  0.14080000000000001          7.1647481918334961
  0.14190000000000003         -1.9998427629470825
  0.14300000000000002         -7.7839903831481934
  0.14410000000000003         -5.3597774505615234
  0.14520000000000002          2.9525806903839111
  0.14630000000000001          9.7508306503295898
  0.14740000000000003          9.0442428588867188
  0.14850000000000002          1.0597754716873169
  0.14960000000000001         -8.5703477859497070
  0.15070000000000003         -13.508591651916504
  0.15180000000000002         -10.869658470153809
  0.15290000000000001         -2.4286615848541260
  0.15400000000000003          6.7049169540405273
  0.15510000000000002          10.947579383850098
  0.15620000000000003          7.7633600234985352
  0.15730000000000002        -0.13530083000659943
  0.15840000000000001         -6.3579816818237305
  0.15950000000000003         -5.8626179695129395
  0.16060000000000002         0.75623935461044312
  0.16170000000000001          7.8401827812194824
  0.16280000000000003          9.4942188262939453
  0.16390000000000002          4.0701003074645996
  0.16500000000000001         -5.1304574012756348
  0.16610000000000003         -12.353946685791016
  0.16720000000000002         -12.734932899475098
  0.16830000000000003         -5.1677360534667969
  0.16940000000000002          6.1646790504455566
  0.17050000000000001          13.419811248779297
  0.17160000000000003          10.569431304931641
  0.17270000000000002        -0.87148749828338623
  0.17380000000000001         -11.791589736938477
  0.17490000000000003         -12.672553062438965
  0.17600000000000002         -2.0392589569091797
  0.17710000000000004          11.840624809265137
  0.17820000000000003          17.703033447265625
  0.17930000000000001          10.379986763000488
  0.18040000000000003         -5.2355132102966309
  0.18150000000000002         -17.814491271972656
  0.18260000000000001         -17.744028091430664
  0.18370000000000003         -4.4042267799377441
  0.18480000000000002          12.412455558776855
  0.18590000000000001          19.085899353027344
  0.18700000000000003          9.2087154388427734
  0.18810000000000002         -9.8016576766967773
  0.18920000000000003         -21.740150451660156
  0.19030000000000002         -15.444440841674805
  0.19140000000000001          4.8414096832275391
  0.19250000000000003          22.662824630737305
  0.19360000000000002          23.455381393432617
  0.19470000000000001          6.6695623397827148
  0.19580000000000003         -14.375590324401855
  0.19690000000000002         -23.639226913452148
  0.19800000000000001         -14.671415328979492
  0.19910000000000003          4.9871788024902344
  0.20020000000000002          19.705160140991211
  0.20130000000000003          17.603467941284180
  0.20240000000000002          8.4973804652690887E-002
  0.20350000000000001         -18.573167800903320
  0.20460000000000003         -22.519720077514648
  0.20570000000000002         -7.9041934013366699
  0.20680000000000001          13.433712005615234
  0.20790000000000003          24.143369674682617
  0.20900000000000002          16.242542266845703
  0.21010000000000004         -2.8851869106292725
  0.21120000000000003         -17.863498687744141
  0.21230000000000002         -18.103025436401367
  0.21340000000000003         -4.9171710014343262
  0.21450000000000002          11.018959999084473
  0.21560000000000001          17.950016021728516
  0.21670000000000003          10.962049484252930
  0.21780000000000002         -4.7824463844299316
  0.21890000000000001         -17.469072341918945
  0.22000000000000003         -17.285430908203125
  0.22110000000000002         -4.3381199836730957
  0.22220000000000004          11.185208320617676
  0.22330000000000003          17.489881515502930
  0.22440000000000002          10.784049034118652
  0.22550000000000003         -2.6056354045867920
  0.22660000000000002         -12.462895393371582
  0.22770000000000001         -12.485761642456055
  0.22880000000000003         -3.4876701831817627
  0.22990000000000002          8.2761821746826172
  0.23100000000000004          14.866773605346680
  0.23210000000000003          11.040076255798340
  0.23320000000000002         -1.7535948753356934
  0.23430000000000004         -14.864156723022461
  0.23540000000000003         -18.057947158813477
  0.23650000000000002         -8.0749816894531250
  0.23760000000000003          7.8129763603210449
  0.23870000000000002          17.472915649414062
  0.23980000000000001          13.864150047302246
  0.24090000000000000         0.25903034210205078
  0.24200000000000005         -12.987572669982910
  0.24310000000000004         -16.205406188964844
  0.24420000000000003         -6.7767133712768555
  0.24530000000000002          9.0380029678344727
  0.24640000000000001          19.550659179687500
  0.24750000000000005          15.549307823181152
  0.24860000000000004         -1.6393071413040161
  0.24970000000000003         -19.223230361938477
  0.25080000000000002         -22.486455917358398
  0.25190000000000001         -7.8491020202636719
  0.25300000000000000          13.022996902465820
  0.25410000000000005          22.965822219848633
  0.25520000000000004          14.108090400695801
  0.25630000000000003         -5.9041872024536133
  0.25740000000000002         -20.946506500244141
  0.25850000000000001         -19.395862579345703
  0.25960000000000005         -2.4621946811676025
  0.26070000000000004          17.134355545043945
  0.26180000000000003          24.314365386962891
  0.26290000000000002          12.813590049743652
  0.26400000000000001         -9.1045188903808594
  0.26510000000000000         -23.982868194580078
  0.26620000000000005         -19.288322448730469
  0.26730000000000004          1.1727159023284912
  0.26840000000000003          19.895959854125977
  0.26950000000000002          21.080228805541992
  0.27060000000000001          4.4670577049255371
  0.27170000000000005         -15.315980911254883
  0.27280000000000004         -22.224582672119141
  0.27390000000000003         -11.766958236694336
  0.27500000000000002          7.0683913230895996
  0.27610000000000001          20.058137893676758
  0.27720000000000000          18.160858154296875
  0.27830000000000005          3.2860641479492188
  0.27940000000000004         -13.243537902832031
  0.28050000000000003         -18.753845214843750
  0.28160000000000002         -9.1093549728393555
  0.28270000000000001          7.3943881988525391
  0.28380000000000005          16.779624938964844
  0.28490000000000004          11.644710540771484
  0.28600000000000003         -2.6545689105987549
  0.28710000000000002         -13.791409492492676
  0.28820000000000001         -13.734319686889648
  0.28930000000000000         -4.2759971618652344
  0.29040000000000005          6.6985683441162109
  0.29150000000000004          12.169339179992676
  0.29260000000000003          9.6652336120605469
  0.29370000000000002          1.2620502710342407
  0.29480000000000001         -7.6818995475769043
  0.29590000000000005         -10.968544006347656
  0.29700000000000004         -5.8042345046997070
  0.29810000000000003          4.0887746810913086
  0.29920000000000002          10.805889129638672
  0.30030000000000001          9.0603370666503906
  0.30140000000000006         0.70304834842681885
  0.30250000000000005         -7.6082458496093750
  0.30360000000000004         -10.403033256530762
  0.30470000000000003         -6.7347688674926758
  0.30580000000000002         0.73439604043960571
  0.30690000000000001          7.7273721694946289
  0.30800000000000005          9.7365865707397461
  0.30910000000000004          4.3881797790527344
  0.31020000000000003         -5.4252619743347168
  0.31130000000000002         -11.932998657226562
  0.31240000000000001         -8.7137336730957031
  0.31350000000000006          2.5125277042388916
  0.31460000000000005          12.500952720642090
  0.31570000000000004          12.900403976440430
