  -1.3200000000000002E-002     0.0000000000000000
  -1.2100000000000001E-002     0.0000000000000000
  -1.1000000000000001E-002     0.0000000000000000
  -9.9000000000000025E-003     0.0000000000000000
  -8.8000000000000023E-003     0.0000000000000000
  -7.7000000000000011E-003     0.0000000000000000
  -6.6000000000000017E-003     0.0000000000000000
  -5.5000000000000014E-003     0.0000000000000000
  -4.4000000000000011E-003     0.0000000000000000
  -3.3000000000000008E-003     0.0000000000000000
  -2.2000000000000006E-003     0.0000000000000000
  -1.1000000000000003E-003     0.0000000000000000
  -1.7347234759768071E-018     0.0000000000000000
   1.0999999999999985E-003     0.0000000000000000
   2.1999999999999988E-003     0.0000000000000000
   3.2999999999999991E-003     0.0000000000000000
   4.3999999999999994E-003     0.0000000000000000
   5.4999999999999997E-003     0.0000000000000000
   6.6000000000000000E-003     0.0000000000000000
   7.7000000000000002E-003     0.0000000000000000
   8.8000000000000005E-003     0.0000000000000000
   9.9000000000000008E-003     0.0000000000000000
   1.1000000000000001E-002     0.0000000000000000
   1.2100000000000001E-002     0.0000000000000000
   1.3199999999999998E-002     0.0000000000000000
   1.4299999999999998E-002     0.0000000000000000
   1.5399999999999999E-002     0.0000000000000000
   1.6500000000000001E-002     0.0000000000000000
   1.7599999999999998E-002     0.0000000000000000
   1.8700000000000001E-002    -8.2369848345741933E-038
   1.9799999999999998E-002    -2.6229643664039587E-037
   2.0900000000000002E-002     3.9228420046592942E-037
   2.1999999999999999E-002     3.6115022741619710E-036
   2.3099999999999996E-002     2.9098602500635576E-036
   2.4199999999999999E-002    -2.9570897749347443E-035
   2.5299999999999996E-002    -7.9423641866313206E-035
   2.6400000000000000E-002     1.1804988113910470E-034
   2.7499999999999997E-002     8.5025407389746526E-034
   2.8600000000000000E-002     4.9037399883482567E-034
   2.9699999999999997E-002    -5.4847328466879725E-033
   3.0800000000000001E-002    -1.2247531477199078E-032
   3.1899999999999998E-002     1.7446891397047847E-032
   3.3000000000000002E-002     1.0608597890817928E-031
   3.4099999999999998E-002     5.7679862102758497E-032
   3.5200000000000002E-002    -5.3787095010575410E-031
   3.6299999999999999E-002    -1.1550052021688108E-030
   3.7400000000000003E-002     1.1745152110478266E-030
   3.8500000000000000E-002     7.8865055755989826E-030
   3.9599999999999996E-002     6.0186653646847500E-030
   4.0700000000000000E-002    -2.9699428634655296E-029
   4.1799999999999997E-002    -7.3717297792947946E-029
   4.2900000000000001E-002     2.5505722199283166E-029
   4.3999999999999997E-002     3.6873173417520191E-028
   4.5100000000000001E-002     4.4684487678824757E-028
   4.6199999999999998E-002    -8.8158239498110479E-028
   4.7300000000000002E-002    -3.1681953956388295E-027
   4.8399999999999999E-002    -1.2697230492827336E-027
   4.9500000000000002E-002     1.0405422777627113E-026
   5.0600000000000006E-002     2.0568529671883291E-026
   5.1699999999999996E-002    -7.2939766411366035E-027
   5.2800000000000000E-002    -8.5218696090666141E-026
   5.3900000000000003E-002    -1.0367597051296161E-025
   5.5000000000000007E-002     1.3530545944136288E-025
   5.6099999999999997E-002     5.5381753053530883E-025
   5.7200000000000001E-002     3.9944691771441947E-025
   5.8300000000000005E-002    -1.1673814138797940E-024
   5.9399999999999994E-002    -3.0354955453081556E-024
   6.0499999999999998E-002    -1.0578973809964329E-024
   6.1600000000000002E-002     7.4990466602457310E-024
   6.2700000000000006E-002     1.4612909895411957E-023
   6.3799999999999996E-002     8.5374362999169535E-025
   6.4899999999999999E-002    -3.9907640158015074E-023
   6.6000000000000003E-002    -6.3901797534285655E-023
   6.7100000000000007E-002     9.3324690556451882E-024
   6.8199999999999997E-002     1.8407682997033114E-022
   6.9300000000000000E-002     2.6147197338156461E-022
   7.0400000000000004E-002    -6.2730541038424189E-023
   7.1500000000000008E-002    -7.5217162822968121E-022
   7.2599999999999998E-002    -1.0234641499530039E-021
   7.3700000000000002E-002     2.0385491077231716E-022
   7.4800000000000005E-002     2.7397633507014515E-021
   7.5899999999999995E-002     3.8627561499346945E-021
   7.6999999999999999E-002    -9.9793151186316063E-023
   7.8100000000000003E-002    -8.7993664105801124E-021
   7.9200000000000007E-002    -1.3909935419764203E-020
   8.0299999999999996E-002    -3.4557643054097817E-021
   8.1400000000000000E-002     2.3948413541187349E-020
   8.2500000000000004E-002     4.6461067721181387E-020
   8.3600000000000008E-002     2.7335550128530073E-020
   8.4699999999999998E-002    -4.8997458742036125E-020
   8.5800000000000001E-002    -1.3742246199436671E-019
   8.6900000000000005E-002    -1.3624635333498408E-019
   8.8000000000000009E-002     3.6753550702071816E-020
   8.9099999999999999E-002     3.3118957218370173E-019
   9.0200000000000002E-002     5.1244588580090191E-019
   9.1300000000000006E-002     2.7023468454345740E-019
   9.2399999999999996E-002    -5.0949011097830852E-019
   9.3500000000000000E-002    -1.4607101786964192E-018
   9.4600000000000004E-002    -1.7098419865487886E-018
   9.5700000000000007E-002    -3.3437013333775640E-019
   9.6799999999999997E-002     2.7343358842759544E-018
   9.7900000000000001E-002     5.8655575759482205E-018
   9.9000000000000005E-002     5.8327549015768176E-018
  0.10010000000000001         -3.7093084432835253E-019
  0.10120000000000000         -1.2259543769794304E-017
  0.10230000000000000         -2.3084263357776577E-017
  0.10340000000000001         -2.0809744975104815E-017
  0.10450000000000001          4.7460769775179420E-018
  0.10560000000000000          5.0143109706535751E-017
  0.10670000000000000          8.9305350459315756E-017
  0.10780000000000001          7.8324772673135629E-017
  0.10890000000000001         -1.8601659121788413E-017
  0.11000000000000000         -1.8839786222168953E-016
  0.11110000000000000         -3.3855763964944535E-016
  0.11220000000000001         -3.1291212898454531E-016
  0.11330000000000000          2.2464842390956043E-017
  0.11440000000000002          6.4173905413593326E-016
  0.11550000000000001          1.2473585058185750E-015
  0.11660000000000000          1.2989467298337430E-015
  0.11770000000000001          2.7011218943449595E-016
  0.11880000000000000         -1.8993326825726556E-015
  0.11989999999999999         -4.3705303421216323E-015
  0.12100000000000001         -5.3549732092442615E-015
  0.12210000000000000         -2.7836645139010623E-015
  0.12320000000000002          4.2719098725563405E-015
  0.12430000000000001          1.3951444098841796E-014
  0.12540000000000001          2.0822600777957098E-014
  0.12650000000000003          1.7216181822168886E-014
  0.12760000000000002         -2.7237193569491650E-015
  0.12870000000000001         -3.7244540134276360E-014
  0.12980000000000003         -7.2386175287326993E-014
  0.13090000000000002         -8.2763921313133010E-014
  0.13200000000000001         -4.1075656602180405E-014
  0.13310000000000002          6.4056568480509030E-014
  0.13420000000000001          2.0827344840088080E-013
  0.13530000000000003          3.2172983895073504E-013
  0.13640000000000002          3.0290296638112169E-013
  0.13750000000000001          6.3090212307909121E-014
  0.13860000000000003         -4.0627597857126330E-013
  0.13970000000000002         -9.7095617136722101E-013
  0.14080000000000001         -1.3382124184821431E-012
  0.14190000000000003         -1.1287178873845005E-012
  0.14300000000000002         -4.9526080800462932E-014
  0.14410000000000003          1.8699943937078300E-012
  0.14520000000000002          4.0774631934747951E-012
  0.14630000000000001          5.4694972509428119E-012
  0.14740000000000003          4.6586371912904490E-012
  0.14850000000000002          5.6628009573178595E-013
  0.14960000000000001         -6.7856883306793847E-012
  0.15070000000000003         -1.5588723020765194E-011
  0.15180000000000002         -2.2084299666769169E-011
  0.15290000000000001         -2.1301221203584575E-011
  0.15400000000000003         -8.8249147572883047E-012
  0.15510000000000002          1.6700956589899008E-011
  0.15620000000000003          5.1135040646244079E-011
  0.15730000000000002          8.3612533563481861E-011
  0.15840000000000001          9.7682896493811455E-011
  0.15950000000000003          7.5453941705827532E-011
  0.16060000000000002          4.3950940976922315E-012
  0.16170000000000001         -1.1477895717204589E-010
  0.16280000000000003         -2.6176819045709010E-010
  0.16390000000000002         -3.9488062819614811E-010
  0.16500000000000001         -4.5606779464080205E-010
  0.16610000000000003         -3.8333522467404180E-010
  0.16720000000000002         -1.2856388176274436E-010
  0.16830000000000003          3.2367850066883364E-010
  0.16940000000000002          9.4224095192885216E-010
  0.17050000000000001          1.6460468543755269E-009
  0.17160000000000003          2.3146382588379311E-009
  0.17270000000000002          2.8120388240182592E-009
  0.17380000000000001          3.0189335475938606E-009
  0.17490000000000003          2.8647333394360430E-009
  0.17600000000000002          2.3499753254441202E-009
  0.17710000000000004          1.5514646234393581E-009
  0.17820000000000003          6.0723975847665201E-010
  0.17930000000000001         -3.1547389700570250E-010
  0.18040000000000003         -1.0606595601814206E-009
  0.18150000000000002         -1.5206470527218130E-009
  0.18260000000000001         -1.6591525930920170E-009
  0.18370000000000003         -1.5137843201173951E-009
  0.18480000000000002         -1.1781505770969147E-009
  0.18590000000000001         -7.7024880917875294E-010
  0.18700000000000003         -3.9793615624894585E-010
  0.18810000000000002         -1.3254758401970435E-010
  0.18920000000000003          1.8955574956902588E-012
  0.19030000000000002          2.2575002631142205E-011
  0.19140000000000001         -3.0240008414006425E-011
  0.19250000000000003         -1.1449419884401735E-010
  0.19360000000000002         -2.0187564120366375E-010
  0.19470000000000001         -2.8214841574225602E-010
  0.19580000000000003         -3.5645647544768622E-010
  0.19690000000000002         -4.2492975804719890E-010
  0.19800000000000001         -4.7639209244110248E-010
  0.19910000000000003         -4.8665543816994727E-010
  0.20020000000000002         -4.2742798189721043E-010
  0.20130000000000003         -2.8227900572552755E-010
  0.20240000000000002         -6.1977867282791976E-011
  0.20350000000000001          1.8918902555675743E-010
  0.20460000000000003          4.0131581391378290E-010
  0.20570000000000002          5.0023868380932868E-010
  0.20680000000000001          4.3540507310702026E-010
  0.20790000000000003          2.0346899165524235E-010
  0.20900000000000002         -1.4271683834721216E-010
  0.21010000000000004         -5.0519466388010414E-010
  0.21120000000000003         -7.7000739118204820E-010
  0.21230000000000002         -8.4493101404348181E-010
  0.21340000000000003         -6.9244737721518845E-010
  0.21450000000000002         -3.4564676121284776E-010
  0.21560000000000001          9.9352422122667150E-011
  0.21670000000000003          5.1245785392950438E-010
  0.21780000000000002          7.7044115531776924E-010
  0.21890000000000001          7.9582468393013528E-010
  0.22000000000000003          5.8099841604430935E-010
  0.22110000000000002          1.9000327700080533E-010
  0.22220000000000004         -2.6203855751916194E-010
  0.22330000000000003         -6.4468980154330779E-010
  0.22440000000000002         -8.5144902239875364E-010
  0.22550000000000003         -8.3016632457244555E-010
  0.22660000000000002         -5.9567317745035098E-010
  0.22770000000000001         -2.2180197956078729E-010
  0.22880000000000003          1.8331225426493347E-010
  0.22990000000000002          5.0984505506335154E-010
  0.23100000000000004          6.7649430501859342E-010
  0.23210000000000003          6.5003091798132573E-010
  0.23320000000000002          4.5019815653191131E-010
  0.23430000000000004          1.4048590069037914E-010
  0.23540000000000003         -1.9139205498230893E-010
  0.23650000000000002         -4.5779455226657717E-010
  0.23760000000000003         -5.9418842068836852E-010
  0.23870000000000002         -5.7520488372375667E-010
  0.23980000000000001         -4.1936118466701089E-010
  0.24090000000000000         -1.8092687070758728E-010
  0.24200000000000005          6.8562509836223029E-011
  0.24310000000000004          2.6287011456460618E-010
  0.24420000000000003          3.5989403124325747E-010
  0.24530000000000002          3.5072653115086894E-010
  0.24640000000000001          2.5711902051916979E-010
  0.24750000000000005          1.1996008353332144E-010
  0.24860000000000004         -1.6107370645612740E-011
  0.24970000000000003         -1.1674516908755095E-010
  0.25080000000000002         -1.6686764470197346E-010
  0.25190000000000001         -1.7233710292163806E-010
  0.25300000000000000         -1.5393215868630961E-010
  0.25410000000000005         -1.3538277443547742E-010
  0.25520000000000004         -1.3011866584200504E-010
  0.25630000000000003         -1.3326383052625346E-010
  0.25740000000000002         -1.2409816230185555E-010
  0.25850000000000001         -7.9033522781823962E-011
  0.25960000000000005          1.1418115584971300E-011
  0.26070000000000004          1.3171620738550160E-010
  0.26180000000000003          2.4376334284426093E-010
  0.26290000000000002          3.0240934756342597E-010
  0.26400000000000001          2.7587768181014383E-010
  0.26510000000000000          1.6050140383416789E-010
  0.26620000000000005         -1.6769226632296075E-011
  0.26730000000000004         -2.0750347273779113E-010
  0.26840000000000003         -3.5706276824143401E-010
  0.26950000000000002         -4.2025774527054693E-010
  0.27060000000000001         -3.7415129328088881E-010
  0.27170000000000005         -2.2629978446708776E-010
  0.27280000000000004         -1.5900366093224427E-011
  0.27390000000000003          1.9536161577349276E-010
  0.27500000000000002          3.4305311369386970E-010
  0.27610000000000001          3.8412922842567809E-010
  0.27720000000000000          3.1398472710719716E-010
  0.27830000000000005          1.6649516487721172E-010
  0.27940000000000004         -3.6513127590898087E-012
  0.28050000000000003         -1.4604674414275820E-010
  0.28160000000000002         -2.3249277503190058E-010
  0.28270000000000001         -2.5924887236961069E-010
  0.28380000000000005         -2.3680687966098901E-010
  0.28490000000000004         -1.7829697440685521E-010
  0.28600000000000003         -9.5572938452193057E-011
  0.28710000000000002         -2.6812230820988381E-012
  0.28820000000000001          8.1200726698149595E-011
  0.28930000000000000          1.3610720883683314E-010
  0.29040000000000005          1.5119493157467190E-010
  0.29150000000000004          1.3135072196579500E-010
  0.29260000000000003          9.3244259535829599E-011
  0.29370000000000002          5.2935000133258470E-011
  0.29480000000000001          1.5423573876405250E-011
  0.29590000000000005         -2.4557612887665670E-011
  0.29700000000000004         -7.1327055373160420E-011
  0.29810000000000003         -1.1741012329036238E-010
  0.29920000000000002         -1.4421222549465540E-010
  0.30030000000000001         -1.3512962970807507E-010
  0.30140000000000006         -9.0210172665194932E-011
  0.30250000000000005         -2.8998241308197947E-011
  0.30360000000000004          2.2152609607806184E-011
  0.30470000000000003          4.8424580317840693E-011
  0.30580000000000002          5.5255598707670828E-011
  0.30690000000000001          6.0083792108311940E-011
  0.30800000000000005          7.4374457981196684E-011
  0.30910000000000004          9.1675764202214793E-011
  0.31020000000000003          9.2243969407324045E-011
  0.31130000000000002          6.0353201603025042E-011
  0.31240000000000001         -6.1286132418958417E-013
  0.31350000000000006         -6.8231253980144402E-011
  0.31460000000000005         -1.1614434414219943E-010
  0.31570000000000004         -1.3139997423472494E-010
