  -1.3200000000000002E-002     1.2214862010750949E-007
  -1.2100000000000001E-002     1.0115917348230141E-006
  -1.1000000000000001E-002     7.6482838267111219E-006
  -9.9000000000000025E-003     4.7347544750664383E-005
  -8.8000000000000023E-003     2.3642738233320415E-004
  -7.7000000000000011E-003     9.4614253612235188E-004
  -6.6000000000000017E-003     3.0007415916770697E-003
  -5.5000000000000014E-003     7.3923263698816299E-003
  -4.4000000000000011E-003     1.3583625666797161E-002
  -3.3000000000000008E-003     1.6777168959379196E-002
  -2.2000000000000006E-003     8.3699105307459831E-003
  -1.1000000000000003E-003    -1.5380252152681351E-002
  -1.7347234759768071E-018    -4.1959613561630249E-002
   1.0999999999999985E-003    -4.6698343008756638E-002
   2.1999999999999988E-003    -1.8385555595159531E-002
   3.2999999999999991E-003     2.1842977032065392E-002
   4.3999999999999994E-003     3.9584033191204071E-002
   5.4999999999999997E-003     2.5672214105725288E-002
   6.6000000000000000E-003     2.8353780508041382E-003
   7.7000000000000002E-003    -7.5572798959910870E-003
   8.8000000000000005E-003    -8.8569326326251030E-003
   9.9000000000000008E-003    -1.1668119579553604E-002
   1.1000000000000001E-002    -1.0261080227792263E-002
   1.2100000000000001E-002     5.5949119850993156E-003
   1.3199999999999998E-002     2.4014223366975784E-002
   1.4299999999999998E-002     1.9212204962968826E-002
   1.5399999999999999E-002    -1.0292178951203823E-002
   1.6500000000000001E-002    -3.1617820262908936E-002
   1.7599999999999998E-002    -1.7764139920473099E-002
   1.8700000000000001E-002     1.5382694080471992E-002
   1.9799999999999998E-002     2.8804250061511993E-002
   2.0900000000000002E-002     1.0533412918448448E-002
   2.1999999999999999E-002    -1.2848272919654846E-002
   2.3099999999999996E-002    -1.5574276447296143E-002
   2.4199999999999999E-002    -3.8742218166589737E-003
   2.5299999999999996E-002     1.8659674096852541E-003
   2.6400000000000000E-002    -1.3039221812505275E-004
   2.7499999999999997E-002     3.5598694812506437E-003
   2.8600000000000000E-002     1.2645683251321316E-002
   2.9699999999999997E-002     9.8063405603170395E-003
   3.0800000000000001E-002    -9.4597600400447845E-003
   3.1899999999999998E-002    -2.2812217473983765E-002
   3.3000000000000002E-002    -1.0055775754153728E-002
   3.4099999999999998E-002     1.5643822029232979E-002
   3.5200000000000002E-002     2.2795673459768295E-002
   3.6299999999999999E-002     3.8347372319549322E-003
   3.7400000000000003E-002    -1.5706874430179596E-002
   3.8500000000000000E-002    -1.3383639045059681E-002
   3.9599999999999996E-002     1.7573661170899868E-003
   4.0700000000000000E-002     7.2864391840994358E-003
   4.1799999999999997E-002     8.7043253006413579E-004
   4.2900000000000001E-002    -1.2549877865239978E-003
   4.3999999999999997E-002     5.8930898085236549E-003
   4.5100000000000001E-002     7.5073637999594212E-003
   4.6199999999999998E-002    -4.9591301940381527E-003
   4.7300000000000002E-002    -1.6119662672281265E-002
   4.8399999999999999E-002    -7.8290225937962532E-003
   4.9500000000000002E-002     1.1915110051631927E-002
   5.0600000000000006E-002     1.7705075442790985E-002
   5.1699999999999996E-002     2.1494110114872456E-003
   5.2800000000000000E-002    -1.3878416270017624E-002
   5.3900000000000003E-002    -1.0960979387164116E-002
   5.5000000000000007E-002     3.1601563096046448E-003
   5.6099999999999997E-002     8.0651026219129562E-003
   5.7200000000000001E-002     8.8596390560269356E-004
   5.8300000000000005E-002    -3.1238717492669821E-003
   5.9399999999999994E-002     2.7636119630187750E-003
   6.0499999999999998E-002     6.3263066112995148E-003
   6.1600000000000002E-002    -2.1586080547422171E-003
   6.2700000000000006E-002    -1.1922059580683708E-002
   6.3799999999999996E-002    -6.9119739346206188E-003
   6.4899999999999999E-002     8.6169587448239326E-003
   6.6000000000000003E-002     1.4223502017557621E-002
   6.7100000000000007E-002     2.2530427668243647E-003
   6.8199999999999997E-002    -1.1213738471269608E-002
   6.9300000000000000E-002    -9.4120902940630913E-003
   7.0400000000000004E-002     2.4607570376247168E-003
   7.1500000000000008E-002     7.2666369378566742E-003
   7.2599999999999998E-002     1.3476654421538115E-003
   7.3700000000000002E-002    -2.9566548764705658E-003
   7.4800000000000005E-002     1.1913746129721403E-003
   7.5899999999999995E-002     4.7113252803683281E-003
   7.6999999999999999E-002    -1.1438507353886962E-003
   7.8100000000000003E-002    -8.9155780151486397E-003
   7.9200000000000007E-002    -5.5113998241722584E-003
   8.0299999999999996E-002     6.7435572855174541E-003
   8.1400000000000000E-002     1.1654854752123356E-002
   8.2500000000000004E-002     2.1176740992814302E-003
   8.3600000000000008E-002    -9.4722518697381020E-003
   8.4699999999999998E-002    -8.6734537035226822E-003
   8.5800000000000001E-002     1.5413272194564342E-003
   8.6900000000000005E-002     6.9169201888144016E-003
   8.8000000000000009E-002     2.6422482915222645E-003
   8.9099999999999999E-002    -2.2132638841867447E-003
   9.0200000000000002E-002    -6.5178901422768831E-004
   9.1300000000000006E-002     2.1570108365267515E-003
   9.2399999999999996E-002    -7.2439247742295265E-004
   9.3500000000000000E-002    -5.3811785764992237E-003
   9.4600000000000004E-002    -2.9900933150202036E-003
   9.5700000000000007E-002     5.1833014003932476E-003
   9.6799999999999997E-002     8.0127613618969917E-003
   9.7900000000000001E-002     6.4393435604870319E-004
   9.9000000000000005E-002    -7.7226040884852409E-003
  0.10010000000000001         -6.4330166205763817E-003
  0.10120000000000000          2.0232805982232094E-003
  0.10230000000000000          6.3466578722000122E-003
  0.10340000000000001          2.3788867983967066E-003
  0.10450000000000001         -2.6613143272697926E-003
  0.10560000000000000         -2.1349152084439993E-003
  0.10670000000000000          9.9989795126020908E-004
  0.10780000000000001          6.6503265406936407E-004
  0.10890000000000001         -2.1621056366711855E-003
  0.11000000000000000         -1.6759338323026896E-003
  0.11110000000000000          2.5748687330633402E-003
  0.11220000000000001          4.2867865413427353E-003
  0.11330000000000000          1.3745871547143906E-004
  0.11440000000000002         -4.6204533427953720E-003
  0.11550000000000001         -3.5382935311645269E-003
  0.11660000000000000          1.7535797087475657E-003
  0.11770000000000001          4.1140303947031498E-003
  0.11880000000000000          1.0844408534467220E-003
  0.11989999999999999         -2.3647679481655359E-003
  0.12100000000000001         -1.7203018069267273E-003
  0.12210000000000000          9.5011468511074781E-004
  0.12320000000000002          1.1668354272842407E-003
  0.12430000000000001         -9.0658909175544977E-004
  0.12540000000000001         -1.3473576400429010E-003
  0.12650000000000003          8.8750955183058977E-004
  0.12760000000000002          2.2888057865202427E-003
  0.12870000000000001          4.1659694397822022E-004
  0.12980000000000003         -2.2068677935749292E-003
  0.13090000000000002         -1.8731486052274704E-003
  0.13200000000000001          8.3800591528415680E-004
  0.13310000000000002          2.0984250586479902E-003
  0.13420000000000001          4.5980032882653177E-004
  0.13530000000000003         -1.4177961274981499E-003
  0.13640000000000002         -1.0102407541126013E-003
  0.13750000000000001          6.0485594440251589E-004
  0.13860000000000003          8.9791428763419390E-004
  0.13970000000000002         -2.3272863472811878E-004
  0.14080000000000001         -7.3834654176607728E-004
  0.14190000000000003          1.4240767632145435E-004
  0.14300000000000002          8.5241708438843489E-004
  0.14410000000000003          1.8530646048020571E-004
  0.14520000000000002         -8.0558407353237271E-004
  0.14630000000000001         -5.4953957442194223E-004
  0.14740000000000003          5.7104550069198012E-004
  0.14850000000000002          8.4469094872474670E-004
  0.14960000000000001         -1.6347115160897374E-004
  0.15070000000000003         -1.0143037652596831E-003
  0.15180000000000002         -5.3398724412545562E-004
  0.15290000000000001          5.9455842711031437E-004
  0.15400000000000003          9.3558221124112606E-004
  0.15510000000000002          2.2581395751331002E-004
  0.15620000000000003         -5.5822945432737470E-004
  0.15730000000000002         -6.5802683820948005E-004
  0.15840000000000001         -2.5819434085860848E-004
  0.15950000000000003          1.6974747995845973E-004
  0.16060000000000002          4.9223547102883458E-004
  0.16170000000000001          6.5262353746220469E-004
  0.16280000000000003          3.7719009560532868E-004
  0.16390000000000002         -3.8739002775400877E-004
  0.16500000000000001         -1.0323473252356052E-003
  0.16610000000000003         -7.9958152491599321E-004
  0.16720000000000002          2.5310553610324860E-004
  0.16830000000000003          1.1569586349651217E-003
  0.16940000000000002          1.0278586996719241E-003
  0.17050000000000001         -2.5966422981582582E-005
  0.17160000000000003         -1.0649678297340870E-003
  0.17270000000000002         -1.2259295908734202E-003
  0.17380000000000001         -4.0746311424300075E-004
  0.17490000000000003          7.4469007086008787E-004
  0.17600000000000002          1.3548108981922269E-003
  0.17710000000000004          9.3896704493090510E-004
  0.17820000000000003         -2.2294727386906743E-004
  0.17930000000000001         -1.2452556984499097E-003
  0.18040000000000003         -1.3034702278673649E-003
  0.18150000000000002         -3.1928587122820318E-004
  0.18260000000000001          9.3892897712066770E-004
  0.18370000000000003          1.4597527915611863E-003
  0.18480000000000002          8.0524187069386244E-004
  0.18590000000000001         -5.1810446893796325E-004
  0.18700000000000003         -1.4425561530515552E-003
  0.18810000000000002         -1.2091549579054117E-003
  0.18920000000000003         -2.0567005776683800E-005
  0.19030000000000002          1.1333533329889178E-003
  0.19140000000000001          1.3570452574640512E-003
  0.19250000000000003          5.8597547467797995E-004
  0.19360000000000002         -5.0904287490993738E-004
  0.19470000000000001         -1.1877738870680332E-003
  0.19580000000000003         -1.0957618942484260E-003
  0.19690000000000002         -2.7429836336523294E-004
  0.19800000000000001          8.7060692021623254E-004
  0.19910000000000003          1.5531237004324794E-003
  0.20020000000000002          1.0372149990871549E-003
  0.20130000000000003         -5.0415151054039598E-004
  0.20240000000000002         -1.7747449455782771E-003
  0.20350000000000001         -1.5140350442379713E-003
  0.20460000000000003          7.5689364166464657E-005
  0.20570000000000002          1.4675486600026488E-003
  0.20680000000000001          1.4872013125568628E-003
  0.20790000000000003          4.3937191367149353E-004
  0.20900000000000002         -6.1357265803962946E-004
  0.21010000000000004         -1.1343911755830050E-003
  0.21120000000000003         -1.1554758530110121E-003
  0.21230000000000002         -5.3723045857623219E-004
  0.21340000000000003          8.2890526391565800E-004
  0.21450000000000002          2.0524810533970594E-003
  0.21560000000000001          1.5982378972694278E-003
  0.21670000000000003         -6.9192936643958092E-004
  0.21780000000000002         -2.6784599758684635E-003
  0.21890000000000001         -2.0937086082994938E-003
  0.22000000000000003          5.8374402578920126E-004
  0.22110000000000002          2.5056966114789248E-003
  0.22220000000000004          1.8518418073654175E-003
  0.22330000000000003         -2.1114909031894058E-004
  0.22440000000000002         -1.4412062009796500E-003
  0.22550000000000003         -1.2936696875840425E-003
  0.22660000000000002         -7.3810637695714831E-004
  0.22770000000000001         -1.3636038056574762E-004
  0.22880000000000003          9.9935522302985191E-004
  0.22990000000000002          2.1391271147876978E-003
  0.23100000000000004          1.5166213270276785E-003
  0.23210000000000003         -1.1796838371083140E-003
  0.23320000000000002         -3.2741285394877195E-003
  0.23430000000000004         -2.0023342221975327E-003
  0.23540000000000003          1.5665225218981504E-003
  0.23650000000000002          3.3957432024180889E-003
  0.23760000000000003          1.5279657673090696E-003
  0.23870000000000002         -1.5144298085942864E-003
  0.23980000000000001         -2.2811223752796650E-003
  0.24090000000000000         -7.5854355236515403E-004
  0.24200000000000005          4.7481170622631907E-004
  0.24310000000000004          3.9876281516626477E-004
  0.24420000000000003          4.6671289601363242E-004
  0.24530000000000002          1.3282329309731722E-003
  0.24640000000000001          1.2172088027000427E-003
  0.24750000000000005         -9.7401376115158200E-004
  0.24860000000000004         -2.9355534352362156E-003
  0.24970000000000003         -1.6453081043437123E-003
  0.25080000000000002          1.9096231553703547E-003
  0.25190000000000001          3.3858271781355143E-003
  0.25300000000000000          8.8966067414730787E-004
  0.25410000000000005         -2.3160302080214024E-003
  0.25520000000000004         -2.3202665615826845E-003
  0.25630000000000003          1.7880325322039425E-004
  0.25740000000000002          1.4198519056662917E-003
  0.25850000000000001          2.7617622981779277E-004
  0.25960000000000005         -5.7963305152952671E-004
  0.26070000000000004          5.4607068886980414E-004
  0.26180000000000003          1.4817125629633665E-003
  0.26290000000000002         -1.2533976405393332E-004
  0.26400000000000001         -2.4758877698332071E-003
  0.26510000000000000         -1.8806486623361707E-003
  0.26620000000000005          1.4635056722909212E-003
  0.26730000000000004          3.1928550451993942E-003
  0.26840000000000003          9.1636279830709100E-004
  0.26950000000000002         -2.2577960044145584E-003
  0.27060000000000001         -2.1878883708268404E-003
  0.27170000000000005          4.5383043470792472E-004
  0.27280000000000004          1.6028968384489417E-003
  0.27390000000000003          6.0620859585469589E-005
  0.27500000000000002         -1.0611206525936723E-003
  0.27610000000000001          3.2499045482836664E-004
  0.27720000000000000          1.7829183489084244E-003
  0.27830000000000005          3.2350220135413110E-004
  0.27940000000000004         -2.4176384322345257E-003
  0.28050000000000003         -2.2195044439285994E-003
  0.28160000000000002          1.2253008317202330E-003
  0.28270000000000001          3.3628165256232023E-003
  0.28380000000000005          1.2132917763665318E-003
  0.28490000000000004         -2.2804429754614830E-003
  0.28600000000000003         -2.5075064040720463E-003
  0.28710000000000002          2.9994972283020616E-004
  0.28820000000000001          1.8769579473882914E-003
  0.28930000000000000          4.4709944631904364E-004
  0.29040000000000005         -1.0643239365890622E-003
  0.29150000000000004         -1.1392145825084299E-004
  0.29260000000000003          1.3849608367308974E-003
  0.29370000000000002          3.9299009949900210E-004
  0.29480000000000001         -1.9817859865725040E-003
  0.29590000000000005         -1.8733468605205417E-003
  0.29700000000000004          1.2011277722194791E-003
  0.29810000000000003          3.0821836553514004E-003
  0.29920000000000002          9.3427952378988266E-004
  0.30030000000000001         -2.4252501316368580E-003
  0.30140000000000006         -2.4752088356763124E-003
  0.30250000000000005          5.6624785065650940E-004
  0.30360000000000004          2.3080212995409966E-003
  0.30470000000000003          6.8708072649315000E-004
  0.30580000000000002         -1.3874584110453725E-003
  0.30690000000000001         -8.4575015353038907E-004
  0.30800000000000005          9.6973171457648277E-004
  0.30910000000000004          8.3520368207246065E-004
  0.31020000000000003         -1.0564726544544101E-003
  0.31130000000000002         -1.4475190546363592E-003
  0.31240000000000001          6.4937898423522711E-004
  0.31350000000000006          2.1512687671929598E-003
  0.31460000000000005          5.9316272381693125E-004
  0.31570000000000004         -1.9345692126080394E-003
