  -1.3200000000000002E-002     0.0000000000000000
  -1.2100000000000001E-002     0.0000000000000000
  -1.1000000000000001E-002     0.0000000000000000
  -9.9000000000000025E-003     0.0000000000000000
  -8.8000000000000023E-003     0.0000000000000000
  -7.7000000000000011E-003     0.0000000000000000
  -6.6000000000000017E-003     0.0000000000000000
  -5.5000000000000014E-003     0.0000000000000000
  -4.4000000000000011E-003     3.6576512196683395E-029
  -3.3000000000000008E-003     7.0078205014779654E-029
  -2.2000000000000006E-003     1.7458692168378831E-028
  -1.1000000000000003E-003     1.9775585409994189E-027
  -1.7347234759768071E-018     1.0096446029242063E-027
   1.0999999999999985E-003    -3.6252364825904034E-026
   2.1999999999999988E-003    -9.2548649873535876E-026
   3.2999999999999991E-003     3.4395358521622573E-025
   4.3999999999999994E-003     2.4658362086818116E-024
   5.4999999999999997E-003     3.4015011701360591E-024
   6.6000000000000000E-003    -1.8627200583306414E-023
   7.7000000000000002E-003    -8.6871376055967944E-023
   8.8000000000000005E-003    -3.0676629658833981E-023
   9.9000000000000008E-003     7.3857277693982551E-022
   1.1000000000000001E-002     1.9033288569938786E-021
   1.2100000000000001E-002    -1.9035312092823986E-021
   1.3199999999999998E-002    -1.7967556823543708E-020
   1.4299999999999998E-002    -2.1560268795738599E-020
   1.5399999999999999E-002     7.5895727594558282E-020
   1.6500000000000001E-002     2.6868165294338909E-019
   1.7599999999999998E-002     4.3919280639299448E-020
   1.8700000000000001E-002    -1.3689884632686298E-018
   1.9799999999999998E-002    -2.5633677846237474E-018
   2.0900000000000002E-002     2.2856933859521997E-018
   2.1999999999999999E-002     1.5553635876512190E-017
   2.3099999999999996E-002     1.5630575254008197E-017
   2.4199999999999999E-002    -3.9277725092459758E-017
   2.5299999999999996E-002    -1.2584997154622680E-016
   2.6400000000000000E-002    -5.2847993618306601E-017
   2.7499999999999997E-002     3.7529806431351505E-016
   2.8600000000000000E-002     7.8366990648111355E-016
   2.9699999999999997E-002    -2.0684316270100950E-017
   3.0800000000000001E-002    -2.5752622216245087E-015
   3.1899999999999998E-002    -4.0058500475601867E-015
   3.3000000000000002E-002     1.4326156228114048E-015
   3.4099999999999998E-002     1.3892567685711097E-014
   3.5200000000000002E-002     1.7882998345499466E-014
   3.6299999999999999E-002    -9.3960848148821711E-015
   3.7400000000000003E-002    -6.1565830829658080E-014
   3.8500000000000000E-002    -7.3571343787125210E-014
   3.9599999999999996E-002     3.3754096929626207E-014
   4.0700000000000000E-002     2.2732708185486949E-013
   4.1799999999999997E-002     2.8569304582649890E-013
   4.2900000000000001E-002    -4.4289452069993726E-014
   4.3999999999999997E-002    -6.8398406513278664E-013
   4.5100000000000001E-002    -1.0233170647661050E-012
   4.6199999999999998E-002    -3.0322212839564711E-013
   4.7300000000000002E-002     1.5144890549989576E-012
   4.8399999999999999E-002     3.1622558304550408E-012
   4.9500000000000002E-002     2.5910224486780375E-012
   5.0600000000000006E-002    -1.4007909415747477E-012
   5.1699999999999996E-002    -7.4424407608963961E-012
   5.2800000000000000E-002    -1.1111792042051150E-011
   5.3900000000000003E-002    -6.6732886577769435E-012
   5.5000000000000007E-002     8.7422404385084640E-012
   5.6099999999999997E-002     2.9841927540186219E-011
   5.7200000000000001E-002     4.0810157336812480E-011
   5.8300000000000005E-002     2.1550960668803576E-011
   5.9399999999999994E-002    -3.5869432424284753E-011
   6.0499999999999998E-002    -1.0949532253112793E-010
   6.1600000000000002E-002    -1.4582836327381443E-010
   6.2700000000000006E-002    -8.5869582278075285E-011
   6.3799999999999996E-002     9.0197030400140932E-011
   6.4899999999999999E-002     3.2761762747135492E-010
   6.6000000000000003E-002     4.9745341179630032E-010
   6.7100000000000007E-002     4.3921880021891013E-010
   6.8199999999999997E-002     3.4461877795877172E-011
   6.9300000000000000E-002    -7.0436456667266611E-010
   7.0400000000000004E-002    -1.5520779106381610E-009
   7.1500000000000008E-002    -2.0453523319474698E-009
   7.2599999999999998E-002    -1.5896515215274576E-009
   7.3700000000000002E-002     2.5459562236207489E-010
   7.4800000000000005E-002     3.3708393853970620E-009
   7.5899999999999995E-002     6.7729448716136176E-009
   7.6999999999999999E-002     8.6395175458164886E-009
   7.8100000000000003E-002     6.8599219638088016E-009
   7.9200000000000007E-002     2.8457207076892921E-011
   8.0299999999999996E-002    -1.1437058411445378E-008
   8.1400000000000000E-002    -2.4550645960630391E-008
   8.2500000000000004E-002    -3.3879569372174956E-008
   8.3600000000000008E-002    -3.2799725602217222E-008
   8.4699999999999998E-002    -1.5766305594411278E-008
   8.5800000000000001E-002     1.8927053702100238E-008
   8.6900000000000005E-002     6.6721312919071352E-008
   8.8000000000000009E-002     1.1564652879769710E-007
   8.9099999999999999E-002     1.4734507658431539E-007
   9.0200000000000002E-002     1.4078169385811634E-007
   9.1300000000000006E-002     7.8330678832116973E-008
   9.2399999999999996E-002    -4.7233381650357842E-008
   9.3500000000000000E-002    -2.2723274639702140E-007
   9.4600000000000004E-002    -4.3542578964661516E-007
   9.5700000000000007E-002    -6.3137804318103008E-007
   9.6799999999999997E-002    -7.6837864071421791E-007
   9.7900000000000001E-002    -8.0409745351062156E-007
   9.9000000000000005E-002    -7.1155915293275029E-007
  0.10010000000000001         -4.8785511808091542E-007
  0.10120000000000000         -1.5811755815775541E-007
  0.10230000000000000          2.2707449431891291E-007
  0.10340000000000001          6.0115786482128897E-007
  0.10450000000000001          8.9605941866466310E-007
  0.10560000000000000          1.0579866511761793E-006
  0.10670000000000000          1.0602068414300447E-006
  0.10780000000000001          9.0927790097339312E-007
  0.10890000000000001          6.4304828129024827E-007
  0.11000000000000000          3.2106657954500406E-007
  0.11110000000000000          1.0086677271203826E-008
  0.11220000000000001         -2.3157041084687080E-007
  0.11330000000000000         -3.6712469864141895E-007
  0.11440000000000002         -3.8896297382962075E-007
  0.11550000000000001         -3.1868236760601576E-007
  0.11660000000000000         -1.9884303981143603E-007
  0.11770000000000001         -7.8353252774832072E-008
  0.11880000000000000          3.4590099673437180E-009
  0.11989999999999999          2.7888704678957765E-008
  0.12100000000000001         -6.0913923904948319E-010
  0.12210000000000000         -5.9422102793860176E-008
  0.12320000000000002         -1.1669133215264083E-007
  0.12430000000000001         -1.4144634974400105E-007
  0.12540000000000001         -1.1410683242729647E-007
  0.12650000000000003         -3.5592925939909037E-008
  0.12760000000000002          6.9602343444330472E-008
  0.12870000000000001          1.6106277200833574E-007
  0.12980000000000003          1.9986920563042077E-007
  0.13090000000000002          1.6723535622986674E-007
  0.13200000000000001          7.3367097286336502E-008
  0.13310000000000002         -4.8623782333834242E-008
  0.13420000000000001         -1.5910138984054356E-007
  0.13530000000000003         -2.2779335040468141E-007
  0.13640000000000002         -2.4047540136962198E-007
  0.13750000000000001         -1.9615617929957807E-007
  0.13860000000000003         -1.0229189228994073E-007
  0.13970000000000002          2.4409816390402739E-008
  0.14080000000000001          1.5299951883207541E-007
  0.14190000000000003          2.4013581878534751E-007
  0.14300000000000002          2.4779780005701468E-007
  0.14410000000000003          1.6964861515589291E-007
  0.14520000000000002          4.3194415155767274E-008
  0.14630000000000001         -6.9947297731687286E-008
  0.14740000000000003         -1.2579201325024769E-007
  0.14850000000000002         -1.2714565400528954E-007
  0.14960000000000001         -1.1233319696657418E-007
  0.15070000000000003         -1.1257279197707248E-007
  0.15180000000000002         -1.1894381657384656E-007
  0.15290000000000001         -9.2610640933799004E-008
  0.15400000000000003         -9.9289954036407835E-009
  0.15510000000000002          1.0201342348636899E-007
  0.15620000000000003          1.7762184256753244E-007
  0.15730000000000002          1.6662747270856926E-007
  0.15840000000000001          8.1671430507412879E-008
  0.15950000000000003         -7.5768209484294857E-009
  0.16060000000000002         -3.4911735724563187E-008
  0.16170000000000001         -5.6133198089725056E-010
  0.16280000000000003          2.5885292131988535E-008
  0.16390000000000002         -2.5327938857344634E-008
  0.16500000000000001         -1.4313849305835902E-007
  0.16610000000000003         -2.2692589141115604E-007
  0.16720000000000002         -1.7333046287149045E-007
  0.16830000000000003          1.5454560298167053E-008
  0.16940000000000002          2.1165969599223899E-007
  0.17050000000000001          2.6441867362336779E-007
  0.17160000000000003          1.3673998466856574E-007
  0.17270000000000002         -5.5617903171878424E-008
  0.17380000000000001         -1.4812030713073909E-007
  0.17490000000000003         -7.9761321103433147E-008
  0.17600000000000002          5.2272056905167119E-008
  0.17710000000000004          9.0642181760358653E-008
  0.17820000000000003         -2.3028658091561738E-008
  0.17930000000000001         -1.8120070421900891E-007
  0.18040000000000003         -2.0604726103101711E-007
  0.18150000000000002         -2.5657874047624318E-008
  0.18260000000000001          2.3475162436170649E-007
  0.18370000000000003          3.4572289564493985E-007
  0.18480000000000002          1.8209033214588999E-007
  0.18590000000000001         -1.4275104831540375E-007
  0.18700000000000003         -3.5815438081954198E-007
  0.18810000000000002         -2.7832152227347251E-007
  0.18920000000000003          1.7216523318097643E-008
  0.19030000000000002          2.4940121079453093E-007
  0.19140000000000001          2.0460534244648443E-007
  0.19250000000000003         -5.4413625605320703E-008
  0.19360000000000002         -2.4625941819067521E-007
  0.19470000000000001         -1.5019415400274738E-007
  0.19580000000000003          1.6597449814526044E-007
  0.19690000000000002          3.9857206957094604E-007
  0.19800000000000001          2.9673759627257823E-007
  0.19910000000000003         -8.8571866285747092E-008
  0.20020000000000002         -4.3492536860867403E-007
  0.20130000000000003         -4.3572705976657744E-007
  0.20240000000000002         -8.3577226916986547E-008
  0.20350000000000001          3.1147729373515176E-007
  0.20460000000000003          3.9540833540741005E-007
  0.20570000000000002          9.6788511427803314E-008
  0.20680000000000001         -2.9495407716240152E-007
  0.20790000000000003         -3.9019911923787731E-007
  0.20900000000000002         -7.2814579255009448E-008
  0.21010000000000004          3.6955705695618235E-007
  0.21120000000000003          5.0573595444802777E-007
  0.21230000000000002          1.7946737784768629E-007
  0.21340000000000003         -3.2309523589901801E-007
  0.21450000000000002         -5.3640991382053471E-007
  0.21560000000000001         -2.6197514557679824E-007
  0.21670000000000003          2.3850702746130992E-007
  0.21780000000000002          4.9164924575961777E-007
  0.21890000000000001          2.5845056939033384E-007
  0.22000000000000003         -2.4709882495699276E-007
  0.22110000000000002         -5.5997622894210508E-007
  0.22220000000000004         -3.8635269561382302E-007
  0.22330000000000003          1.3662827313964954E-007
  0.22440000000000002          5.6342059906455688E-007
  0.22550000000000003          5.3087535434315214E-007
  0.22660000000000002          7.9838351041416900E-008
  0.22770000000000001         -3.7431723853842414E-007
  0.22880000000000003         -4.1073982970374345E-007
  0.22990000000000002          5.4076156885685123E-009
  0.23100000000000004          4.7354299681501288E-007
  0.23210000000000003          5.1948751433883444E-007
  0.23320000000000002          4.1920380056126305E-008
  0.23430000000000004         -5.8602296348908567E-007
  0.23540000000000003         -8.6306289404092240E-007
  0.23650000000000002         -6.1618408153663040E-007
  0.23760000000000003         -1.3102710738621681E-007
  0.23870000000000002          1.4113608415300405E-007
  0.23980000000000001         -7.7508701679107617E-009
  0.24090000000000000         -3.9005036001071858E-007
  0.24200000000000005         -6.1599149603352998E-007
  0.24310000000000004         -4.2408208855704288E-007
  0.24420000000000003          1.1937765975744696E-007
  0.24530000000000002          6.7476577214620193E-007
  0.24640000000000001          8.8259616859431844E-007
  0.24750000000000005          6.4066074401125661E-007
  0.24860000000000004          1.9629513303698332E-007
  0.24970000000000003         -4.8314792167047926E-008
  0.25080000000000002          1.1585348147491459E-007
  0.25190000000000001          5.1094747277602437E-007
  0.25300000000000000          7.3086494012386538E-007
  0.25410000000000005          5.1351588581383112E-007
  0.25520000000000004         -2.7645249645047443E-008
  0.25630000000000003         -5.1738004458456999E-007
  0.25740000000000002         -6.3885852341627469E-007
  0.25850000000000001         -3.6241942780179670E-007
  0.25960000000000005          6.8463855029676779E-008
  0.26070000000000004          3.2422101980955631E-007
  0.26180000000000003          2.0791861743418849E-007
  0.26290000000000002         -2.0035729164646909E-007
  0.26400000000000001         -5.6512925539209391E-007
  0.26510000000000000         -5.3211846307021915E-007
  0.26620000000000005         -5.2431449404366504E-008
  0.26730000000000004          5.0701521558949025E-007
  0.26840000000000003          6.5101949076051824E-007
  0.26950000000000002          2.2474199568023323E-007
  0.27060000000000001         -4.0505238985133474E-007
  0.27170000000000005         -6.7309014184502303E-007
  0.27280000000000004         -3.3756708717191941E-007
  0.27390000000000003          3.0991122912382707E-007
  0.27500000000000002          7.2279249252460431E-007
  0.27610000000000001          5.6871635933930520E-007
  0.27720000000000000         -2.4315911062444684E-008
  0.27830000000000005         -5.9427179621707182E-007
  0.27940000000000004         -6.9946673875165288E-007
  0.28050000000000003         -2.5284765570177115E-007
  0.28160000000000002          3.8258374956967600E-007
  0.28270000000000001          6.4838491198315751E-007
  0.28380000000000005          2.6722244683696772E-007
  0.28490000000000004         -4.5388725311568123E-007
  0.28600000000000003         -8.4585343529397505E-007
  0.28710000000000002         -4.9802707735580043E-007
  0.28820000000000001          3.1965868174665957E-007
  0.28930000000000000          8.9483137344359420E-007
  0.29040000000000005          7.5101218044437701E-007
  0.29150000000000004          7.3325793437106768E-008
  0.29260000000000003         -5.2156849505990976E-007
  0.29370000000000002         -5.7568701095078723E-007
  0.29480000000000001         -1.4182217000779929E-007
  0.29590000000000005          3.5207145288040920E-007
  0.29700000000000004          4.8839592636795714E-007
  0.29810000000000003          1.5189304747309507E-007
  0.29920000000000002         -4.1256345184592647E-007
  0.30030000000000001         -7.6194226039660862E-007
  0.30140000000000006         -5.7284637478005607E-007
  0.30250000000000005          6.4336205696235993E-008
  0.30360000000000004          6.5929202719416935E-007
  0.30470000000000003          7.3162539138138527E-007
  0.30580000000000002          2.6846532819035929E-007
  0.30690000000000001         -2.6231364813611435E-007
  0.30800000000000005         -3.8924872569623403E-007
  0.30910000000000004         -9.0735930768914841E-008
  0.31020000000000003          2.5564301608937967E-007
  0.31130000000000002          3.0854027954774210E-007
  0.31240000000000001          6.0261243106651818E-008
  0.31350000000000006         -2.6270362241120893E-007
  0.31460000000000005         -4.5402327941701515E-007
  0.31570000000000004         -4.2597650917741703E-007
