  -1.3200000000000002E-002     0.0000000000000000
  -1.2100000000000001E-002     0.0000000000000000
  -1.1000000000000001E-002     0.0000000000000000
  -9.9000000000000025E-003     0.0000000000000000
  -8.8000000000000023E-003     0.0000000000000000
  -7.7000000000000011E-003     0.0000000000000000
  -6.6000000000000017E-003     0.0000000000000000
  -5.5000000000000014E-003     0.0000000000000000
  -4.4000000000000011E-003     0.0000000000000000
  -3.3000000000000008E-003     8.0468330603689347E-032
  -2.2000000000000006E-003     1.5417206737658869E-031
  -1.1000000000000003E-003     4.6455955220485695E-031
  -1.7347234759768071E-018     4.5048009212777002E-030
   1.0999999999999985E-003     2.6857783324762807E-030
   2.1999999999999988E-003    -7.5250398213990947E-029
   3.2999999999999991E-003    -2.0092123311192655E-028
   4.3999999999999994E-003     6.8144750702840940E-028
   5.4999999999999997E-003     5.2239185738031822E-027
   6.6000000000000000E-003     8.1647496580083377E-027
   7.7000000000000002E-003    -3.5755924797487136E-026
   8.8000000000000005E-003    -1.8295227601221102E-025
   9.9000000000000008E-003    -1.0324450673863647E-025
   1.1000000000000001E-002     1.4419077699098744E-024
   1.2100000000000001E-002     4.0840788455966440E-024
   1.3199999999999998E-002    -2.7458605307908298E-024
   1.4299999999999998E-002    -3.5444545990756848E-023
   1.5399999999999999E-002    -5.0178451371811603E-023
   1.6500000000000001E-002     1.3152605928635374E-022
   1.7599999999999998E-002     5.4092119064712775E-022
   1.8700000000000001E-002     2.2814851974820964E-022
   1.9799999999999998E-002    -2.4708533151296411E-021
   2.0900000000000002E-002    -5.4112604709570534E-021
   2.1999999999999999E-002     2.5576725443243303E-021
   2.3099999999999996E-002     2.8806736084395381E-020
   2.4199999999999999E-002     3.6944936385127005E-020
   2.5299999999999996E-002    -5.7604263322127575E-020
   2.6400000000000000E-002    -2.3992497744192451E-019
   2.7499999999999997E-002    -1.7386983631634600E-019
   2.8600000000000000E-002     5.8573072765186166E-019
   2.9699999999999997E-002     1.5502039865418735E-018
   3.0800000000000001E-002     5.4022529910742337E-019
   3.1899999999999998E-002    -4.1153732671421848E-018
   3.3000000000000002E-002    -8.2726448866714055E-018
   3.4099999999999998E-002    -9.6361878131724456E-019
   3.5200000000000002E-002     2.2291002113421899E-017
   3.6299999999999999E-002     3.8378976813308643E-017
   3.7400000000000003E-002     1.6196196393788282E-018
   3.8500000000000000E-002    -9.7065839852280054E-017
   3.9599999999999996E-002    -1.6023732544793426E-016
   4.0700000000000000E-002    -2.2806822017242616E-017
   4.1799999999999997E-002     3.3988224036027347E-016
   4.2900000000000001E-002     6.0571786632320087E-016
   4.3999999999999997E-002     2.4244544639921034E-016
   4.5100000000000001E-002    -8.9904722884193719E-016
   4.6199999999999998E-002    -2.0088521368285053E-015
   4.7300000000000002E-002    -1.5661359673859419E-015
   4.8399999999999999E-002     1.3230236413594464E-015
   4.9500000000000002E-002     5.3908264198356416E-015
   5.0600000000000006E-002     7.0232732085303336E-015
   5.1699999999999996E-002     2.3090869883892915E-015
   5.2800000000000000E-002    -9.3500960080439462E-015
   5.3900000000000003E-002    -2.2136855404850976E-014
   5.5000000000000007E-002    -2.4031330988745839E-014
   5.6099999999999997E-002    -2.9039275223016487E-015
   5.7200000000000001E-002     4.1620908650986943E-014
   5.8300000000000005E-002     8.6878414347606875E-014
   5.9399999999999994E-002     8.9033022219933006E-014
   6.0499999999999998E-002     7.9656663955359440E-015
   6.1600000000000002E-002    -1.5185669020000014E-013
   6.2700000000000006E-002    -3.1285672837111367E-013
   6.3799999999999996E-002    -3.4076978435229610E-013
   6.4899999999999999E-002    -1.1442330915233112E-013
   6.6000000000000003E-002     3.7998900900837462E-013
   6.7100000000000007E-002     9.7997413135708644E-013
   6.8199999999999997E-002     1.3462704258684899E-012
   6.9300000000000000E-002     1.0557903292948700E-012
   7.0400000000000004E-002    -2.0333151937342031E-013
   7.1500000000000008E-002    -2.3587811391612146E-012
   7.2599999999999998E-002    -4.7031068275971144E-012
   7.3700000000000002E-002    -5.8560140243912873E-012
   7.4800000000000005E-002    -4.1429962759076400E-012
   7.5899999999999995E-002     1.5598324498364291E-012
   7.6999999999999999E-002     1.0757482578338529E-011
   7.8100000000000003E-002     2.0566770508878562E-011
   7.9200000000000007E-002     2.5849310539283188E-011
   8.0299999999999996E-002     2.0629376679126565E-011
   8.1400000000000000E-002     6.8778197113289474E-013
   8.2500000000000004E-002    -3.3382040187657225E-011
   8.3600000000000008E-002    -7.3847268577953429E-011
   8.4699999999999998E-002    -1.0554143670127303E-010
   8.5800000000000001E-002    -1.0853314080794263E-010
   8.6900000000000005E-002    -6.3901918478936892E-011
   8.8000000000000009E-002     3.8253754330863643E-011
   8.9099999999999999E-002     1.9052043276346353E-010
   9.0200000000000002E-002     3.6241293299710264E-010
   9.1300000000000006E-002     5.0024012709926069E-010
   9.2399999999999996E-002     5.3474036310063866E-010
   9.3500000000000000E-002     3.9632669368572238E-010
   9.4600000000000004E-002     3.4828306905154705E-011
   9.5700000000000007E-002    -5.6161003625376793E-010
   9.6799999999999997E-002    -1.3542033050484292E-009
   9.7900000000000001E-002    -2.2520432185757500E-009
   9.9000000000000005E-002    -3.1232181285645311E-009
  0.10010000000000001         -3.8174738925533802E-009
  0.10120000000000000         -4.1964995922683102E-009
  0.10230000000000000         -4.1653325233426131E-009
  0.10340000000000001         -3.6969354244575925E-009
  0.10450000000000001         -2.8427848963730185E-009
  0.10560000000000000         -1.7256044371194434E-009
  0.10670000000000000         -5.1521453769964864E-010
  0.10780000000000001          6.0685018121731105E-010
  0.10890000000000001          1.4851968543894145E-009
  0.11000000000000000          2.0215564777714690E-009
  0.11110000000000000          2.1915433912056415E-009
  0.11220000000000001          2.0437469494538618E-009
  0.11330000000000000          1.6820878023793284E-009
  0.11440000000000002          1.2360723555815412E-009
  0.11550000000000001          8.2636919529477382E-010
  0.11660000000000000          5.3497073437824838E-010
  0.11770000000000001          3.8891409537278321E-010
  0.11880000000000000          3.6259351077205793E-010
  0.11989999999999999          3.9652411909507634E-010
  0.12100000000000001          4.2394862620476204E-010
  0.12210000000000000          3.9518383010417324E-010
  0.12320000000000002          2.9321986505514985E-010
  0.12430000000000001          1.3846283841711937E-010
  0.12540000000000001         -1.7962156068085378E-011
  0.12650000000000003         -1.1257230564387655E-010
  0.12760000000000002         -9.6266640492448374E-011
  0.12870000000000001          4.0552901314772072E-011
  0.12980000000000003          2.5807148085199572E-010
  0.13090000000000002          4.8026521648480980E-010
  0.13200000000000001          6.2598931593882412E-010
  0.13310000000000002          6.4167271496273770E-010
  0.13420000000000001          5.1901682951438488E-010
  0.13530000000000003          2.9164970438699811E-010
  0.13640000000000002          1.7871521970636017E-011
  0.13750000000000001         -2.3739626930918689E-010
  0.13860000000000003         -4.1367206882192420E-010
  0.13970000000000002         -4.6243842088955489E-010
  0.14080000000000001         -3.5997063663195661E-010
  0.14190000000000003         -1.2583963038270696E-010
  0.14300000000000002          1.6832819860201909E-010
  0.14410000000000003          4.1931558225627441E-010
  0.14520000000000002          5.4155518958154403E-010
  0.14630000000000001          5.1434329018107405E-010
  0.14740000000000003          3.8767103416326165E-010
  0.14850000000000002          2.3760085565704969E-010
  0.14960000000000001          1.0795066229807304E-010
  0.15070000000000003         -9.5320713128232981E-012
  0.15180000000000002         -1.3970942458474411E-010
  0.15290000000000001         -2.7120852785778027E-010
  0.15400000000000003         -3.4345271071600791E-010
  0.15510000000000002         -2.9305216586728022E-010
  0.15620000000000003         -1.1902318020062808E-010
  0.15730000000000002          9.7715897873218438E-011
  0.15840000000000001          2.4755730798631248E-010
  0.15950000000000003          2.7739310848318155E-010
  0.16060000000000002          2.3088826683892449E-010
  0.16170000000000001          2.0058724126137406E-010
  0.16280000000000003          2.2965319923518024E-010
  0.16390000000000002          2.5753463250843822E-010
  0.16500000000000001          1.7393160522960471E-010
  0.16610000000000003         -5.7370049683092006E-011
  0.16720000000000002         -3.2530539373354372E-010
  0.16830000000000003         -4.3869716193079000E-010
  0.16940000000000002         -2.9130539647148623E-010
  0.17050000000000001          2.6954083062746825E-011
  0.17160000000000003          2.9041560822840040E-010
  0.17270000000000002          3.2778202374572629E-010
  0.17380000000000001          1.6805623559434935E-010
  0.17490000000000003          1.9174078557532281E-012
  0.17600000000000002         -7.4186741819137758E-012
  0.17710000000000004          1.1691583812201145E-010
  0.17820000000000003          1.9199393463953385E-010
  0.17930000000000001          6.6252704711278199E-011
  0.18040000000000003         -2.0664762956368321E-010
  0.18150000000000002         -3.8705125215976466E-010
  0.18260000000000001         -2.6309487921594155E-010
  0.18370000000000003          1.2940228055757785E-010
  0.18480000000000002          4.9749548924893361E-010
  0.18590000000000001          5.3000104305311879E-010
  0.18700000000000003          1.8344328833741486E-010
  0.18810000000000002         -2.5793844837807001E-010
  0.18920000000000003         -4.2886397211283622E-010
  0.19030000000000002         -2.2006205191438255E-010
  0.19140000000000001          1.1981865499777200E-010
  0.19250000000000003          2.3006974103623179E-010
  0.19360000000000002          1.0880400448881958E-013
  0.19470000000000001         -3.1170099834554321E-010
  0.19580000000000003         -3.3031843926778492E-010
  0.19690000000000002          5.3442781450252497E-011
  0.19800000000000001          5.4654003545095975E-010
  0.19910000000000003          7.0626537951312685E-010
  0.20020000000000002          3.5168176704125642E-010
  0.20130000000000003         -2.5057048103072077E-010
  0.20240000000000002         -6.0691779379951072E-010
  0.20350000000000001         -4.3444042807649907E-010
  0.20460000000000003          7.8332257347213385E-011
  0.20570000000000002          4.3545791972299241E-010
  0.20680000000000001          2.9126695499925859E-010
  0.20790000000000003         -2.1344113976251577E-010
  0.20900000000000002         -5.6717119889526657E-010
  0.21010000000000004         -3.7363320770644748E-010
  0.21120000000000003          2.4585433688883995E-010
  0.21230000000000002          7.3898587249487946E-010
  0.21340000000000003          6.4068256255822575E-010
  0.21450000000000002          2.8176436878135647E-011
  0.21560000000000001         -5.3941906497101400E-010
  0.21670000000000003         -5.4816884365038732E-010
  0.21780000000000002         -1.4703743431154770E-011
  0.21890000000000001          5.3345949879712862E-010
  0.22000000000000003          5.5388760245023150E-010
  0.22110000000000002         -1.0157824234524604E-011
  0.22220000000000004         -6.7805999703907105E-010
  0.22330000000000003         -8.6013374200888393E-010
  0.22440000000000002         -3.7747779901842193E-010
  0.22550000000000003          3.7939157371269516E-010
  0.22660000000000002          7.9044804035532934E-010
  0.22770000000000001          5.5503607265805499E-010
  0.22880000000000003         -3.3049694925235684E-011
  0.22990000000000002         -3.4859160003009038E-010
  0.23100000000000004         -2.1153051532607492E-011
  0.23210000000000003          6.9320293949459710E-010
  0.23320000000000002          1.1217193840451500E-009
  0.23430000000000004          7.8542783388257931E-010
  0.23540000000000003         -1.6753098908139918E-010
  0.23650000000000002         -1.1133103328120342E-009
  0.23760000000000003         -1.5231360617207201E-009
  0.23870000000000002         -1.4015700822156418E-009
  0.23980000000000001         -1.2126366577547287E-009
  0.24090000000000000         -1.4186222196954645E-009
  0.24200000000000005         -2.0707475734127456E-009
  0.24310000000000004         -2.7738034091839836E-009
  0.24420000000000003         -3.0037281550931993E-009
  0.24530000000000002         -2.5111728252369403E-009
  0.24640000000000001         -1.5192439528632917E-009
  0.24750000000000005         -5.6946131143931211E-010
  0.24860000000000004         -1.0979024633872569E-010
  0.24970000000000003         -1.3761199124662227E-010
  0.25080000000000002         -2.1608284606067230E-010
  0.25190000000000001          1.1726554449698057E-010
  0.25300000000000000          9.0800145180480740E-010
  0.25410000000000005          1.7251682304930682E-009
  0.25520000000000004          2.0377364240431461E-009
  0.25630000000000003          1.6643487699141701E-009
  0.25740000000000002          8.9950041859410135E-010
  0.25850000000000001          2.5886010002196258E-010
  0.25960000000000005          1.0217757195896127E-010
  0.26070000000000004          4.0948056057033000E-010
  0.26180000000000003          8.1546375207963706E-010
  0.26290000000000002          8.6690143952239396E-010
  0.26400000000000001          3.7467773328359044E-010
  0.26510000000000000         -3.7638298033826345E-010
  0.26620000000000005         -7.9598277968884190E-010
  0.26730000000000004         -4.9173215499465073E-010
  0.26840000000000003          3.1945068812433419E-010
  0.26950000000000002          9.4051066934497385E-010
  0.27060000000000001          8.1388307204832699E-010
  0.27170000000000005          4.9395539741814432E-011
  0.27280000000000004         -6.6691518973982511E-010
  0.27390000000000003         -6.9325201135228554E-010
  0.27500000000000002          1.4889488947344987E-011
  0.27610000000000001          8.9689144999738346E-010
  0.27720000000000000          1.2660654746809996E-009
  0.27830000000000005          8.4339646377884492E-010
  0.27940000000000004         -4.1332427064277866E-011
  0.28050000000000003         -6.9543032443775132E-010
  0.28160000000000002         -5.9759730497432884E-010
  0.28270000000000001          1.4625389788136545E-010
  0.28380000000000005          8.2884943353178642E-010
  0.28490000000000004          7.3414330170606945E-010
  0.28600000000000003         -1.6970248817305134E-010
  0.28710000000000002         -1.1267342614473819E-009
  0.28820000000000001         -1.2653620373725971E-009
  0.28930000000000000         -4.2348524686985911E-010
  0.29040000000000005          7.0326700019052168E-010
  0.29150000000000004          1.2287416639722437E-009
  0.29260000000000003          8.6458379344733771E-010
  0.29370000000000002          8.1290946196688196E-011
  0.29480000000000001         -4.0192763006707821E-010
  0.29590000000000005         -2.3071779209349330E-010
  0.29700000000000004          3.7262953833661072E-010
  0.29810000000000003          8.4375323394780821E-010
  0.29920000000000002          7.0679423425090704E-010
  0.30030000000000001         -6.3886319845440909E-011
  0.30140000000000006         -9.6947860850349343E-010
  0.30250000000000005         -1.3241482355041967E-009
  0.30360000000000004         -8.2793899514044256E-010
  0.30470000000000003          1.2629421120013973E-010
  0.30580000000000002          7.8163686634269425E-010
  0.30690000000000001          7.1691791392325399E-010
  0.30800000000000005          2.0454686555648749E-010
  0.30910000000000004         -1.3942925980447995E-010
  0.31020000000000003          4.9278372181438268E-012
  0.31130000000000002          4.2298539670859725E-010
  0.31240000000000001          6.8371641681608253E-010
  0.31350000000000006          5.5556009792567806E-010
  0.31460000000000005          1.0576851894317230E-010
  0.31570000000000004         -4.4329104276208398E-010
