  -1.3200000000000002E-002     0.0000000000000000
  -1.2100000000000001E-002     0.0000000000000000
  -1.1000000000000001E-002     0.0000000000000000
  -9.9000000000000025E-003     0.0000000000000000
  -8.8000000000000023E-003     0.0000000000000000
  -7.7000000000000011E-003     0.0000000000000000
  -6.6000000000000017E-003     0.0000000000000000
  -5.5000000000000014E-003     0.0000000000000000
  -4.4000000000000011E-003     0.0000000000000000
  -3.3000000000000008E-003     0.0000000000000000
  -2.2000000000000006E-003     0.0000000000000000
  -1.1000000000000003E-003     0.0000000000000000
  -1.7347234759768071E-018     0.0000000000000000
   1.0999999999999985E-003     0.0000000000000000
   2.1999999999999988E-003     0.0000000000000000
   3.2999999999999991E-003     0.0000000000000000
   4.3999999999999994E-003     0.0000000000000000
   5.4999999999999997E-003     0.0000000000000000
   6.6000000000000000E-003     0.0000000000000000
   7.7000000000000002E-003     0.0000000000000000
   8.8000000000000005E-003     0.0000000000000000
   9.9000000000000008E-003     0.0000000000000000
   1.1000000000000001E-002     0.0000000000000000
   1.2100000000000001E-002     0.0000000000000000
   1.3199999999999998E-002     0.0000000000000000
   1.4299999999999998E-002     0.0000000000000000
   1.5399999999999999E-002     0.0000000000000000
   1.6500000000000001E-002     0.0000000000000000
   1.7599999999999998E-002     0.0000000000000000
   1.8700000000000001E-002     0.0000000000000000
   1.9799999999999998E-002     0.0000000000000000
   2.0900000000000002E-002     0.0000000000000000
   2.1999999999999999E-002     0.0000000000000000
   2.3099999999999996E-002     0.0000000000000000
   2.4199999999999999E-002     0.0000000000000000
   2.5299999999999996E-002     0.0000000000000000
   2.6400000000000000E-002     0.0000000000000000
   2.7499999999999997E-002     0.0000000000000000
   2.8600000000000000E-002     0.0000000000000000
   2.9699999999999997E-002     0.0000000000000000
   3.0800000000000001E-002     0.0000000000000000
   3.1899999999999998E-002     0.0000000000000000
   3.3000000000000002E-002     0.0000000000000000
   3.4099999999999998E-002     0.0000000000000000
   3.5200000000000002E-002     0.0000000000000000
   3.6299999999999999E-002     0.0000000000000000
   3.7400000000000003E-002     0.0000000000000000
   3.8500000000000000E-002     0.0000000000000000
   3.9599999999999996E-002     0.0000000000000000
   4.0700000000000000E-002     0.0000000000000000
   4.1799999999999997E-002     5.4605843564962688E-029
   4.2900000000000001E-002     1.5050012235250136E-028
   4.3999999999999997E-002    -4.7520819152398423E-028
   4.5100000000000001E-002    -1.3425899346531442E-027
   4.6199999999999998E-002     1.2705396435791538E-027
   4.7300000000000002E-002     8.8404498530449553E-027
   4.8399999999999999E-002     4.2596605322449027E-027
   4.9500000000000002E-002    -4.2042243336140672E-026
   5.0600000000000006E-002    -7.5615491697982332E-026
   5.1699999999999996E-002     1.1802135677059914E-025
   5.2800000000000000E-002     5.2604390742996636E-025
   5.3900000000000003E-002     1.0350309904115341E-025
   5.5000000000000007E-002    -2.3466119129864603E-024
   5.6099999999999997E-002    -3.5044873557431148E-024
   5.7200000000000001E-002     5.9924611707929174E-024
   5.8300000000000005E-002     2.3145723273209089E-023
   5.9399999999999994E-002     4.5147448350275719E-024
   6.0499999999999998E-002    -9.0998273482639079E-023
   6.1600000000000002E-002    -1.3790413223369769E-022
   6.2700000000000006E-002     1.8312991920502729E-022
   6.3799999999999996E-002     7.8287358978990364E-022
   6.4899999999999999E-002     3.3320426931833818E-022
   6.6000000000000003E-002    -2.5049258458350450E-021
   6.7100000000000007E-002    -4.5667223941342667E-021
   6.8199999999999997E-002     2.9628527098269743E-021
   6.9300000000000000E-002     2.0175885105403074E-020
   7.0400000000000004E-002     1.6782890399112856E-020
   7.1500000000000008E-002    -4.6340748484971867E-020
   7.2599999999999998E-002    -1.1885367895922906E-019
   7.3700000000000002E-002    -8.2279502049871943E-021
   7.4800000000000005E-002     3.7325943530087172E-019
   7.5899999999999995E-002     5.3366415418744104E-019
   7.6999999999999999E-002    -4.3783926102987070E-019
   7.8100000000000003E-002    -2.2349102866057317E-018
   7.9200000000000007E-002    -1.7391968687294939E-018
   8.0299999999999996E-002     4.2367156999200386E-018
   8.1400000000000000E-002     1.0889688007653413E-017
   8.2500000000000004E-002     2.8649359156743486E-018
   8.3600000000000008E-002    -2.6712050876946317E-017
   8.4699999999999998E-002    -4.4871970736213036E-017
   8.5800000000000001E-002     1.0571219335917434E-017
   8.6900000000000005E-002     1.3485379942664201E-016
   8.8000000000000009E-002     1.5973207029489707E-016
   8.9099999999999999E-002    -1.2674682061869150E-016
   9.0200000000000002E-002    -5.8399491229747628E-016
   9.1300000000000006E-002    -4.9950221113855735E-016
   9.2399999999999996E-002     7.3904064046279093E-016
   9.3500000000000000E-002     2.2491295494596591E-015
   9.4600000000000004E-002     1.4051873195507713E-015
   9.5700000000000007E-002    -3.2890846266047302E-015
   9.6799999999999997E-002    -7.8914984966084629E-015
   9.7900000000000001E-002    -3.7380593107363188E-015
   9.9000000000000005E-002     1.2265076886790790E-014
  0.10010000000000001          2.5678383166550037E-014
  0.10120000000000000          1.0340373238107263E-014
  0.10230000000000000         -3.9472148694128656E-014
  0.10340000000000001         -7.8394512019117069E-014
  0.10450000000000001         -3.2874741205104682E-014
  0.10560000000000000          1.0952417900562950E-013
  0.10670000000000000          2.2513559755615170E-013
  0.10780000000000001          1.1928506142913631E-013
  0.10890000000000001         -2.5217276725976456E-013
  0.11000000000000000         -6.0135452390266964E-013
  0.11110000000000000         -4.4387442939969324E-013
  0.11220000000000001          4.1599861576313568E-013
  0.11330000000000000          1.4445600748577703E-012
  0.11440000000000002          1.5354998088995542E-012
  0.11550000000000001         -9.6864221288059382E-014
  0.11660000000000000         -2.8759711626080708E-012
  0.11770000000000001         -4.6339789644411766E-012
  0.11880000000000000         -2.7664016910566858E-012
  0.11989999999999999          3.5677851732002219E-012
  0.12100000000000001          1.1422036060027008E-011
  0.12210000000000000          1.3960698916348768E-011
  0.12320000000000002          3.8873145154216804E-012
  0.12430000000000001         -1.9580954913056559E-011
  0.12540000000000001         -4.3805459259971258E-011
  0.12650000000000003         -4.3440705893571518E-011
  0.12760000000000002          4.2899399310680764E-012
  0.12870000000000001          9.2463287026944840E-011
  0.12980000000000003          1.6421927706566919E-010
  0.13090000000000002          1.2779266533868849E-010
  0.13200000000000001         -7.7835390910330204E-011
  0.13310000000000002         -3.9159175901914978E-010
  0.13420000000000001         -5.8576143935340497E-010
  0.13530000000000003         -3.5339406401213580E-010
  0.13640000000000002          4.4952022659749957E-010
  0.13750000000000001          1.5197013647494373E-009
  0.13860000000000003          2.0261705646618111E-009
  0.13970000000000002          9.7918995134449460E-010
  0.14080000000000001         -1.9446495524988450E-009
  0.14190000000000003         -5.5427662459806015E-009
  0.14300000000000002         -6.9697687621328441E-009
  0.14410000000000003         -3.0467151024282657E-009
  0.14520000000000002          7.0929986328849282E-009
  0.14630000000000001          1.9356539482373591E-008
  0.14740000000000003          2.4370624629455051E-008
  0.14850000000000002          1.1553396461749799E-008
  0.14960000000000001         -2.2540801225545692E-008
  0.15070000000000003         -6.5449718533727719E-008
  0.15180000000000002         -8.6788340070143022E-008
  0.15290000000000001         -5.0027701092858479E-008
  0.15400000000000003          6.1111357751997275E-008
  0.15510000000000002          2.1255445403767226E-007
  0.15620000000000003          3.0850424082018435E-007
  0.15730000000000002          2.2275803246429859E-007
  0.15840000000000001         -1.2051086173414660E-007
  0.15950000000000003         -6.4507690922255279E-007
  0.16060000000000002         -1.0666018397387234E-006
  0.16170000000000001         -9.6096789548028028E-007
  0.16280000000000003          5.0750221802786655E-009
  0.16390000000000002          1.7420454696548404E-006
  0.16500000000000001          3.4874205994128715E-006
  0.16610000000000003          3.8876073631399777E-006
  0.16720000000000002          1.5899140635156073E-006
  0.16830000000000003         -3.7331481053115567E-006
  0.16940000000000002         -1.0378961633250583E-005
  0.17050000000000001         -1.4381692380993627E-005
  0.17160000000000003         -1.0766221748781390E-005
  0.17270000000000002          3.5694531561603071E-006
  0.17380000000000001          2.6263543986715376E-005
  0.17490000000000003          4.7238503611879423E-005
  0.17600000000000002          5.0289112550672144E-005
  0.17710000000000004          2.0041472453158349E-005
  0.17820000000000003         -4.6837834815960377E-005
  0.17930000000000001         -1.3092256267555058E-004
  0.18040000000000003         -1.8732158059719950E-004
  0.18150000000000002         -1.5810021432116628E-004
  0.18260000000000001         -1.6286637674056692E-006
  0.18370000000000003          2.6913027977570891E-004
  0.18480000000000002          5.5815326049923897E-004
  0.18590000000000001          6.9201446603983641E-004
  0.18700000000000003          4.7783716581761837E-004
  0.18810000000000002         -1.8935602565761656E-004
  0.18920000000000003         -1.2046049814671278E-003
  0.19030000000000002         -2.1808049641549587E-003
  0.19140000000000001         -2.4999326560646296E-003
  0.19250000000000003         -1.5323463594540954E-003
  0.19360000000000002          1.0022042552009225E-003
  0.19470000000000001          4.6548289246857166E-003
  0.19580000000000003          8.0524953082203865E-003
  0.19690000000000002          9.1037871316075325E-003
  0.19800000000000001          5.7217758148908615E-003
  0.19910000000000003         -3.0354410409927368E-003
  0.20020000000000002         -1.5782002359628677E-002
  0.20130000000000003         -2.8177667409181595E-002
  0.20240000000000002         -3.3483035862445831E-002
  0.20350000000000001         -2.4644618853926659E-002
  0.20460000000000003          2.3308070376515388E-003
  0.20570000000000002          4.4706538319587708E-002
  0.20680000000000001          9.0676575899124146E-002
  0.20790000000000003         0.12012838572263718
  0.20900000000000002         0.10966959595680237
  0.21010000000000004          4.1653554886579514E-002
  0.21120000000000003         -8.4967993199825287E-002
  0.21230000000000002        -0.24590402841567993
  0.21340000000000003        -0.38957932591438293
  0.21450000000000002        -0.44572824239730835
  0.21560000000000001        -0.34539774060249329
  0.21670000000000003         -4.8942353576421738E-002
  0.21780000000000002         0.42582595348358154
  0.21890000000000001         0.98599624633789062
  0.22000000000000003          1.4666483402252197
  0.22110000000000002          1.6604642868041992
  0.22220000000000004          1.3717466592788696
  0.22330000000000003         0.48337465524673462
  0.22440000000000002        -0.98235017061233521
  0.22550000000000003         -2.8307874202728271
  0.22660000000000002         -4.7072854042053223
  0.22770000000000001         -6.1608891487121582
  0.22880000000000003         -6.7497301101684570
  0.22990000000000002         -6.1632709503173828
  0.23100000000000004         -4.3268890380859375
  0.23210000000000003         -1.4549506902694702
  0.23320000000000002          1.9700070619583130
  0.23430000000000004          5.2940740585327148
  0.23540000000000003          7.8432598114013672
  0.23650000000000002          9.0902624130249023
  0.23760000000000003          8.7892866134643555
  0.23870000000000002          7.0400428771972656
  0.23980000000000001          4.2606506347656250
  0.24090000000000000          1.0779763460159302
  0.24200000000000005         -1.8332097530364990
  0.24310000000000004         -3.9153361320495605
  0.24420000000000003         -4.8508358001708984
  0.24530000000000002         -4.6120920181274414
  0.24640000000000001         -3.4317517280578613
  0.24750000000000005         -1.7110973596572876
  0.24860000000000004          9.8690673708915710E-002
  0.24970000000000003          1.6050933599472046
  0.25080000000000002          2.5450751781463623
  0.25190000000000001          2.8084657192230225
  0.25300000000000000          2.4217000007629395
  0.25410000000000005          1.5116584300994873
  0.25520000000000004         0.26908272504806519
  0.25630000000000003         -1.0778756141662598
  0.25740000000000002         -2.2815687656402588
  0.25850000000000001         -3.0959396362304688
  0.25960000000000005         -3.3115005493164062
  0.26070000000000004         -2.8067049980163574
  0.26180000000000003         -1.6032580137252808
  0.26290000000000002          9.8259277641773224E-002
  0.26400000000000001          1.9280647039413452
  0.26510000000000000          3.4164361953735352
  0.26620000000000005          4.1150465011596680
  0.26730000000000004          3.7386689186096191
  0.26840000000000003          2.2803676128387451
  0.26950000000000002          5.3918413817882538E-002
  0.27060000000000001         -2.3634793758392334
  0.27170000000000005         -4.2825226783752441
  0.27280000000000004         -5.1066942214965820
  0.27390000000000003         -4.5266070365905762
  0.27500000000000002         -2.6372494697570801
  0.27610000000000001          6.7163735628128052E-002
  0.27720000000000000          2.8266360759735107
  0.27830000000000005          4.8394446372985840
  0.27940000000000004          5.5066175460815430
  0.28050000000000003          4.6184225082397461
  0.28160000000000002          2.4216806888580322
  0.28270000000000001        -0.45312342047691345
  0.28380000000000005         -3.1814706325531006
  0.28490000000000004         -4.9907541275024414
  0.28600000000000003         -5.3863716125488281
  0.28710000000000002         -4.2900185585021973
  0.28820000000000001         -2.0509974956512451
  0.28930000000000000         0.66880786418914795
  0.29040000000000005          3.0975654125213623
  0.29150000000000004          4.5794997215270996
  0.29260000000000003          4.7559633255004883
  0.29370000000000002          3.6503660678863525
  0.29480000000000001          1.6380336284637451
  0.29590000000000005        -0.68166643381118774
  0.29700000000000004         -2.6667761802673340
  0.29810000000000003         -3.8122045993804932
  0.29920000000000002         -3.8780109882354736
  0.30030000000000001         -2.9357891082763672
  0.30140000000000006         -1.3262410163879395
  0.30250000000000005         0.45597258210182190
  0.30360000000000004          1.9150480031967163
  0.30470000000000003          2.6982173919677734
  0.30580000000000002          2.6866676807403564
  0.30690000000000001          2.0052766799926758
  0.30800000000000005         0.95249402523040771
  0.30910000000000004        -0.11848445236682892
  0.31020000000000003        -0.91991782188415527
  0.31130000000000002         -1.3082824945449829
  0.31240000000000001         -1.3003950119018555
  0.31350000000000006         -1.0321123600006104
  0.31460000000000005        -0.68375468254089355
  0.31570000000000004        -0.40226155519485474
