  -1.3200000000000002E-002     1.2214862010750949E-007
  -1.2100000000000001E-002     1.0115917348230141E-006
  -1.1000000000000001E-002     7.6482838267111219E-006
  -9.9000000000000025E-003     4.7347544750664383E-005
  -8.8000000000000023E-003     2.3642738233320415E-004
  -7.7000000000000011E-003     9.4614253612235188E-004
  -6.6000000000000017E-003     3.0007415916770697E-003
  -5.5000000000000014E-003     7.3923263698816299E-003
  -4.4000000000000011E-003     1.3583625666797161E-002
  -3.3000000000000008E-003     1.6777168959379196E-002
  -2.2000000000000006E-003     8.3699105307459831E-003
  -1.1000000000000003E-003    -1.5380252152681351E-002
  -1.7347234759768071E-018    -4.1959613561630249E-002
   1.0999999999999985E-003    -4.6698343008756638E-002
   2.1999999999999988E-003    -1.8385555595159531E-002
   3.2999999999999991E-003     2.1842977032065392E-002
   4.3999999999999994E-003     3.9584033191204071E-002
   5.4999999999999997E-003     2.5672214105725288E-002
   6.6000000000000000E-003     2.8353780508041382E-003
   7.7000000000000002E-003    -7.5572798959910870E-003
   8.8000000000000005E-003    -8.8569326326251030E-003
   9.9000000000000008E-003    -1.1668119579553604E-002
   1.1000000000000001E-002    -1.0261080227792263E-002
   1.2100000000000001E-002     5.5949119850993156E-003
   1.3199999999999998E-002     2.4014223366975784E-002
   1.4299999999999998E-002     1.9212206825613976E-002
   1.5399999999999999E-002    -1.0292178951203823E-002
   1.6500000000000001E-002    -3.1617820262908936E-002
   1.7599999999999998E-002    -1.7764139920473099E-002
   1.8700000000000001E-002     1.5382693149149418E-002
   1.9799999999999998E-002     2.8804250061511993E-002
   2.0900000000000002E-002     1.0533418506383896E-002
   2.1999999999999999E-002    -1.2848271057009697E-002
   2.3099999999999996E-002    -1.5574280172586441E-002
   2.4199999999999999E-002    -3.8742281030863523E-003
   2.5299999999999996E-002     1.8659681081771851E-003
   2.6400000000000000E-002    -1.3038782344665378E-004
   2.7499999999999997E-002     3.5598734393715858E-003
   2.8600000000000000E-002     1.2645687907934189E-002
   2.9699999999999997E-002     9.8063386976718903E-003
   3.0800000000000001E-002    -9.4597656279802322E-003
   3.1899999999999998E-002    -2.2812224924564362E-002
   3.3000000000000002E-002    -1.0055778548121452E-002
   3.4099999999999998E-002     1.5643823891878128E-002
   3.5200000000000002E-002     2.2795677185058594E-002
   3.6299999999999999E-002     3.8347451481968164E-003
   3.7400000000000003E-002    -1.5706868842244148E-002
   3.8500000000000000E-002    -1.3383641839027405E-002
   3.9599999999999996E-002     1.7573565710335970E-003
   4.0700000000000000E-002     7.2864266112446785E-003
   4.1799999999999997E-002     8.7043136591091752E-004
   4.2900000000000001E-002    -1.2549754464998841E-003
   4.3999999999999997E-002     5.8931037783622742E-003
   4.5100000000000001E-002     7.5073637999594212E-003
   4.6199999999999998E-002    -4.9591413699090481E-003
   4.7300000000000002E-002    -1.6119677573442459E-002
   4.8399999999999999E-002    -7.8290244564414024E-003
   4.9500000000000002E-002     1.1915119364857674E-002
   5.0600000000000006E-002     1.7705086618661880E-002
   5.1699999999999996E-002     2.1494175307452679E-003
   5.2800000000000000E-002    -1.3878418132662773E-002
   5.3900000000000003E-002    -1.0960986837744713E-002
   5.5000000000000007E-002     3.1601497903466225E-003
   5.6099999999999997E-002     8.0651026219129562E-003
   5.7200000000000001E-002     8.8597089052200317E-004
   5.8300000000000005E-002    -3.1238666269928217E-003
   5.9399999999999994E-002     2.7636101003736258E-003
   6.0499999999999998E-002     6.3262996263802052E-003
   6.1600000000000002E-002    -2.1586157381534576E-003
   6.2700000000000006E-002    -1.1922062374651432E-002
   6.3799999999999996E-002    -6.9119664840400219E-003
   6.4899999999999999E-002     8.6169680580496788E-003
   6.6000000000000003E-002     1.4223503880202770E-002
   6.7100000000000007E-002     2.2530413698405027E-003
   6.8199999999999997E-002    -1.1213741265237331E-002
   6.9300000000000000E-002    -9.4120930880308151E-003
   7.0400000000000004E-002     2.4607526138424873E-003
   7.1500000000000008E-002     7.2666322812438011E-003
   7.2599999999999998E-002     1.3476667227223516E-003
   7.3700000000000002E-002    -2.9566481243818998E-003
   7.4800000000000005E-002     1.1913821799680591E-003
   7.5899999999999995E-002     4.7113243490457535E-003
   7.6999999999999999E-002    -1.1438572546467185E-003
   7.8100000000000003E-002    -8.9155826717615128E-003
   7.9200000000000007E-002    -5.5113970302045345E-003
   8.0299999999999996E-002     6.7435628734529018E-003
   8.1400000000000000E-002     1.1654857546091080E-002
   8.2500000000000004E-002     2.1176720038056374E-003
   8.3600000000000008E-002    -9.4722565263509750E-003
   8.4699999999999998E-002    -8.6734564974904060E-003
   8.5800000000000001E-002     1.5413252403959632E-003
   8.6900000000000005E-002     6.9169215857982635E-003
   8.8000000000000009E-002     2.6422541122883558E-003
   8.9099999999999999E-002    -2.2132575977593660E-003
   9.0200000000000002E-002    -6.5178790828213096E-004
   9.1300000000000006E-002     2.1570071112364531E-003
   9.2399999999999996E-002    -7.2439986979588866E-004
   9.3500000000000000E-002    -5.3811827674508095E-003
   9.4600000000000004E-002    -2.9900923836976290E-003
   9.5700000000000007E-002     5.1833046600222588E-003
   9.6799999999999997E-002     8.0127641558647156E-003
   9.7900000000000001E-002     6.4393656793981791E-004
   9.9000000000000005E-002    -7.7226012945175171E-003
  0.10010000000000001         -6.4330170862376690E-003
  0.10120000000000000          2.0232761744409800E-003
  0.10230000000000000          6.3466527499258518E-003
  0.10340000000000001          2.3788867983967066E-003
  0.10450000000000001         -2.6613064110279083E-003
  0.10560000000000000         -2.1349098533391953E-003
  0.10670000000000000          9.9989504087716341E-004
  0.10780000000000001          6.6502299159765244E-004
  0.10890000000000001         -2.1621112246066332E-003
  0.11000000000000000         -1.6759298741817474E-003
  0.11110000000000000          2.5748780462890863E-003
  0.11220000000000001          4.2867921292781830E-003
  0.11330000000000000          1.3745871547143906E-004
  0.11440000000000002         -4.6204593963921070E-003
  0.11550000000000001         -3.5383014474064112E-003
  0.11660000000000000          1.7535762162879109E-003
  0.11770000000000001          4.1140345856547356E-003
  0.11880000000000000          1.0844507487490773E-003
  0.11989999999999999         -2.3647614289075136E-003
  0.12100000000000001         -1.7203064635396004E-003
  0.12210000000000000          9.5010257791727781E-004
  0.12320000000000002          1.1668282095342875E-003
  0.12430000000000001         -9.0658472618088126E-004
  0.12540000000000001         -1.3473458820953965E-003
  0.12650000000000003          8.8751578005030751E-004
  0.12760000000000002          2.2888022940605879E-003
  0.12870000000000001          4.1658937698230147E-004
  0.12980000000000003         -2.2068712860345840E-003
  0.13090000000000002         -1.8731467425823212E-003
  0.13200000000000001          8.3800929132848978E-004
  0.13310000000000002          2.0984264556318521E-003
  0.13420000000000001          4.5979977585375309E-004
  0.13530000000000003         -1.4177976408973336E-003
  0.13640000000000002         -1.0102434316650033E-003
  0.13750000000000001          6.0485431458801031E-004
  0.13860000000000003          8.9791679056361318E-004
  0.13970000000000002         -2.3272291582543403E-004
  0.14080000000000001         -7.3834275826811790E-004
  0.14190000000000003          1.4240475138649344E-004
  0.14300000000000002          8.5241097258403897E-004
  0.14410000000000003          1.8530341912992299E-004
  0.14520000000000002         -8.0558209447190166E-004
  0.14630000000000001         -5.4953718790784478E-004
  0.14740000000000003          5.7104462757706642E-004
  0.14850000000000002          8.4468885324895382E-004
  0.14960000000000001         -1.6347016207873821E-004
  0.15070000000000003         -1.0143000399693847E-003
  0.15180000000000002         -5.3398433374240994E-004
  0.15290000000000001          5.9455801965668797E-004
  0.15400000000000003          9.3557959189638495E-004
  0.15510000000000002          2.2581187658943236E-004
  0.15620000000000003         -5.5823154980316758E-004
  0.15730000000000002         -6.5802776953205466E-004
  0.15840000000000001         -2.5819323491305113E-004
  0.15950000000000003          1.6975119069684297E-004
  0.16060000000000002          4.9223832320421934E-004
  0.16170000000000001          6.5262138377875090E-004
  0.16280000000000003          3.7718334351666272E-004
  0.16390000000000002         -3.8739340379834175E-004
  0.16500000000000001         -1.0323419701308012E-003
  0.16610000000000003         -7.9957180423662066E-004
  0.16720000000000002          2.5310993078164756E-004
  0.16830000000000003          1.1569536291062832E-003
  0.16940000000000002          1.0278493864461780E-003
  0.17050000000000001         -2.5970975912059657E-005
  0.17160000000000003         -1.0649657342582941E-003
  0.17270000000000002         -1.2259243521839380E-003
  0.17380000000000001         -4.0745947626419365E-004
  0.17490000000000003          7.4469036189839244E-004
  0.17600000000000002          1.3548074057325721E-003
  0.17710000000000004          9.3896308680996299E-004
  0.17820000000000003         -2.2294762311503291E-004
  0.17930000000000001         -1.2452497612684965E-003
  0.18040000000000003         -1.3034620787948370E-003
  0.18150000000000002         -3.1928473617881536E-004
  0.18260000000000001          9.3892001314088702E-004
  0.18370000000000003          1.4597408007830381E-003
  0.18480000000000002          8.0523779615759850E-004
  0.18590000000000001         -5.1809736760333180E-004
  0.18700000000000003         -1.4425446279346943E-003
  0.18810000000000002         -1.2091499520465732E-003
  0.18920000000000003         -2.0571331333485432E-005
  0.19030000000000002          1.1333457659929991E-003
  0.19140000000000001          1.3570426963269711E-003
  0.19250000000000003          5.8597931638360023E-004
  0.19360000000000002         -5.0903746159747243E-004
  0.19470000000000001         -1.1877727229148149E-003
  0.19580000000000003         -1.0957666672766209E-003
  0.19690000000000002         -2.7430529007688165E-004
  0.19800000000000001          8.7060331134125590E-004
  0.19910000000000003          1.5531266108155251E-003
  0.20020000000000002          1.0372224496677518E-003
  0.20130000000000003         -5.0414586439728737E-004
  0.20240000000000002         -1.7747456440702081E-003
  0.20350000000000001         -1.5140401665121317E-003
  0.20460000000000003          7.5685646152123809E-005
  0.20570000000000002          1.4675498241558671E-003
  0.20680000000000001          1.4872045721858740E-003
  0.20790000000000003          4.3937249574810266E-004
  0.20900000000000002         -6.1357632512226701E-004
  0.21010000000000004         -1.1343952501192689E-003
  0.21120000000000003         -1.1554750381037593E-003
  0.21230000000000002         -5.3722650045529008E-004
  0.21340000000000003          8.2890869816765189E-004
  0.21450000000000002          2.0524812862277031E-003
  0.21560000000000001          1.5982360346242785E-003
  0.21670000000000003         -6.9193053059279919E-004
  0.21780000000000002         -2.6784588117152452E-003
  0.21890000000000001         -2.0937074441462755E-003
  0.22000000000000003          5.8374227955937386E-004
  0.22110000000000002          2.5056924205273390E-003
  0.22220000000000004          1.8518384313210845E-003
  0.22330000000000003         -2.1114807168487459E-004
  0.22440000000000002         -1.4412001473829150E-003
  0.22550000000000003         -1.2936638668179512E-003
  0.22660000000000002         -7.3810562025755644E-004
  0.22770000000000001         -1.3636563380714506E-004
  0.22880000000000003          9.9934998434036970E-004
  0.22990000000000002          2.1391280461102724E-003
  0.23100000000000004          1.5166269149631262E-003
  0.23210000000000003         -1.1796805774793029E-003
  0.23320000000000002         -3.2741329632699490E-003
  0.23430000000000004         -2.0023421384394169E-003
  0.23540000000000003          1.5665191458538175E-003
  0.23650000000000002          3.3957485575228930E-003
  0.23760000000000003          1.5279746148735285E-003
  0.23870000000000002         -1.5144252683967352E-003
  0.23980000000000001         -2.2811256349086761E-003
  0.24090000000000000         -7.5854954775422812E-004
  0.24200000000000005          4.7480690409429371E-004
  0.24310000000000004          3.9876194205135107E-004
  0.24420000000000003          4.6671662130393088E-004
  0.24530000000000002          1.3282372383400798E-003
  0.24640000000000001          1.2172103160992265E-003
  0.24750000000000005         -9.7401672974228859E-004
  0.24860000000000004         -2.9355564620345831E-003
  0.24970000000000003         -1.6453063581138849E-003
  0.25080000000000002          1.9096288597211242E-003
  0.25190000000000001          3.3858306705951691E-003
  0.25300000000000000          8.8965770555660129E-004
  0.25410000000000005         -2.3160376586019993E-003
  0.25520000000000004         -2.3202719166874886E-003
  0.25630000000000003          1.7880194354802370E-004
  0.25740000000000002          1.4198510907590389E-003
  0.25850000000000001          2.7617209707386792E-004
  0.25960000000000005         -5.7963619474321604E-004
  0.26070000000000004          5.4607650963589549E-004
  0.26180000000000003          1.4817294431850314E-003
  0.26290000000000002         -1.2531885295175016E-004
  0.26400000000000001         -2.4758731015026569E-003
  0.26510000000000000         -1.8806430744007230E-003
  0.26620000000000005          1.4635021798312664E-003
  0.26730000000000004          3.1928424723446369E-003
  0.26840000000000003          9.1633695410564542E-004
  0.26950000000000002         -2.2578388452529907E-003
  0.27060000000000001         -2.1879442501813173E-003
  0.27170000000000005          4.5377502101473510E-004
  0.27280000000000004          1.6028624959290028E-003
  0.27390000000000003          6.0628903156612068E-005
  0.27500000000000002         -1.0610540630295873E-003
  0.27610000000000001          3.2511903555132449E-004
  0.27720000000000000          1.7830935539677739E-003
  0.27830000000000005          3.2369012478739023E-004
  0.27940000000000004         -2.4174791760742664E-003
  0.28050000000000003         -2.2194203920662403E-003
  0.28160000000000002          1.2252572923898697E-003
  0.28270000000000001          3.3625953365117311E-003
  0.28380000000000005          1.2128669768571854E-003
  0.28490000000000004         -2.2810427471995354E-003
  0.28600000000000003         -2.5081825442612171E-003
  0.28710000000000002          2.9935388010926545E-004
  0.28820000000000001          1.8766280263662338E-003
  0.28930000000000000          4.4721775338985026E-004
  0.29040000000000005         -1.0636132210493088E-003
  0.29150000000000004         -1.1255891149630770E-004
  0.29260000000000003          1.3868992682546377E-003
  0.29370000000000002          3.9525132160633802E-004
  0.29480000000000001         -1.9796334672719240E-003
  0.29590000000000005         -1.8718690844252706E-003
  0.29700000000000004          1.2013239320367575E-003
  0.29810000000000003          3.0805710703134537E-003
  0.29920000000000002          9.3056063633412123E-004
  0.30030000000000001         -2.4309973232448101E-003
  0.30140000000000006         -2.4824209976941347E-003
  0.30250000000000005          5.5865297326818109E-004
  0.30360000000000004          2.3015781771391630E-003
  0.30470000000000003          6.8359443685039878E-004
  0.30580000000000002         -1.3862062478438020E-003
  0.30690000000000001         -8.3838833961635828E-004
  0.30800000000000005          9.8375172819942236E-004
  0.30910000000000004          8.5525418398901820E-004
  0.31020000000000003         -1.0324043687433004E-003
  0.31130000000000002         -1.4228298095986247E-003
  0.31240000000000001          6.7016197135671973E-004
  0.31350000000000006          2.1630111150443554E-003
  0.31460000000000005          5.9089821297675371E-004
  0.31570000000000004         -1.9547049887478352E-003
