  -1.3200000000000002E-002     0.0000000000000000
  -1.2100000000000001E-002     0.0000000000000000
  -1.1000000000000001E-002     0.0000000000000000
  -9.9000000000000025E-003     0.0000000000000000
  -8.8000000000000023E-003     0.0000000000000000
  -7.7000000000000011E-003     0.0000000000000000
  -6.6000000000000017E-003     0.0000000000000000
  -5.5000000000000014E-003     0.0000000000000000
  -4.4000000000000011E-003     0.0000000000000000
  -3.3000000000000008E-003     0.0000000000000000
  -2.2000000000000006E-003     0.0000000000000000
  -1.1000000000000003E-003     0.0000000000000000
  -1.7347234759768071E-018     0.0000000000000000
   1.0999999999999985E-003     0.0000000000000000
   2.1999999999999988E-003     0.0000000000000000
   3.2999999999999991E-003    -6.3318604729542351E-034
   4.3999999999999994E-003     1.9671967755988062E-033
   5.4999999999999997E-003    -1.7773610500967301E-033
   6.6000000000000000E-003    -3.1513061041130794E-032
   7.7000000000000002E-003    -3.3562844009056543E-032
   8.8000000000000005E-003     2.4341403508353017E-031
   9.9000000000000008E-003     9.8432295223167436E-031
   1.1000000000000001E-002     2.8126920846955780E-031
   1.2100000000000001E-002    -8.4224956407038730E-030
   1.3199999999999998E-002    -2.1884612791970590E-029
   1.4299999999999998E-002     1.9693536461020918E-029
   1.5399999999999999E-002     1.9511557747988199E-028
   1.6500000000000001E-002     2.2527316077418270E-028
   1.7599999999999998E-002    -7.7159460623183997E-028
   1.8700000000000001E-002    -2.3885354281341333E-027
   1.9799999999999998E-002     3.5314744610296066E-028
   2.0900000000000002E-002     1.0782720157452350E-026
   2.1999999999999999E-002     1.0326140715908446E-026
   2.3099999999999996E-002    -2.8827683023161647E-026
   2.4199999999999999E-002    -5.0329957458122312E-026
   2.5299999999999996E-002     8.3002502311012505E-026
   2.6400000000000000E-002     1.9260619553293439E-025
   2.7499999999999997E-002    -4.0567218889606780E-025
   2.8600000000000000E-002    -1.2903346550741251E-024
   2.9699999999999997E-002     9.8115472416143032E-025
   3.0800000000000001E-002     7.6088024557109408E-024
   3.1899999999999998E-002     5.3938526110972253E-024
   3.3000000000000002E-002    -2.4162647021573116E-023
   3.4099999999999998E-002    -5.2695491950205632E-023
   3.5200000000000002E-002     1.3252132722514764E-023
   3.6299999999999999E-002     1.8330277440657932E-022
   3.7400000000000003E-002     1.9297152066662393E-022
   3.8500000000000000E-002    -2.4516660974565529E-022
   3.9599999999999996E-002    -7.3183577859149324E-022
   4.0700000000000000E-002    -2.6770478232637755E-022
   4.1799999999999997E-002     1.0041727269097796E-021
   4.2900000000000001E-002     1.0001950504119401E-021
   4.3999999999999997E-002    -6.5617611654997151E-022
   4.5100000000000001E-002     6.9386039326738824E-022
   4.6199999999999998E-002     6.4196231221243876E-021
   4.7300000000000002E-002     1.4133744926854658E-021
   4.8399999999999999E-002    -2.9270299731897462E-020
   4.9500000000000002E-002    -4.9660376148337753E-020
   5.0600000000000006E-002     2.2479728514205306E-020
   5.1699999999999996E-002     1.7506047233523658E-019
   5.2800000000000000E-002     1.8329068678559193E-019
   5.3900000000000003E-002    -1.6471943513331369E-019
   5.5000000000000007E-002    -5.9675234062745963E-019
   5.6099999999999997E-002    -4.1830221138895145E-019
   5.7200000000000001E-002     5.0207614284678401E-019
   5.8300000000000005E-002     1.1064643945038738E-018
   5.9399999999999994E-002     5.0195278953793704E-019
   6.0499999999999998E-002    -1.8700307337472991E-019
   6.1600000000000002E-002     5.4467630628478293E-019
   6.2700000000000006E-002     2.8126270816880265E-019
   6.3799999999999996E-002    -5.5193704954758964E-018
   6.4899999999999999E-002    -1.2267893330897415E-017
   6.6000000000000003E-002    -2.6348076518171959E-018
   6.7100000000000007E-002     2.9574654970473878E-017
   6.8199999999999997E-002     4.9699211502615294E-017
   6.9300000000000000E-002     5.8226070498220171E-018
   7.0400000000000004E-002    -8.8582652684295526E-017
   7.1500000000000008E-002    -1.2278074766185085E-016
   7.2599999999999998E-002    -8.6596562255053655E-018
   7.3700000000000002E-002     1.6197011663000014E-016
   7.4800000000000005E-002     1.8373433704212377E-016
   7.5899999999999995E-002     2.5496763738428309E-017
   7.6999999999999999E-002    -8.5559247988410106E-017
   7.8100000000000003E-002    -4.2630599135047500E-017
   7.9200000000000007E-002    -1.5015345115043102E-016
   8.0299999999999996E-002    -5.8969512639514251E-016
   8.1400000000000000E-002    -6.2723340315596655E-016
   8.2500000000000004E-002     7.3599619229212216E-016
   8.3600000000000008E-002     2.6353181281342595E-015
   8.4699999999999998E-002     1.9614218916722903E-015
   8.5800000000000001E-002    -2.7315275184151919E-015
   8.6900000000000005E-002    -6.9433027103976870E-015
   8.8000000000000009E-002    -3.3841685218569985E-015
   8.9099999999999999E-002     7.6523582257089981E-015
   9.0200000000000002E-002     1.4023878968359195E-014
   9.1300000000000006E-002     4.2938963067682204E-015
   9.2399999999999996E-002    -1.4857959087784083E-014
   9.3500000000000000E-002    -2.2102076232036715E-014
   9.4600000000000004E-002    -7.7005069665627215E-015
   9.5700000000000007E-002     1.2226013421329316E-014
   9.6799999999999997E-002     1.9427391824162338E-014
   9.7900000000000001E-002     2.2381182058486479E-014
   9.9000000000000005E-002     3.6209689489429681E-014
  0.10010000000000001          3.2217145482437912E-014
  0.10120000000000000         -4.6358787441453872E-014
  0.10230000000000000         -1.7643207045076742E-013
  0.10340000000000001         -1.9957504344882832E-013
  0.10450000000000001          2.5408601478783648E-014
  0.10560000000000000          3.7897568655291536E-013
  0.10670000000000000          4.9410719656431401E-013
  0.10780000000000001          1.4279892643787734E-013
  0.10890000000000001         -4.2133931434963634E-013
  0.11000000000000000         -6.7368078346743965E-013
  0.11110000000000000         -4.2313198843173250E-013
  0.11220000000000001         -2.1791504825662347E-014
  0.11330000000000000          1.7768433751251533E-013
  0.11440000000000002          3.6483156448142984E-013
  0.11550000000000001          8.8422731593304493E-013
  0.11660000000000000          1.3336034750469072E-012
  0.11770000000000001          6.6231720628751045E-013
  0.11880000000000000         -1.3325107076772591E-012
  0.11989999999999999         -3.0161231585196235E-012
  0.12100000000000001         -2.3456442951180767E-012
  0.12210000000000000          5.2924803211826243E-013
  0.12320000000000002          2.9514318506534964E-012
  0.12430000000000001          2.7790755807721723E-012
  0.12540000000000001          9.9047517149869480E-013
  0.12650000000000003          8.4828885994585324E-014
  0.12760000000000002          1.2193394351937142E-013
  0.12870000000000001         -1.6059531092113555E-012
  0.12980000000000003         -5.7216302008777919E-012
  0.13090000000000002         -7.4257345064610014E-012
  0.13200000000000001         -1.0950119934058367E-012
  0.13310000000000002          1.1378006176121502E-011
  0.13420000000000001          1.9351749369622695E-011
  0.13530000000000003          1.3227135532700718E-011
  0.13640000000000002         -5.4516499821410935E-012
  0.13750000000000001         -2.5172789200333945E-011
  0.13860000000000003         -3.4964912909440926E-011
  0.13970000000000002         -3.0354427305034903E-011
  0.14080000000000001         -1.0174464569467911E-011
  0.14190000000000003          2.5026853853193920E-011
  0.14300000000000002          6.7225724986741398E-011
  0.14410000000000003          9.3931924738388517E-011
  0.14520000000000002          7.7295392308940336E-011
  0.14630000000000001          6.7896651842480615E-012
  0.14740000000000003         -9.4800903238656531E-011
  0.14850000000000002         -1.8124456102608377E-010
  0.14960000000000001         -2.0376826614931787E-010
  0.15070000000000003         -1.3697699918768791E-010
  0.15180000000000002          1.4308614189328939E-011
  0.15290000000000001          2.0755980267850305E-010
  0.15400000000000003          3.6165495598261543E-010
  0.15510000000000002          3.8301367633053474E-010
  0.15620000000000003          2.2066197480352656E-010
  0.15730000000000002         -8.4214600570842180E-011
  0.15840000000000001         -4.1146458462648638E-010
  0.15950000000000003         -6.0124188960841707E-010
  0.16060000000000002         -5.2817195062004885E-010
  0.16170000000000001         -1.6694305660092112E-010
  0.16280000000000003          3.6560637850513444E-010
  0.16390000000000002          8.2209417051615219E-010
  0.16500000000000001          9.0206714320473225E-010
  0.16610000000000003          4.1787839855089715E-010
  0.16720000000000002         -5.0667325890429993E-010
  0.16830000000000003         -1.4671271975075229E-009
  0.16940000000000002         -1.9636428039149223E-009
  0.17050000000000001         -1.5208059256366369E-009
  0.17160000000000003          1.5240510242708893E-011
  0.17270000000000002          2.3117134873018585E-009
  0.17380000000000001          4.4551051736618774E-009
  0.17490000000000003          5.2687050278166225E-009
  0.17600000000000002          3.8638470201135533E-009
  0.17710000000000004          1.4452627983274624E-010
  0.17820000000000003         -4.9321471351504442E-009
  0.17930000000000001         -9.6881338507159853E-009
  0.18040000000000003         -1.1840183056222031E-008
  0.18150000000000002         -9.6813899119752023E-009
  0.18260000000000001         -3.2245528469587725E-009
  0.18370000000000003          5.7315849844030708E-009
  0.18480000000000002          1.4576754026052186E-008
  0.18590000000000001          1.9020186314833154E-008
  0.18700000000000003          1.6304896988117434E-008
  0.18810000000000002          5.4617621536579009E-009
  0.18920000000000003         -9.1101064469967241E-009
  0.19030000000000002         -2.1047574350063769E-008
  0.19140000000000001         -2.5138533032986743E-008
  0.19250000000000003         -1.6468634456145992E-008
  0.19360000000000002          2.8175082267267726E-009
  0.19470000000000001          2.5244768053767075E-008
  0.19580000000000003          4.4006739585711330E-008
  0.19690000000000002          4.6466141156997764E-008
  0.19800000000000001          2.4036552304096404E-008
  0.19910000000000003         -1.5392295438232395E-008
  0.20020000000000002         -5.9114174888463822E-008
  0.20130000000000003         -9.4175447884481400E-008
  0.20240000000000002         -1.0119688198528820E-007
  0.20350000000000001         -6.0292393300187541E-008
  0.20460000000000003          1.8648160349243881E-008
  0.20570000000000002          1.0877830902700225E-007
  0.20680000000000001          1.6684612091921736E-007
  0.20790000000000003          1.7033056565196603E-007
  0.20900000000000002          1.1290629231552884E-007
  0.21010000000000004         -2.8411044628029458E-009
  0.21120000000000003         -1.4772426482068113E-007
  0.21230000000000002         -2.6229110972053604E-007
  0.21340000000000003         -2.9121460443093383E-007
  0.21450000000000002         -2.0362770669635211E-007
  0.21560000000000001         -1.6464209551259046E-008
  0.21670000000000003          2.1733646349275659E-007
  0.21780000000000002          4.1401332850909967E-007
  0.21890000000000001          4.7896691057758289E-007
  0.22000000000000003          3.5223700933784130E-007
  0.22110000000000002          4.6671939202269641E-008
  0.22220000000000004         -3.3117444786512351E-007
  0.22330000000000003         -6.3703544128657086E-007
  0.22440000000000002         -7.3262941668872372E-007
  0.22550000000000003         -5.5897612583066802E-007
  0.22660000000000002         -1.4546805005011265E-007
  0.22770000000000001          3.9409164287462772E-007
  0.22880000000000003          8.9404284153715707E-007
  0.22990000000000002          1.1538727449078579E-006
  0.23100000000000004          1.0062128694698913E-006
  0.23210000000000003          4.1162152797369345E-007
  0.23320000000000002         -4.7793048452149378E-007
  0.23430000000000004         -1.3385341617322410E-006
  0.23540000000000003         -1.8009820905717788E-006
  0.23650000000000002         -1.6137977354446775E-006
  0.23760000000000003         -7.6997633868813864E-007
  0.23870000000000002          4.7646551593061304E-007
  0.23980000000000001          1.7062578763216152E-006
  0.24090000000000000          2.4835974272718886E-006
  0.24200000000000005          2.4873479560483247E-006
  0.24310000000000004          1.6056927734098281E-006
  0.24420000000000003         -7.5880981498244182E-009
  0.24530000000000002         -1.9137062281515682E-006
  0.24640000000000001         -3.4561342090455582E-006
  0.24750000000000005         -3.9434089558199048E-006
  0.24860000000000004         -2.9653817819053074E-006
  0.24970000000000003         -6.7320956986804958E-007
  0.25080000000000002          2.1726257273257943E-006
  0.25190000000000001          4.4924922804057132E-006
  0.25300000000000000          5.3611320254276507E-006
  0.25410000000000005          4.3993627514282707E-006
  0.25520000000000004          1.8676316813071026E-006
  0.25630000000000003         -1.5050327419885434E-006
  0.25740000000000002         -4.7546618588967249E-006
  0.25850000000000001         -6.8536937760654837E-006
  0.25960000000000005         -6.9038537731103133E-006
  0.26070000000000004         -4.4591261030291207E-006
  0.26180000000000003          5.8732318564125308E-008
  0.26290000000000002          5.2143946049909573E-006
  0.26400000000000001          8.9886689238483086E-006
  0.26510000000000000          9.6911380751407705E-006
  0.26620000000000005          6.8431586441874970E-006
  0.26730000000000004          1.4438561493079760E-006
  0.26840000000000003         -4.5638375922862906E-006
  0.26950000000000002         -9.2053796834079549E-006
  0.27060000000000001         -1.1157318112964276E-005
  0.27170000000000005         -9.9028156910208054E-006
  0.27280000000000004         -5.5837404033809435E-006
  0.27390000000000003          1.0128650274054962E-006
  0.27500000000000002          8.2469314293120988E-006
  0.27610000000000001          1.3651308108819649E-005
  0.27720000000000000          1.4711225958308205E-005
  0.27830000000000005          1.0292239494447131E-005
  0.27940000000000004          1.7053683905032813E-006
  0.28050000000000003         -7.6495052780956030E-006
  0.28160000000000002         -1.4069630196900107E-005
  0.28270000000000001         -1.5525698472629301E-005
  0.28380000000000005         -1.2329888704698533E-005
  0.28490000000000004         -6.1753707996103913E-006
  0.28600000000000003          1.2739560588670429E-006
  0.28710000000000002          8.8312181105720811E-006
  0.28820000000000001          1.5084646292962134E-005
  0.28930000000000000          1.7808089978643693E-005
  0.29040000000000005          1.4776857824472245E-005
  0.29150000000000004          5.7295333135698456E-006
  0.29260000000000003         -6.3425659391214140E-006
  0.29370000000000002         -1.6242842320934869E-005
  0.29480000000000001         -1.9636170691228472E-005
  0.29590000000000005         -1.5809688193257898E-005
  0.29700000000000004         -7.7740405686199665E-006
  0.29810000000000003          4.1564598518561979E-007
  0.29920000000000002          6.6679904193733819E-006
  0.30030000000000001          1.1416028428357095E-005
  0.30140000000000006          1.5374538634205237E-005
  0.30250000000000005          1.7144706362159923E-005
  0.30360000000000004          1.3669576219399460E-005
  0.30470000000000003          3.6071207887289347E-006
  0.30580000000000002         -9.7652127806213684E-006
  0.30690000000000001         -1.9675622752401978E-005
  0.30800000000000005         -2.0781377315870486E-005
  0.30910000000000004         -1.3539815881813411E-005
  0.31020000000000003         -3.6930346141161863E-006
  0.31130000000000002          2.9125333185220370E-006
  0.31240000000000001          5.2689611038658768E-006
  0.31350000000000006          7.0687215156794991E-006
  0.31460000000000005          1.1669219020404853E-005
  0.31570000000000004          1.7369233319186606E-005
