 -0.12000000000000000          0.0000000000000000
 -0.11889999999999999          0.0000000000000000
 -0.11780000000000000          0.0000000000000000
 -0.11670000000000000          1.2546763107634806E-011
 -0.11559999999999999          1.3697711367943732E-011
 -0.11449999999999999         -3.8519888667654101E-011
 -0.11340000000000000         -6.0437016502490337E-011
 -0.11230000000000000          8.1728214473830718E-011
 -0.11119999999999999          2.1664814386923581E-010
 -0.11009999999999999         -3.4040596730289252E-011
 -0.10900000000000000         -4.8208065317467685E-010
 -0.10790000000000000         -2.7206731312290344E-010
 -0.10679999999999999          7.1667344281323153E-010
 -0.10569999999999999          1.0246072879027679E-009
 -0.10460000000000000         -4.2161374391724848E-010
 -0.10349999999999999         -1.8818482327986885E-009
 -0.10239999999999999         -6.0493343667644695E-010
 -0.10130000000000000          2.4258650643815827E-009
 -0.10020000000000000          2.5024655680994101E-009
  -9.9099999999999994E-002    -1.8537364976367599E-009
  -9.7999999999999990E-002    -4.8300967669945294E-009
  -9.6899999999999986E-002    -6.5601379883872823E-010
  -9.5799999999999996E-002     6.4044045622324575E-009
  -9.4699999999999993E-002     5.8165889882388910E-009
  -9.3599999999999989E-002    -3.7803649099998893E-009
  -9.2499999999999999E-002    -9.8755350563806132E-009
  -9.1399999999999995E-002    -2.5646724743921823E-009
  -9.0299999999999991E-002     9.5435108704577942E-009
  -8.9200000000000002E-002     9.3253875732557390E-009
  -8.8099999999999984E-002    -4.2171026670700940E-009
  -8.6999999999999994E-002    -1.2694454376571684E-008
  -8.5899999999999990E-002    -3.9121625938776106E-009
  -8.4799999999999986E-002     9.9854435831048249E-009
  -8.3699999999999997E-002     9.7388079822735563E-009
  -8.2599999999999993E-002    -2.9504445553385494E-009
  -8.1499999999999989E-002    -8.7991400832265754E-009
  -8.0399999999999999E-002    -8.1161882770075522E-010
  -7.9299999999999995E-002     5.8463021090915390E-009
  -7.8199999999999992E-002    -3.1166291769579857E-010
  -7.7100000000000002E-002    -7.3378534359846981E-009
  -7.5999999999999984E-002     2.6067440307003809E-012
  -7.4899999999999994E-002     1.1607259153834093E-008
  -7.3799999999999991E-002     4.7749653120376934E-009
  -7.2699999999999987E-002    -1.6708000316612015E-008
  -7.1599999999999997E-002    -2.0921376631122257E-008
  -7.0499999999999993E-002     5.0175761323600909E-009
  -6.9399999999999989E-002     2.8317584721548883E-008
  -6.8300000000000000E-002     1.2552283656930285E-008
  -6.7199999999999996E-002    -2.6888463011687236E-008
  -6.6099999999999992E-002    -3.8679257130525002E-008
  -6.5000000000000002E-002    -6.8551542220518513E-009
  -6.3899999999999985E-002     2.4598611148007876E-008
  -6.2799999999999995E-002     1.2654564507386112E-008
  -6.1699999999999991E-002    -2.5248594326399143E-008
  -6.0599999999999994E-002    -3.9291585096634662E-008
  -5.9499999999999990E-002    -1.9410153484500370E-008
  -5.8399999999999994E-002    -3.7977163636071509E-009
  -5.7299999999999990E-002    -1.5915663453824891E-008
  -5.6199999999999986E-002    -3.1356048424413530E-008
  -5.5099999999999996E-002    -2.4918396235307227E-008
  -5.3999999999999992E-002    -1.7667669993670643E-008
  -5.2899999999999989E-002    -4.2300264624373085E-008
  -5.1799999999999985E-002    -8.0383536271710909E-008
  -5.0699999999999995E-002    -7.9860299706524529E-008
  -4.9599999999999991E-002    -3.7813578046552720E-008
  -4.8499999999999988E-002    -1.9334718714958399E-008
  -4.7399999999999998E-002    -6.9043757378040027E-008
  -4.6299999999999994E-002    -1.3947962429483596E-007
  -4.5199999999999990E-002    -1.5016995291716739E-007
  -4.4099999999999986E-002    -1.0024763241744949E-007
  -4.2999999999999997E-002    -7.1607423990371899E-008
  -4.1899999999999993E-002    -1.1483549400281845E-007
  -4.0799999999999989E-002    -1.8238506527268328E-007
  -3.9699999999999985E-002    -2.0372689846226422E-007
  -3.8599999999999995E-002    -1.8455594386068697E-007
  -3.7499999999999992E-002    -1.8541034307872906E-007
  -3.6399999999999988E-002    -2.2232156027257588E-007
  -3.5299999999999984E-002    -2.4812757715153566E-007
  -3.4199999999999994E-002    -2.3917490921121498E-007
  -3.3099999999999991E-002    -2.4114100938277261E-007
  -3.1999999999999987E-002    -2.9350266572691908E-007
  -3.0899999999999997E-002    -3.5240782381151803E-007
  -2.9799999999999993E-002    -3.4678424754019943E-007
  -2.8699999999999989E-002    -2.9020611691521481E-007
  -2.7599999999999986E-002    -2.7517043577063305E-007
  -2.6499999999999996E-002    -3.4213570643260027E-007
  -2.5399999999999992E-002    -4.1482653045932238E-007
  -2.4299999999999988E-002    -4.0529283751311596E-007
  -2.3199999999999985E-002    -3.3612784022807318E-007
  -2.2099999999999995E-002    -3.0349946200658451E-007
  -2.0999999999999991E-002    -3.3654134767857613E-007
  -1.9899999999999987E-002    -3.6625277743951301E-007
  -1.8799999999999983E-002    -3.3378424291186093E-007
  -1.7699999999999994E-002    -2.7622689913187060E-007
  -1.6599999999999990E-002    -2.5727987917889550E-007
  -1.5499999999999986E-002    -2.6014041054622794E-007
  -1.4399999999999996E-002    -2.1584932596852013E-007
  -1.3299999999999992E-002    -1.2202750099277182E-007
  -1.2199999999999989E-002    -5.4935224369501157E-008
  -1.1099999999999985E-002    -5.3011195433327885E-008
  -9.9999999999999950E-003    -4.7279502979336030E-008
  -8.8999999999999913E-003     4.1310045162390452E-008
  -7.7999999999999875E-003     1.8241615862280014E-007
  -6.6999999999999837E-003     2.7584940198721597E-007
  -5.5999999999999939E-003     2.9358764663811598E-007
  -4.4999999999999901E-003     3.1809736356080975E-007
  -3.3999999999999864E-003     4.1583993493077287E-007
  -2.2999999999999826E-003     5.4527168913409696E-007
  -1.1999999999999927E-003     6.2543568901674007E-007
  -9.9999999999988987E-005     6.5800662696346990E-007
   1.0000000000000148E-003     7.1207290375241428E-007
   2.1000000000000185E-003     8.1363828030589502E-007
   3.2000000000000084E-003     9.0034512822967372E-007
   4.3000000000000121E-003     9.2306748911141767E-007
   5.4000000000000159E-003     9.2535867679544026E-007
   6.5000000000000058E-003     9.7803024345921585E-007
   7.6000000000000234E-003     1.0620921102599823E-006
   8.7000000000000133E-003     1.0920541626546765E-006
   9.8000000000000032E-003     1.0443794735692791E-006
   1.0900000000000021E-002     9.9725889413093682E-007
   1.2000000000000011E-002     1.0080792662847671E-006
   1.3100000000000001E-002     1.0353161314924364E-006
   1.4200000000000018E-002     9.9739941106236074E-007
   1.5300000000000008E-002     8.9683652504390921E-007
   1.6400000000000026E-002     8.0923109635477886E-007
   1.7500000000000016E-002     7.6859447517563240E-007
   1.8600000000000005E-002     7.2116409910449875E-007
   1.9700000000000023E-002     6.1453198441085988E-007
   2.0800000000000013E-002     4.7753519538673572E-007
   2.1900000000000003E-002     3.7248005924084282E-007
   2.3000000000000020E-002     3.0004059681232320E-007
   2.4100000000000010E-002     2.0430097436019423E-007
   2.5200000000000000E-002     6.3906675507041655E-008
   2.6300000000000018E-002    -7.1673689205908886E-008
   2.7400000000000008E-002    -1.6057008167535969E-007
   2.8500000000000025E-002    -2.3669123550007498E-007
   2.9600000000000015E-002    -3.4515869629103690E-007
   3.0700000000000005E-002    -4.7560865823470522E-007
   3.1800000000000023E-002    -5.7286922583443811E-007
   3.2900000000000013E-002    -6.2332878769666422E-007
   3.4000000000000002E-002    -6.6570129320098204E-007
   3.5100000000000020E-002    -7.3873047767847311E-007
   3.6200000000000010E-002    -8.1762340187196969E-007
   3.7300000000000028E-002    -8.5404786887011142E-007
   3.8400000000000017E-002    -8.4756106843997259E-007
   3.9500000000000007E-002    -8.4483946238833596E-007
   4.0600000000000025E-002    -8.6749230376881314E-007
   4.1700000000000015E-002    -8.7741670995455934E-007
   4.2800000000000005E-002    -8.4675332345796051E-007
   4.3900000000000022E-002    -8.0028161164591438E-007
   4.5000000000000012E-002    -7.6532342063728720E-007
   4.6100000000000002E-002    -7.3247935006293119E-007
   4.7200000000000020E-002    -6.8045096668356564E-007
   4.8300000000000010E-002    -6.0935838064324344E-007
   4.9400000000000027E-002    -5.3579645964418887E-007
   5.0500000000000017E-002    -4.7691054305687430E-007
   5.1600000000000007E-002    -4.2310202275075426E-007
   5.2700000000000025E-002    -3.5566407063924999E-007
   5.3800000000000014E-002    -2.8029640475324413E-007
   5.4900000000000004E-002    -2.1164707675325189E-007
   5.6000000000000022E-002    -1.4739049447598518E-007
   5.7100000000000012E-002    -8.1571378984790499E-008
   5.8200000000000002E-002    -1.9184701827157369E-008
   5.9300000000000019E-002     2.5600801478731228E-008
   6.0400000000000009E-002     5.5418119870864757E-008
   6.1500000000000027E-002     9.4059416255731776E-008
   6.2600000000000017E-002     1.4657220503977442E-007
   6.3700000000000007E-002     1.9076847479482240E-007
   6.4800000000000024E-002     2.1096062141623406E-007
   6.5900000000000014E-002     2.1785434967114270E-007
   6.7000000000000004E-002     2.2959979162351374E-007
   6.8100000000000022E-002     2.4194156367229880E-007
   6.9200000000000012E-002     2.4161627720786782E-007
   7.0300000000000029E-002     2.3601413090545975E-007
   7.1400000000000019E-002     2.4278034516100888E-007
   7.2500000000000009E-002     2.5380956003573374E-007
   7.3600000000000027E-002     2.3853749553381931E-007
   7.4700000000000016E-002     1.9340507151355268E-007
   7.5800000000000006E-002     1.5997387947663810E-007
   7.6900000000000024E-002     1.6993401175113831E-007
   7.8000000000000014E-002     1.9305021226045938E-007
   7.9100000000000004E-002     1.7535279539515614E-007
   8.0200000000000021E-002     1.1600571525605119E-007
   8.1300000000000011E-002     7.1753738950519619E-008
   8.2400000000000029E-002     7.3734781835810281E-008
   8.3500000000000019E-002     8.5732182242281851E-008
   8.4600000000000009E-002     6.3954502138585667E-008
   8.5700000000000026E-002     2.6143489151309041E-008
   8.6800000000000016E-002     2.0823632596034258E-008
   8.7900000000000006E-002     4.0855258731653521E-008
   8.9000000000000024E-002     2.9377051902201856E-008
   9.0100000000000013E-002    -2.6121902862996649E-008
   9.1200000000000003E-002    -6.1086929292741843E-008
   9.2300000000000021E-002    -3.0124830630029464E-008
   9.3400000000000011E-002     1.9377074167437058E-008
   9.4500000000000028E-002     9.3173939674784378E-009
   9.5600000000000018E-002    -5.3284793466445990E-008
   9.6700000000000008E-002    -8.3388300708975294E-008
   9.7800000000000026E-002    -4.2868791183536814E-008
   9.8900000000000016E-002     1.0345220236018804E-009
  0.10000000000000001         -1.7595807477732706E-008
  0.10110000000000002         -6.3690940521610173E-008
  0.10220000000000001         -5.8367017885530004E-008
  0.10330000000000003         -8.4424920387959901E-009
  0.10440000000000002          3.3719063097237267E-009
  0.10550000000000001         -4.8952404796409610E-008
  0.10660000000000003         -8.3785479887410474E-008
  0.10770000000000002         -3.5435331113831126E-008
  0.10880000000000001          3.7102392269616757E-008
  0.10990000000000003          3.0255158378622582E-008
  0.11100000000000002         -4.7218893683975693E-008
  0.11210000000000001         -8.1849272248746274E-008
  0.11320000000000002         -2.4159868772244408E-008
  0.11430000000000001          3.9660495332327628E-008
  0.11540000000000003          1.9423374908456026E-008
  0.11650000000000002         -4.4863568859909719E-008
  0.11760000000000001         -4.8415614628538606E-008
  0.11870000000000003          1.3712300628299090E-008
  0.11980000000000002          4.0895347552805106E-008
  0.12090000000000001         -1.1589657233912476E-008
  0.12200000000000003         -5.8715730943958988E-008
  0.12310000000000001         -1.8176240956790934E-008
  0.12420000000000003          5.5995620584781136E-008
  0.12530000000000002          5.0581540733674046E-008
  0.12640000000000001         -3.1333176053749412E-008
  0.12750000000000003         -6.9822775117245328E-008
  0.12860000000000002         -7.4363790680820330E-009
  0.12970000000000001          6.2068856720998156E-008
  0.13080000000000003          3.6421315741108629E-008
  0.13190000000000002         -4.0491318742397198E-008
  0.13300000000000001         -4.8338023361793603E-008
  0.13410000000000000          2.3011541117057277E-008
  0.13520000000000004          5.9345587999359850E-008
  0.13630000000000003          1.2263710047477616E-009
  0.13740000000000002         -6.1326147715590196E-008
  0.13850000000000001         -2.7361457100028019E-008
  0.13960000000000000          5.6299562345429877E-008
  0.14070000000000005          6.2997827399158268E-008
  0.14180000000000004         -2.0594828953335309E-008
  0.14290000000000003         -7.2436819209542591E-008
  0.14400000000000002         -1.9334324363740052E-008
  0.14510000000000001          5.5157400424832304E-008
  0.14620000000000000          4.1332430811280574E-008
  0.14730000000000004         -3.1552104928778135E-008
  0.14840000000000003         -4.6956756705185398E-008
  0.14950000000000002          1.5612256376584810E-008
  0.15060000000000001          5.1920348909106906E-008
  0.15170000000000000          7.3308414894057705E-010
  0.15280000000000005         -5.7100120187669745E-008
  0.15390000000000004         -2.5361194033735046E-008
  0.15500000000000003          5.3420517787117205E-008
  0.15610000000000002          5.8010702019828386E-008
  0.15720000000000001         -2.4937364173638343E-008
  0.15830000000000000         -7.6054760711485869E-008
  0.15940000000000004         -2.0349018470255942E-008
  0.16050000000000003          6.1097864545445191E-008
  0.16160000000000002          5.2993925692135235E-008
  0.16270000000000001         -2.4620723237944730E-008
  0.16380000000000000         -5.3982276426722819E-008
  0.16490000000000005          8.3610651735455122E-010
  0.16600000000000004          4.7173983830361976E-008
  0.16710000000000003          1.3587887259802756E-008
  0.16820000000000002         -4.1735091826922144E-008
  0.16930000000000001         -2.7881913666760738E-008
  0.17040000000000000          3.3780199970578906E-008
  0.17150000000000004          4.3911551728115228E-008
  0.17260000000000003         -1.6993094931194719E-008
  0.17370000000000002         -5.5564022716225736E-008
  0.17480000000000001         -9.5324832471987975E-009
  0.17590000000000000          5.4828170448217861E-008
  0.17700000000000005          4.1957864738151329E-008
  0.17810000000000004         -2.8935632556681412E-008
  0.17920000000000003         -5.4650691083679703E-008
  0.18030000000000002         -2.9260935896502360E-009
  0.18140000000000001          4.3855806097781169E-008
  0.18250000000000000          1.7673578156518488E-008
  0.18360000000000004         -3.4887619904111489E-008
  0.18470000000000003         -3.0210429713406484E-008
  0.18580000000000002          2.2875052962945119E-008
  0.18690000000000001          4.0586748184523458E-008
  0.18800000000000000         -4.2811079126181539E-009
  0.18910000000000005         -4.1999793864988533E-008
  0.19020000000000004         -1.5357676019789324E-008
  0.19130000000000003          3.3559203416189121E-008
  0.19240000000000002          3.0430520325808175E-008
  0.19350000000000001         -1.7782127770260558E-008
  0.19460000000000005         -3.6687595184048405E-008
  0.19570000000000004          3.5868341630163059E-010
  0.19680000000000003          3.4736743259600189E-008
  0.19790000000000002          1.5384289397957218E-008
  0.19900000000000001         -2.4723997071873782E-008
  0.20010000000000000         -2.3259318027157860E-008
  0.20120000000000005          1.5061250024928086E-008
  0.20230000000000004          2.9084009867119676E-008
  0.20340000000000003         -2.6156654620024256E-009
  0.20450000000000002         -3.0348733304208508E-008
  0.20560000000000000         -1.1605067129494273E-008
  0.20670000000000005          2.4391304975779349E-008
  0.20780000000000004          2.3265171122943684E-008
  0.20890000000000003         -1.1996583282325446E-008
