 -0.12000000000000000          0.0000000000000000
 -0.11889999999999999          0.0000000000000000
 -0.11780000000000000          0.0000000000000000
 -0.11670000000000000          0.0000000000000000
 -0.11559999999999999          0.0000000000000000
 -0.11449999999999999          0.0000000000000000
 -0.11340000000000000          0.0000000000000000
 -0.11230000000000000          0.0000000000000000
 -0.11119999999999999          0.0000000000000000
 -0.11009999999999999          0.0000000000000000
 -0.10900000000000000          0.0000000000000000
 -0.10790000000000000          0.0000000000000000
 -0.10679999999999999          0.0000000000000000
 -0.10569999999999999          0.0000000000000000
 -0.10460000000000000          0.0000000000000000
 -0.10349999999999999          0.0000000000000000
 -0.10239999999999999          0.0000000000000000
 -0.10130000000000000         -1.9314138772742883E-038
 -0.10020000000000000          7.6124546955132945E-038
  -9.9099999999999994E-002     2.3082071716326155E-037
  -9.7999999999999990E-002    -2.3189103117239039E-036
  -9.6899999999999986E-002     1.1955059018277402E-037
  -9.5799999999999996E-002     3.4850985340669658E-035
  -9.4699999999999993E-002    -3.1062788343308050E-035
  -9.3599999999999989E-002    -3.9044540774241533E-034
  -9.2499999999999999E-002     4.4235950862529889E-034
  -9.1399999999999995E-002     3.7066356432540400E-033
  -9.0299999999999991E-002    -3.6973977270245153E-033
  -8.9200000000000002E-002    -3.1138428052787854E-032
  -8.8099999999999984E-002     1.8877021334145258E-032
  -8.6999999999999994E-002     2.3176227646942247E-031
  -8.5899999999999990E-002    -1.5813439140824581E-032
  -8.4799999999999986E-002    -1.4998310156887411E-030
  -8.3699999999999997E-002    -8.3818098063914042E-031
  -8.2599999999999993E-002     8.1725535682727123E-030
  -8.1499999999999989E-002     1.0656447234724082E-029
  -8.0399999999999999E-002    -3.5342767492840008E-029
  -7.9299999999999995E-002    -8.3639923589142957E-029
  -7.8199999999999992E-002     1.0256862512099909E-028
  -7.7100000000000002E-002     4.8924990600726851E-028
  -7.5999999999999984E-002    -1.8457847771639915E-029
  -7.4899999999999994E-002    -2.1878801057622159E-027
  -7.3799999999999991E-002    -2.0646985894841805E-027
  -7.2699999999999987E-002     7.0269888248060897E-027
  -7.1599999999999997E-002     1.5547779759029451E-026
  -7.0499999999999993E-002    -1.1227664671016222E-026
  -6.9399999999999989E-002    -7.1161274878313397E-026
  -6.8300000000000000E-002    -3.5715779172982373E-026
  -6.7199999999999996E-002     2.1690041203033150E-025
  -6.6099999999999992E-002     3.6787564425563319E-025
  -6.5000000000000002E-002    -3.2414854193736016E-025
  -6.3899999999999985E-002    -1.5971677247937873E-024
  -6.2799999999999995E-002    -8.0030111397994665E-025
  -6.1699999999999991E-002     4.1233258589227472E-024
  -6.0599999999999994E-002     7.3580732721782101E-024
  -5.9499999999999990E-002    -3.6587356951236949E-024
  -5.8399999999999994E-002    -2.6110453459368715E-023
  -5.7299999999999990E-002    -2.1189887809120151E-023
  -5.6199999999999986E-002     4.7535884090735187E-023
  -5.5099999999999996E-002     1.1690393549556880E-022
  -5.3999999999999992E-002     1.7467325772585476E-023
  -5.2899999999999989E-002    -2.8513131294611043E-022
  -5.1799999999999985E-002    -4.0361451010860824E-022
  -5.0699999999999995E-002     2.0385907595789673E-022
  -4.9599999999999991E-002     1.2484831259615697E-021
  -4.8499999999999988E-002     1.1123672846020229E-021
  -4.7399999999999998E-002    -1.4838040952777936E-021
  -4.6299999999999994E-002    -4.4647247238166562E-021
  -4.5199999999999990E-002    -2.5258474972705628E-021
  -4.4099999999999986E-002     6.3875169629093228E-021
  -4.2999999999999997E-002     1.3827060646556913E-020
  -4.1899999999999993E-002     5.2616179243705987E-021
  -4.0799999999999989E-002    -2.0818921096435019E-020
  -3.9699999999999985E-002    -3.8786763878901426E-020
  -3.8599999999999995E-002    -1.3625512920429539E-020
  -3.7499999999999992E-002     5.3746599906735693E-020
  -3.6399999999999988E-002     1.0212782847946542E-019
  -3.5299999999999984E-002     5.2514365750321640E-020
  -3.4199999999999994E-002    -1.0379753131999492E-019
  -3.3099999999999991E-002    -2.5564668235683706E-019
  -3.1999999999999987E-002    -2.2517921640285382E-019
  -3.0899999999999997E-002     9.4255246859417083E-020
  -2.9799999999999993E-002     5.8873256609481660E-019
  -2.8699999999999989E-002     8.5428706273244897E-019
  -2.7599999999999986E-002     3.4697693455973567E-019
  -2.6499999999999996E-002    -1.1131522531539416E-018
  -2.5399999999999992E-002    -2.6784949890740309E-018
  -2.4299999999999988E-002    -2.4453154627323232E-018
  -2.3199999999999985E-002     1.0944745149224942E-018
  -2.2099999999999995E-002     6.6298927278722256E-018
  -2.0999999999999991E-002     9.1416750479553285E-018
  -1.9899999999999987E-002     3.0897456149879385E-018
  -1.8799999999999983E-002    -1.1339916624801738E-017
  -1.7699999999999994E-002    -2.4515179938374908E-017
  -1.6599999999999990E-002    -2.1833025295475789E-017
  -1.5499999999999986E-002     4.4463650397619098E-018
  -1.4399999999999996E-002     4.4554789984690803E-017
  -1.3299999999999992E-002     7.1257235640364154E-017
  -1.2199999999999989E-002     5.3101100959580477E-017
  -1.1099999999999985E-002    -2.4462797898904375E-017
  -9.9999999999999950E-003    -1.3876194327082435E-016
  -8.8999999999999913E-003    -2.2124480729947624E-016
  -7.7999999999999875E-003    -1.7593288566522585E-016
  -6.6999999999999837E-003     6.2253950390430784E-017
  -5.5999999999999939E-003     4.4271378716239924E-016
  -4.4999999999999901E-003     7.4575946461908965E-016
  -3.3999999999999864E-003     6.4074315514819902E-016
  -2.2999999999999826E-003    -1.0890733398511557E-016
  -1.1999999999999927E-003    -1.3684631473313770E-015
  -9.9999999999988987E-005    -2.4684833424695003E-015
   1.0000000000000148E-003    -2.3659104054140831E-015
   2.1000000000000185E-003    -2.2081165582607407E-016
   3.2000000000000084E-003     3.7787431502258901E-015
   4.3000000000000121E-003     7.8174576526230700E-015
   5.4000000000000159E-003     8.7108927587938555E-015
   6.5000000000000058E-003     3.4190368448889586E-015
   7.6000000000000234E-003    -8.5064503455457158E-015
   8.7000000000000133E-003    -2.2798515191598673E-014
   9.8000000000000032E-003    -3.0460917533996212E-014
   1.0900000000000021E-002    -2.1164000795479733E-014
   1.2000000000000011E-002     1.0285415199390562E-014
   1.3100000000000001E-002     5.6970616104431299E-014
   1.4200000000000018E-002     9.6729583707027417E-014
   1.5300000000000008E-002     9.7258579499510250E-014
   1.6400000000000026E-002     3.1205188444089621E-014
   1.7500000000000016E-002    -1.0240773344345061E-013
   1.8600000000000005E-002    -2.6050234018526464E-013
   1.9700000000000023E-002    -3.5581078556591594E-013
   2.0800000000000013E-002    -2.8496462459691452E-013
   2.1900000000000003E-002     1.6265995508532062E-014
   2.3000000000000020E-002     5.0909835158305383E-013
   2.4100000000000010E-002     1.0130894604123974E-012
   2.5200000000000000E-002     1.2298693964282736E-012
   2.6300000000000018E-002     8.4987529166968834E-013
   2.7400000000000008E-002    -2.7420099068913018E-013
   2.8500000000000025E-002    -1.9502145124500325E-012
   2.9600000000000015E-002    -3.5632471365870666E-012
   3.0700000000000005E-002    -4.1808496768769299E-012
   3.1800000000000023E-002    -2.8850704377608727E-012
   3.2900000000000013E-002     7.3310091721137671E-013
   3.4000000000000002E-002     6.0950905780843279E-012
   3.5100000000000020E-002     1.1422325758847496E-011
   3.6200000000000010E-002     1.4019349049709806E-011
   3.7300000000000028E-002     1.1140594523284530E-011
   3.8400000000000017E-002     1.2862523546264271E-012
   3.9500000000000007E-002    -1.4497641802335703E-011
   4.0600000000000025E-002    -3.1919727278006960E-011
   4.1700000000000015E-002    -4.3917314229702242E-011
   4.2800000000000005E-002    -4.2568001207277106E-011
   4.3900000000000022E-002    -2.2160943219384777E-011
   4.5000000000000012E-002     1.7460123624690738E-011
   4.6100000000000002E-002     6.8601388458766621E-011
   4.7200000000000020E-002     1.1579961989305332E-010
   4.8300000000000010E-002     1.3905959717064320E-010
   4.9400000000000027E-002     1.1998933791002031E-010
   5.0500000000000017E-002     4.9327490009298813E-011
   5.1600000000000007E-002    -6.6642323603982589E-011
   5.2700000000000025E-002    -2.0359321173391010E-010
   5.3800000000000014E-002    -3.2269065197709779E-010
   5.4900000000000004E-002    -3.8061168106118259E-010
   5.6000000000000022E-002    -3.4424468831062427E-010
   5.7100000000000012E-002    -2.0606268080758383E-010
   5.8200000000000002E-002     5.1650528472280133E-012
   5.9300000000000019E-002     2.2340551630861682E-010
   6.0400000000000009E-002     3.5714550761234420E-010
   6.1500000000000027E-002     3.1334929095905295E-010
   6.2600000000000017E-002     2.8927799392008957E-011
   6.3700000000000007E-002    -4.9822734826676651E-010
   6.4800000000000024E-002    -1.1879360828359609E-009
   6.5900000000000014E-002    -1.8741073137817921E-009
   6.7000000000000004E-002    -2.3228454715251701E-009
   6.8100000000000022E-002    -2.2705548552437449E-009
   6.9200000000000012E-002    -1.4743203324840692E-009
   7.0300000000000029E-002     2.3802299020658779E-010
   7.1400000000000019E-002     2.9322213546123521E-009
   7.2500000000000009E-002     6.5584440100963093E-009
   7.3600000000000027E-002     1.0974789077522473E-008
   7.4700000000000016E-002     1.6001079572447452E-008
   7.5800000000000006E-002     2.1492539303835656E-008
   7.6900000000000024E-002     2.7415813619313667E-008
   7.8000000000000014E-002     3.3909788754726833E-008
   7.9100000000000004E-002     4.1316742027674991E-008
   8.0200000000000021E-002     5.0177042965060537E-008
   8.1300000000000011E-002     6.1191720135411742E-008
   8.2400000000000029E-002     7.5165921487041487E-008
   8.3500000000000019E-002     9.2952497254827904E-008
   8.4600000000000009E-002     1.1541691691263622E-007
   8.5700000000000026E-002     1.4344078635986079E-007
   8.6800000000000016E-002     1.7796362783428776E-007
   8.7900000000000006E-002     2.2005964694926661E-007
   8.9000000000000024E-002     2.7102942112833261E-007
   9.0100000000000013E-002     3.3248736031055159E-007
   9.1200000000000003E-002     4.0642640897203819E-007
   9.2300000000000021E-002     4.9525590384291718E-007
   9.3400000000000011E-002     6.0180127547937445E-007
   9.4500000000000028E-002     7.2929748284877860E-007
   9.5600000000000018E-002     8.8139660192609881E-007
   9.6700000000000008E-002     1.0621906767482869E-006
   9.7800000000000026E-002     1.2762552614731248E-006
   9.8900000000000016E-002     1.5287419046217110E-006
  0.10000000000000001          1.8254874021295109E-006
  0.10110000000000002          2.1730986645707162E-006
  0.10220000000000001          2.5790429845073959E-006
  0.10330000000000003          3.0516787319356808E-006
  0.10440000000000002          3.6002757042297162E-006
  0.10550000000000001          4.2349925024609547E-006
  0.10660000000000003          4.9668155952531379E-006
  0.10770000000000002          5.8075966080650687E-006
  0.10880000000000001          6.7700011641136371E-006
  0.10990000000000003          7.8675320764887147E-006
  0.11100000000000002          9.1144966063438915E-006
  0.11210000000000001          1.0525985999265686E-005
  0.11320000000000002          1.2117763617425226E-005
  0.11430000000000001          1.3906171261623967E-005
  0.11540000000000003          1.5907926353975199E-005
  0.11650000000000002          1.8139908206649125E-005
  0.11760000000000001          2.0618655980797485E-005
  0.11870000000000003          2.3360285922535695E-005
  0.11980000000000002          2.6380021154182032E-005
  0.12090000000000001          2.9691840609302744E-005
  0.12200000000000003          3.3307973353657871E-005
  0.12310000000000001          3.7238311051623896E-005
  0.12420000000000003          4.1489896830171347E-005
  0.12530000000000002          4.6066408685874194E-005
  0.12640000000000001          5.0967802962986752E-005
  0.12750000000000003          5.6189001043094322E-005
  0.12860000000000002          6.1719925724901259E-005
  0.12970000000000001          6.7544351622927934E-005
  0.13080000000000003          7.3639646871015429E-005
  0.13190000000000002          7.9976081906352192E-005
  0.13300000000000001          8.6515989096369594E-005
  0.13410000000000000          9.3213719082996249E-005
  0.13520000000000004          1.0001462214859203E-004
  0.13630000000000003          1.0685473534977064E-004
  0.13740000000000002          1.1366096441633999E-004
  0.13850000000000001          1.2035119289066643E-004
  0.13960000000000000          1.2683337263297290E-004
  0.14070000000000005          1.3300814316608012E-004
  0.14180000000000004          1.3876669981982559E-004
  0.14290000000000003          1.4399224892258644E-004
  0.14400000000000002          1.4856309280730784E-004
  0.14510000000000001          1.5235075261443853E-004
  0.14620000000000000          1.5522420289926231E-004
  0.14730000000000004          1.5704904217272997E-004
  0.14840000000000003          1.5769260062370449E-004
  0.14950000000000002          1.5702252858318388E-004
  0.15060000000000001          1.5491199155803770E-004
  0.15170000000000000          1.5123904449865222E-004
  0.15280000000000005          1.4589313650503755E-004
  0.15390000000000004          1.3877512537874281E-004
  0.15500000000000003          1.2980280735064298E-004
  0.15610000000000002          1.1890981113538146E-004
  0.15720000000000001          1.0605030547594652E-004
  0.15830000000000000          9.1201072791591287E-005
  0.15940000000000004          7.4365118052810431E-005
  0.16050000000000003          5.5574371799593791E-005
  0.16160000000000002          3.4887383662862703E-005
  0.16270000000000001          1.2392290045681875E-005
  0.16380000000000000         -1.1791848010034300E-005
  0.16490000000000005         -3.7512440030695871E-005
  0.16600000000000004         -6.4586332882754505E-005
  0.16710000000000003         -9.2801354185212404E-005
  0.16820000000000002         -1.2191721179988235E-004
  0.16930000000000001         -1.5166393131949008E-004
  0.17040000000000000         -1.8174982687924057E-004
  0.17150000000000004         -2.1186281810514629E-004
  0.17260000000000003         -2.4167464289348572E-004
  0.17370000000000002         -2.7084341854788363E-004
  0.17480000000000001         -2.9901941888965666E-004
  0.17590000000000000         -3.2585149165242910E-004
  0.17700000000000005         -3.5099132219329476E-004
  0.17810000000000004         -3.7410005461424589E-004
  0.17920000000000003         -3.9485137676820159E-004
  0.18030000000000002         -4.1293882532045245E-004
  0.18140000000000001         -4.2808233411051333E-004
  0.18250000000000000         -4.4003294897265732E-004
  0.18360000000000004         -4.4857722241431475E-004
  0.18470000000000003         -4.5354070607572794E-004
  0.18580000000000002         -4.5479321852326393E-004
  0.18690000000000001         -4.5225012581795454E-004
  0.18800000000000000         -4.4587577576749027E-004
  0.18910000000000005         -4.3568506953306496E-004
  0.19020000000000004         -4.2174171539954841E-004
  0.19130000000000003         -4.0416064439341426E-004
  0.19240000000000002         -3.8310585659928620E-004
  0.19350000000000001         -3.5878570633940399E-004
  0.19460000000000005         -3.3145502675324678E-004
  0.19570000000000004         -3.0140639864839613E-004
  0.19680000000000003         -2.6896843337453902E-004
  0.19790000000000002         -2.3449736181646585E-004
  0.19900000000000001         -1.9837750005535781E-004
  0.20010000000000000         -1.6100922948680818E-004
  0.20120000000000005         -1.2280553346499801E-004
  0.20230000000000004         -8.4184437582734972E-005
  0.20340000000000003         -4.5562115701613948E-005
  0.20450000000000002         -7.3471314863127191E-006
  0.20560000000000000          3.0063036319916137E-005
  0.20670000000000005          6.6291249822825193E-005
  0.20780000000000004          1.0098542406922206E-004
  0.20890000000000003          1.3382545148488134E-004
