 -0.12000000000000000          0.0000000000000000
 -0.11889999999999999          0.0000000000000000
 -0.11780000000000000          0.0000000000000000
 -0.11670000000000000          0.0000000000000000
 -0.11559999999999999          0.0000000000000000
 -0.11449999999999999          0.0000000000000000
 -0.11340000000000000          0.0000000000000000
 -0.11230000000000000          0.0000000000000000
 -0.11119999999999999          0.0000000000000000
 -0.11009999999999999          0.0000000000000000
 -0.10900000000000000          0.0000000000000000
 -0.10790000000000000          0.0000000000000000
 -0.10679999999999999          0.0000000000000000
 -0.10569999999999999          0.0000000000000000
 -0.10460000000000000          0.0000000000000000
 -0.10349999999999999          0.0000000000000000
 -0.10239999999999999          0.0000000000000000
 -0.10130000000000000          0.0000000000000000
 -0.10020000000000000          0.0000000000000000
  -9.9099999999999994E-002     0.0000000000000000
  -9.7999999999999990E-002     1.4913457635124834E-038
  -9.6899999999999986E-002    -1.8013105455618050E-037
  -9.5799999999999996E-002     1.0892724563123815E-037
  -9.4699999999999993E-002     2.6624816108796306E-036
  -9.3599999999999989E-002    -3.9959852106588621E-036
  -9.2499999999999999E-002    -2.9495007191209883E-035
  -9.1399999999999995E-002     5.4106753709714741E-035
  -9.0299999999999991E-002     2.8228043538270534E-034
  -8.9200000000000002E-002    -4.9113545285121966E-034
  -8.8099999999999984E-002    -2.4500375086837918E-033
  -8.6999999999999994E-002     3.2310548734823282E-033
  -8.5899999999999990E-002     1.9282474314998820E-032
  -8.4799999999999986E-002    -1.3873786769259434E-032
  -8.3699999999999997E-002    -1.3467855068331499E-031
  -8.2599999999999993E-002     7.0790958749845660E-033
  -8.1499999999999989E-002     8.1077644573955027E-031
  -8.0399999999999999E-002     5.3403653455314583E-031
  -7.9299999999999995E-002    -4.0412611809518426E-030
  -7.8199999999999992E-002    -6.0495129695576726E-030
  -7.7100000000000002E-002     1.5387379791020879E-029
  -7.5999999999999984E-002     4.3040140729369088E-029
  -7.4899999999999994E-002    -3.3347576292827746E-029
  -7.3799999999999991E-002    -2.2751763953137159E-028
  -7.2699999999999987E-002    -7.3391556835510226E-029
  -7.1599999999999997E-002     8.9952869168539115E-028
  -7.0499999999999993E-002     1.2210279328653440E-027
  -6.9399999999999989E-002    -2.3506857047160743E-027
  -6.8300000000000000E-002    -7.2753960394051332E-027
  -6.7199999999999996E-002     1.0803709134579277E-027
  -6.6099999999999992E-002     2.8146803617318583E-026
  -6.5000000000000002E-002     2.7526299804116126E-026
  -6.3899999999999985E-002    -6.7843757319261364E-026
  -6.2799999999999995E-002    -1.7226678527244310E-025
  -6.1699999999999991E-002     2.6997174433427043E-026
  -6.0599999999999994E-002     5.9450347545634170E-025
  -5.9499999999999990E-002     6.1972409815335609E-025
  -5.8399999999999994E-002    -1.1094580200149703E-024
  -5.7299999999999990E-002    -3.2302075187459160E-024
  -5.6199999999999986E-002    -6.4325882648830003E-025
  -5.5099999999999996E-002     8.6070010127677369E-024
  -5.3999999999999992E-002     1.2517663776708741E-023
  -5.2899999999999989E-002    -8.2880180059934738E-024
  -5.1799999999999985E-002    -4.4519683885953511E-023
  -5.0699999999999995E-002    -3.4456933158187212E-023
  -4.9599999999999991E-002     7.1907530342815747E-023
  -4.8499999999999988E-002     1.8037413145138993E-022
  -4.7399999999999998E-002     5.4532439764990522E-023
  -4.6299999999999994E-002    -3.6871656583907903E-022
  -4.5199999999999990E-002    -6.1462109500813978E-022
  -4.4099999999999986E-002     4.6968172451683833E-023
  -4.2999999999999997E-002     1.4654917180377083E-021
  -4.1899999999999993E-002     1.8647019861580314E-021
  -4.0799999999999989E-002    -6.7264551276706887E-022
  -3.9699999999999985E-002    -4.9037156949090135E-021
  -3.8599999999999995E-002    -5.3731213054872500E-021
  -3.7499999999999992E-002     2.5210136605659561E-021
  -3.6399999999999988E-002     1.4352153930053294E-020
  -3.5299999999999984E-002     1.5697133450193178E-020
  -3.4199999999999994E-002    -4.8019236080541908E-021
  -3.3099999999999991E-002    -3.7193830507800236E-020
  -3.1999999999999987E-002    -4.7783309467998866E-020
  -3.0899999999999997E-002    -4.6137682914732202E-021
  -2.9799999999999993E-002     8.3212295208954666E-020
  -2.8699999999999989E-002     1.4621917884204724E-019
  -2.7599999999999986E-002     8.5385589483815570E-020
  -2.6499999999999996E-002    -1.4169942520096628E-019
  -2.5399999999999992E-002    -4.1784134254078870E-019
  -2.4299999999999988E-002    -4.4558389461126327E-019
  -2.3199999999999985E-002     6.7235023796505907E-020
  -2.2099999999999995E-002     1.0197741085495148E-018
  -2.0999999999999991E-002     1.6366838584279143E-018
  -1.9899999999999987E-002     8.0437818989587292E-019
  -1.8799999999999983E-002    -1.8127946433459401E-018
  -1.7699999999999994E-002    -4.6456944742815693E-018
  -1.6599999999999990E-002    -4.5247701813033610E-018
  -1.5499999999999986E-002     8.5958499945948626E-019
  -1.4399999999999996E-002     9.7221407710082902E-018
  -1.3299999999999992E-002     1.5263416249875510E-017
  -1.2199999999999989E-002     9.3279288249420561E-018
  -1.1099999999999985E-002    -1.0540262928673250E-017
  -9.9999999999999950E-003    -3.5327987298355805E-017
  -8.8999999999999913E-003    -4.5425139499051748E-017
  -7.7999999999999875E-003    -2.0663640063509574E-017
  -6.6999999999999837E-003     4.2963138976183618E-017
  -5.5999999999999939E-003     1.1818896881989548E-016
  -4.4999999999999901E-003     1.4611548627219216E-016
  -3.3999999999999864E-003     6.2949854131049196E-017
  -2.2999999999999826E-003    -1.4690801794324656E-016
  -1.1999999999999927E-003    -3.9762757333881252E-016
  -9.9999999999988987E-005    -4.9734180066702605E-016
   1.0000000000000148E-003    -2.3487368653480614E-016
   2.1000000000000185E-003     4.4985141617155601E-016
   3.2000000000000084E-003     1.2979855591968461E-015
   4.3000000000000121E-003     1.7106242239571198E-015
   5.4000000000000159E-003     9.9630111662595260E-016
   6.5000000000000058E-003    -1.1249283636224384E-015
   7.6000000000000234E-003    -3.9870980086573974E-015
   8.7000000000000133E-003    -5.8213719963755815E-015
   9.8000000000000032E-003    -4.3668571837458640E-015
   1.0900000000000021E-002     1.6991581507083751E-015
   1.2000000000000011E-002     1.1063664836163077E-014
   1.3100000000000001E-002     1.8930400324558561E-014
   1.4200000000000018E-002     1.8214284789631885E-014
   1.5300000000000008E-002     3.2195792205354104E-015
   1.6400000000000026E-002    -2.5259511821605629E-014
   1.7500000000000016E-002    -5.6121533337444643E-014
   1.8600000000000005E-002    -6.8897558285711119E-014
   1.9700000000000023E-002    -4.1805670253705629E-014
   2.0800000000000013E-002     3.4091578572734843E-014
   2.1900000000000003E-002     1.4036006786097982E-013
   2.3000000000000020E-002     2.2576040971562794E-013
   2.4100000000000010E-002     2.1904811406577018E-013
   2.5200000000000000E-002     6.2692303334343363E-014
   2.6300000000000018E-002    -2.4159740505923233E-013
   2.7400000000000008E-002    -5.9720934794671443E-013
   2.8500000000000025E-002    -8.1451821199243768E-013
   2.9600000000000015E-002    -6.7051626837649758E-013
   3.0700000000000005E-002    -2.2924380899428873E-014
   3.1800000000000023E-002     1.0582418188270770E-012
   3.2900000000000013E-002     2.2083185974297592E-012
   3.4000000000000002E-002     2.8079953726806162E-012
   3.5100000000000020E-002     2.1872772690278985E-012
   3.6200000000000010E-002    -3.4518401862988074E-014
   3.7300000000000028E-002    -3.5873472161579434E-012
   3.8400000000000017E-002    -7.3472590858547626E-012
   3.9500000000000007E-002    -9.4718313053965275E-012
   4.0600000000000025E-002    -7.9644355346908391E-012
   4.1700000000000015E-002    -1.5850169484202259E-012
   4.2800000000000005E-002     9.1780281291642396E-012
   4.3900000000000022E-002     2.1508220551802459E-011
   4.5000000000000012E-002     3.0469477635408637E-011
   4.6100000000000002E-002     3.0261310818291420E-011
   4.7200000000000020E-002     1.6384315779105485E-011
   4.8300000000000010E-002    -1.1866285731798598E-011
   4.9400000000000027E-002    -4.9503012800045099E-011
   5.0500000000000017E-002    -8.5532109173058757E-011
   5.1600000000000007E-002    -1.0488889617965569E-010
   5.2700000000000025E-002    -9.2614055313688937E-011
   5.3800000000000014E-002    -3.9413163704926646E-011
   5.4900000000000004E-002     5.2987166737628044E-011
   5.6000000000000022E-002     1.6859252882639453E-010
   5.7100000000000012E-002     2.7762636634065530E-010
   5.8200000000000002E-002     3.4149633121316469E-010
   5.9300000000000019E-002     3.2173455566386622E-010
   6.0400000000000009E-002     1.9113832738781866E-010
   6.1500000000000027E-002    -5.5551212935212035E-011
   6.2600000000000017E-002    -3.9428846299038867E-010
   6.3700000000000007E-002    -7.6993711406458942E-010
   6.4800000000000024E-002    -1.1010526934640552E-009
   6.5900000000000014E-002    -1.2906425927994292E-009
   6.7000000000000004E-002    -1.2408649663342430E-009
   6.8100000000000022E-002    -8.6860219017381723E-010
   6.9200000000000012E-002    -1.1850626036036260E-010
   7.0300000000000029E-002     1.0295547747674050E-009
   7.1400000000000019E-002     2.5608470899385338E-009
   7.2500000000000009E-002     4.4347512329068195E-009
   7.3600000000000027E-002     6.6016112576505748E-009
   7.4700000000000016E-002     9.0249177020496063E-009
   7.5800000000000006E-002     1.1705055591448854E-008
   7.6900000000000024E-002     1.4699815586993736E-008
   7.8000000000000014E-002     1.8137571444754030E-008
   7.9100000000000004E-002     2.2220232764880166E-008
   8.0200000000000021E-002     2.7216220388481815E-008
   8.1300000000000011E-002     3.3446227121203265E-008
   8.2400000000000029E-002     4.1267593786642465E-008
   8.3500000000000019E-002     5.1063477002344371E-008
   8.4600000000000009E-002     6.3243220438380376E-008
   8.5700000000000026E-002     7.8256249480546103E-008
   8.6800000000000016E-002     9.6618144596050115E-008
   8.7900000000000006E-002     1.1894506712906150E-007
   8.9000000000000024E-002     1.4598649045183265E-007
   9.0100000000000013E-002     1.7865127688310167E-007
   9.1200000000000003E-002     2.1802343042054417E-007
   9.2300000000000021E-002     2.6536758923612069E-007
   9.3400000000000011E-002     3.2213620215770788E-007
   9.4500000000000028E-002     3.8997688989184098E-007
   9.5600000000000018E-002     4.7075886300262937E-007
   9.6700000000000008E-002     5.6660746849956922E-007
   9.7800000000000026E-002     6.7995279096066952E-007
   9.8900000000000016E-002     8.1357507042412180E-007
  0.10000000000000001          9.7064992132800398E-007
  0.10110000000000002          1.1547735994099639E-006
  0.10220000000000001          1.3699711871595355E-006
  0.10330000000000003          1.6207034150284017E-006
  0.10440000000000002          1.9118679119856097E-006
  0.10550000000000001          2.2488043214252684E-006
  0.10660000000000003          2.6373350010544527E-006
  0.10770000000000002          3.0837668418826070E-006
  0.10880000000000001          3.5949265111412387E-006
  0.10990000000000003          4.1781768231885508E-006
  0.11100000000000002          4.8413799049740192E-006
  0.11210000000000001          5.5928499023139011E-006
  0.11320000000000002          6.4412988649564795E-006
  0.11430000000000001          7.3957321546913590E-006
  0.11540000000000003          8.4653156591230072E-006
  0.11650000000000002          9.6593175840098411E-006
  0.11760000000000001          1.0986962479364593E-005
  0.11870000000000003          1.2457339835236780E-005
  0.11980000000000002          1.4079098036745563E-005
  0.12090000000000001          1.5860412531765178E-005
  0.12200000000000003          1.7808561096899211E-005
  0.12310000000000001          1.9929744667024352E-005
  0.12420000000000003          2.2228690795600414E-005
  0.12530000000000002          2.4708431737963110E-005
  0.12640000000000001          2.7369929739506915E-005
  0.12750000000000003          3.0211780540412292E-005
  0.12860000000000002          3.3229869586648419E-005
  0.12970000000000001          3.6417004594113678E-005
  0.13080000000000003          3.9762493543094024E-005
  0.13190000000000002          4.3251911847619340E-005
  0.13300000000000001          4.6866920456523076E-005
  0.13410000000000000          5.0584250857355073E-005
  0.13520000000000004          5.4376312618842348E-005
  0.13630000000000003          5.8210516726830974E-005
  0.13740000000000002          6.2048871768638492E-005
  0.13850000000000001          6.5849148086272180E-005
  0.13960000000000000          6.9563786382786930E-005
  0.14070000000000005          7.3140181484632194E-005
  0.14180000000000004          7.6521791925188154E-005
  0.14290000000000003          7.9646757512819022E-005
  0.14400000000000002          8.2450023910496384E-005
  0.14510000000000001          8.4862505900673568E-005
  0.14620000000000000          8.6813895904924721E-005
  0.14730000000000004          8.8232372945640236E-005
  0.14840000000000003          8.9044617197941989E-005
  0.14950000000000002          8.9178771304432303E-005
  0.15060000000000001          8.8564513134770095E-005
  0.15170000000000000          8.7135180365294218E-005
  0.15280000000000005          8.4827865066472441E-005
  0.15390000000000004          8.1585763837210834E-005
  0.15500000000000003          7.7359698479995131E-005
  0.15610000000000002          7.2110058681573719E-005
  0.15720000000000001          6.5807442297227681E-005
  0.15830000000000000          5.8433564845472574E-005
  0.15940000000000004          4.9982820200966671E-005
  0.16050000000000003          4.0466224163537845E-005
  0.16160000000000002          2.9907547286711633E-005
  0.16270000000000001          1.8346849174122326E-005
  0.16380000000000000          5.8416144383954816E-006
  0.16490000000000005         -7.5336670306569431E-006
  0.16600000000000004         -2.1690495486836880E-005
  0.16710000000000003         -3.6522356822388247E-005
  0.16820000000000002         -5.1906699809478596E-005
  0.16930000000000001         -6.7707704147323966E-005
  0.17040000000000000         -8.3774903032463044E-005
  0.17150000000000004         -9.9945653346367180E-005
  0.17260000000000003         -1.1605006147874519E-004
  0.17370000000000002         -1.3190996833145618E-004
  0.17480000000000001         -1.4734230353496969E-004
  0.17590000000000000         -1.6216118820011616E-004
  0.17700000000000005         -1.7618126003071666E-004
  0.17810000000000004         -1.8921984883490950E-004
  0.17920000000000003         -2.0110218611080199E-004
  0.18030000000000002         -2.1166284568607807E-004
  0.18140000000000001         -2.2074904700275511E-004
  0.18250000000000000         -2.2822234313935041E-004
  0.18360000000000004         -2.3396176402457058E-004
  0.18470000000000003         -2.3786642123013735E-004
  0.18580000000000002         -2.3985824373085052E-004
  0.18690000000000001         -2.3988366592675447E-004
  0.18800000000000000         -2.3791317653376609E-004
  0.18910000000000005         -2.3394316667690873E-004
  0.19020000000000004         -2.2799526050221175E-004
  0.19130000000000003         -2.2011726105120033E-004
  0.19240000000000002         -2.1038447448518127E-004
  0.19350000000000001         -1.9889576651621610E-004
  0.19460000000000005         -1.8577479931991547E-004
  0.19570000000000004         -1.7116413800977170E-004
  0.19680000000000003         -1.5522450848948210E-004
  0.19790000000000002         -1.3813715486321598E-004
  0.19900000000000001         -1.2009372585453093E-004
  0.20010000000000000         -1.0129790462087840E-004
  0.20120000000000005         -8.1960490206256509E-005
  0.20230000000000004         -6.2295432144310325E-005
  0.20340000000000003         -4.2516290704952553E-005
  0.20450000000000002         -2.2836538846604526E-005
  0.20560000000000000         -3.4609299746080069E-006
  0.20670000000000005          1.5410358173539862E-005
  0.20780000000000004          3.3591626561246812E-005
  0.20890000000000003          5.0913407903863117E-005
