 -0.12000000000000000          0.0000000000000000
 -0.11889999999999999          0.0000000000000000
 -0.11780000000000000          0.0000000000000000
 -0.11670000000000000          0.0000000000000000
 -0.11559999999999999          0.0000000000000000
 -0.11449999999999999          0.0000000000000000
 -0.11340000000000000          0.0000000000000000
 -0.11230000000000000          0.0000000000000000
 -0.11119999999999999          0.0000000000000000
 -0.11009999999999999          0.0000000000000000
 -0.10900000000000000          0.0000000000000000
 -0.10790000000000000          0.0000000000000000
 -0.10679999999999999          0.0000000000000000
 -0.10569999999999999          0.0000000000000000
 -0.10460000000000000          0.0000000000000000
 -0.10349999999999999          0.0000000000000000
 -0.10239999999999999          0.0000000000000000
 -0.10130000000000000          1.9314131766250562E-038
 -0.10020000000000000         -7.6049695196362571E-038
  -9.9099999999999994E-002    -2.3071040694814990E-037
  -9.7999999999999990E-002     2.3189490548238455E-036
  -9.6899999999999986E-002    -1.1955376272249725E-037
  -9.5799999999999996E-002    -3.4851014039262207E-035
  -9.4699999999999993E-002     3.1062716596826676E-035
  -9.3599999999999989E-002     3.9044526998917109E-034
  -9.2499999999999999E-002    -4.4235955454304697E-034
  -9.1399999999999995E-002    -3.7066352759120554E-033
  -9.0299999999999991E-002     3.6973984617084846E-033
  -8.9200000000000002E-002     3.1138445685203117E-032
  -8.8099999999999984E-002    -1.8877027211617012E-032
  -8.6999999999999994E-002    -2.3176239401885755E-031
  -8.5899999999999990E-002     1.5813677178430623E-032
  -8.4799999999999986E-002     1.4998311097282891E-030
  -8.3699999999999997E-002     8.3818135679733269E-031
  -8.2599999999999993E-002    -8.1725535682727123E-030
  -8.1499999999999989E-002    -1.0656444977774928E-029
  -8.0399999999999999E-002     3.5342767492840008E-029
  -7.9299999999999995E-002     8.3639941644736186E-029
  -7.8199999999999992E-002    -1.0256866123218555E-028
  -7.7100000000000002E-002    -4.8924980971077130E-028
  -7.5999999999999984E-002     1.8458241985425407E-029
  -7.4899999999999994E-002     2.1878806835411992E-027
  -7.3799999999999991E-002     2.0646976265192083E-027
  -7.2699999999999987E-002    -7.0269919062940008E-027
  -7.1599999999999997E-002    -1.5547776677541540E-026
  -7.0499999999999993E-002     1.1227673915479955E-026
  -6.9399999999999989E-002     7.1161274878313397E-026
  -6.8300000000000000E-002     3.5715757602566996E-026
  -6.7199999999999996E-002    -2.1690043668223479E-025
  -6.6099999999999992E-002    -3.6787544704040688E-025
  -6.5000000000000002E-002     3.2414873915258647E-025
  -6.3899999999999985E-002     1.5971679220090136E-024
  -6.2799999999999995E-002     8.0030037442284800E-025
  -6.1699999999999991E-002    -4.1233278310750102E-024
  -6.0599999999999994E-002    -7.3580701167345892E-024
  -5.9499999999999990E-002     3.6587396394282210E-024
  -5.8399999999999994E-002     2.6110456614812336E-023
  -5.7299999999999990E-002     2.1189865721014805E-023
  -5.6199999999999986E-002    -4.7535915645171395E-023
  -5.5099999999999996E-002    -1.1690398598266673E-022
  -5.3999999999999992E-002    -1.7467276863209353E-023
  -5.2899999999999989E-002     2.8513141392030630E-022
  -5.1799999999999985E-002     4.0361461108280411E-022
  -5.0699999999999995E-002    -2.0385920217564157E-022
  -4.9599999999999991E-002    -1.2484840347293325E-021
  -4.8499999999999988E-002    -1.1123674865504146E-021
  -4.7399999999999998E-002     1.4838049030713606E-021
  -4.6299999999999994E-002     4.4647275510941405E-021
  -4.5199999999999990E-002     2.5258493148060885E-021
  -4.4099999999999986E-002    -6.3875222135675080E-021
  -4.2999999999999997E-002    -1.3827071955666850E-020
  -4.1899999999999993E-002    -5.2616134815059805E-021
  -4.0799999999999989E-002     2.0818932405544957E-020
  -3.9699999999999985E-002     3.8786763878901426E-020
  -3.8599999999999995E-002     1.3625504842493870E-020
  -3.7499999999999992E-002    -5.3746586982038622E-020
  -3.6399999999999988E-002    -1.0212783494181396E-019
  -3.5299999999999984E-002    -5.2514433604981264E-020
  -3.4199999999999994E-002     1.0379749254590371E-019
  -3.3099999999999991E-002     2.5564670820623120E-019
  -3.1999999999999987E-002     2.2517942319800695E-019
  -3.0899999999999997E-002    -9.4254917279641769E-020
  -2.9799999999999993E-002    -5.8873251439602831E-019
  -2.8699999999999989E-002    -8.5428773481669667E-019
  -2.7599999999999986E-002    -3.4697807193307793E-019
  -2.6499999999999996E-002     1.1131519429612119E-018
  -2.5399999999999992E-002     2.6784968502304091E-018
  -2.4299999999999988E-002     2.4453179442741608E-018
  -2.3199999999999985E-002    -1.0944727571636925E-018
  -2.2099999999999995E-002    -6.6298947958237570E-018
  -2.0999999999999991E-002    -9.1416791838583913E-018
  -1.9899999999999987E-002    -3.0897466489637042E-018
  -1.8799999999999983E-002     1.1339915797621125E-017
  -1.7699999999999994E-002     2.4515186555819808E-017
  -1.6599999999999990E-002     2.1833043493449266E-017
  -1.5499999999999986E-002    -4.4463592494976219E-018
  -1.4399999999999996E-002    -4.4554809837025504E-017
  -1.3299999999999992E-002    -7.1257295197368258E-017
  -1.2199999999999989E-002    -5.3101153899139680E-017
  -1.1099999999999985E-002     2.4462862418992154E-017
  -9.9999999999999950E-003     1.3876208885461216E-016
  -8.8999999999999913E-003     2.2124486023903544E-016
  -7.7999999999999875E-003     1.7593284596055644E-016
  -6.6999999999999837E-003    -6.2253976860210386E-017
  -5.5999999999999939E-003    -4.4271391951129725E-016
  -4.4999999999999901E-003    -7.4575957049820805E-016
  -3.3999999999999864E-003    -6.4074304926908061E-016
  -2.2999999999999826E-003     1.0890734060256047E-016
  -1.1999999999999927E-003     1.3684627238149034E-015
  -9.9999999999988987E-005     2.4684841895024475E-015
   1.0000000000000148E-003     2.3659116759635040E-015
   2.1000000000000185E-003     2.2081025292775518E-016
   3.2000000000000084E-003    -3.7787469618741527E-015
   4.3000000000000121E-003    -7.8174593466889646E-015
   5.4000000000000159E-003    -8.7108927587938555E-015
   6.5000000000000058E-003    -3.4190379036801426E-015
   7.6000000000000234E-003     8.5064545807104520E-015
   8.7000000000000133E-003     2.2798520273796356E-014
   9.8000000000000032E-003     3.0460920922128001E-014
   1.0900000000000021E-002     2.1163995713282049E-014
   1.2000000000000011E-002    -1.0285426210818877E-014
   1.3100000000000001E-002    -5.6970629656958455E-014
   1.4200000000000018E-002    -9.6729590483290995E-014
   1.5300000000000008E-002    -9.7258593052037406E-014
   1.6400000000000026E-002    -3.1205222325407511E-014
   1.7500000000000016E-002     1.0240772666718703E-013
   1.8600000000000005E-002     2.6050244860548188E-013
   1.9700000000000023E-002     3.5581097530129613E-013
   2.0800000000000013E-002     2.8496484143734901E-013
   2.1900000000000003E-002    -1.6265997202597957E-014
   2.3000000000000020E-002    -5.0909889368414007E-013
   2.4100000000000010E-002    -1.0130901109337009E-012
   2.5200000000000000E-002    -1.2298692880080564E-012
   2.6300000000000018E-002    -8.4987437009784172E-013
   2.7400000000000008E-002     2.7420172252559660E-013
   2.8500000000000025E-002     1.9502142956095980E-012
   2.9600000000000015E-002     3.5632464860657631E-012
   3.0700000000000005E-002     4.1808518452812748E-012
   3.1800000000000023E-002     2.8850732566865211E-012
   3.2900000000000013E-002    -7.3310216404387507E-013
   3.4000000000000002E-002    -6.0951018537869217E-012
   3.5100000000000020E-002    -1.1422341371358780E-011
   3.6200000000000010E-002    -1.4019349917071544E-011
   3.7300000000000028E-002    -1.1140570237155867E-011
   3.8400000000000017E-002    -1.2862171180558213E-012
   3.9500000000000007E-002     1.4497673027358271E-011
   4.0600000000000025E-002     3.1919744625241719E-011
   4.1700000000000015E-002     4.3917303821361386E-011
   4.2800000000000005E-002     4.2567924879444163E-011
   4.3900000000000022E-002     2.2160799237336271E-011
   4.5000000000000012E-002    -1.7460262402568816E-011
   4.6100000000000002E-002    -6.8601416214342237E-011
   4.7200000000000020E-002    -1.1579948111517524E-010
   4.8300000000000010E-002    -1.3905936124825047E-010
   4.9400000000000027E-002    -1.1998896320974950E-010
   5.0500000000000017E-002    -4.9327073675664579E-011
   5.1600000000000007E-002     6.6642469320754572E-011
   5.2700000000000025E-002     2.0359317010054667E-010
   5.3800000000000014E-002     3.2269015237673671E-010
   5.4900000000000004E-002     3.8061057083815797E-010
   5.6000000000000022E-002     3.4424313399838979E-010
   5.7100000000000012E-002     2.0606107098419812E-010
   5.8200000000000002E-002    -5.1654036950510296E-012
   5.9300000000000019E-002    -2.2340378158514085E-010
   6.0400000000000009E-002    -3.5714214918769471E-010
   6.1500000000000027E-002    -3.1334523864501307E-010
   6.2600000000000017E-002    -2.8925237205434939E-011
   6.3700000000000007E-002     4.9822812542288375E-010
   6.4800000000000024E-002     1.1879330852337944E-009
   6.5900000000000014E-002     1.8741019847112739E-009
   6.7000000000000004E-002     2.3228392542762322E-009
   6.8100000000000022E-002     2.2705486379948070E-009
   6.9200000000000012E-002     1.4743155585250634E-009
   7.0300000000000029E-002    -2.3803387039222912E-010
   7.1400000000000019E-002    -2.9322135830511797E-009
   7.2500000000000009E-002    -6.5584249142602857E-009
   7.3600000000000027E-002    -1.0974739339530970E-008
   7.4700000000000016E-002    -1.6001070690663255E-008
   7.5800000000000006E-002    -2.1492539303835656E-008
   7.6900000000000024E-002    -2.7415772763106361E-008
   7.8000000000000014E-002    -3.3909760333017402E-008
   7.9100000000000004E-002    -4.1316784660239136E-008
   8.0200000000000021E-002    -5.0177195731748725E-008
   8.1300000000000011E-002    -6.1191954614514543E-008
   8.2400000000000029E-002    -7.5165935697896202E-008
   8.3500000000000019E-002    -9.2952198826878885E-008
   8.4600000000000009E-002    -1.1541658295755042E-007
   8.5700000000000026E-002    -1.4344072951644193E-007
   8.6800000000000016E-002    -1.7796399731651036E-007
   8.7900000000000006E-002    -2.2005988853379677E-007
   8.9000000000000024E-002    -2.7102868216388742E-007
   9.0100000000000013E-002    -3.3248628028559324E-007
   9.1200000000000003E-002    -4.0642751741870597E-007
   9.2300000000000021E-002    -4.9525840495334705E-007
   9.3400000000000011E-002    -6.0180195760040078E-007
   9.4500000000000028E-002    -7.2929691441458999E-007
   9.5600000000000018E-002    -8.8139694298661198E-007
   9.6700000000000008E-002    -1.0621928367982036E-006
   9.7800000000000026E-002    -1.2762550340994494E-006
   9.8900000000000016E-002    -1.5287371297745267E-006
  0.10000000000000001         -1.8254779661219800E-006
  0.10110000000000002         -2.1730929802288301E-006
  0.10220000000000001         -2.5790482141019311E-006
  0.10330000000000003         -3.0516864626406459E-006
  0.10440000000000002         -3.6002754768560408E-006
  0.10550000000000001         -4.2349856812506914E-006
  0.10660000000000003         -4.9668178689898923E-006
  0.10770000000000002         -5.8076007007912267E-006
  0.10880000000000001         -6.7700007093662862E-006
  0.10990000000000003         -7.8675248005311005E-006
  0.11100000000000002         -9.1144829639233649E-006
  0.11210000000000001         -1.0525986908760387E-005
  0.11320000000000002         -1.2117773621866945E-005
  0.11430000000000001         -1.3906190361012705E-005
  0.11540000000000003         -1.5907982742646709E-005
  0.11650000000000002         -1.8139908206649125E-005
  0.11760000000000001         -2.0618630514945835E-005
  0.11870000000000003         -2.3360238628811203E-005
  0.11980000000000002         -2.6380010240245610E-005
  0.12090000000000001         -2.9691896997974254E-005
  0.12200000000000003         -3.3308067941106856E-005
  0.12310000000000001         -3.7238296499708667E-005
  0.12420000000000003         -4.1489784052828327E-005
  0.12530000000000002         -4.6066365030128509E-005
  0.12640000000000001         -5.0967671995749697E-005
  0.12750000000000003         -5.6188997405115515E-005
  0.12860000000000002         -6.1719918448943645E-005
  0.12970000000000001         -6.7544315243139863E-005
  0.13080000000000003         -7.3639610491227359E-005
  0.13190000000000002         -7.9976256529334933E-005
  0.13300000000000001         -8.6516127339564264E-005
  0.13410000000000000         -9.3213864602148533E-005
  0.13520000000000004         -1.0001478221965954E-004
  0.13630000000000003         -1.0685465531423688E-004
  0.13740000000000002         -1.1366088438080624E-004
  0.13850000000000001         -1.2035067629767582E-004
  0.13960000000000000         -1.2683322711382061E-004
  0.14070000000000005         -1.3300812861416489E-004
  0.14180000000000004         -1.3876662706024945E-004
  0.14290000000000003         -1.4399220526684076E-004
  0.14400000000000002         -1.4856290363240987E-004
  0.14510000000000001         -1.5235073806252331E-004
  0.14620000000000000         -1.5522431931458414E-004
  0.14730000000000004         -1.5704927500337362E-004
  0.14840000000000003         -1.5769248420838267E-004
  0.14950000000000002         -1.5702261589467525E-004
  0.15060000000000001         -1.5491231170017272E-004
  0.15170000000000000         -1.5123948105610907E-004
  0.15280000000000005         -1.4589367492590100E-004
  0.15390000000000004         -1.3877567835152149E-004
  0.15500000000000003         -1.2980283645447344E-004
  0.15610000000000002         -1.1890922178281471E-004
  0.15720000000000001         -1.0604925046209246E-004
  0.15830000000000000         -9.1199617600068450E-005
  0.15940000000000004         -7.4365292675793171E-005
  0.16050000000000003         -5.5575408623553813E-005
  0.16160000000000002         -3.4887671063188463E-005
  0.16270000000000001         -1.2391542441037018E-005
  0.16380000000000000          1.1791616998380050E-005
  0.16490000000000005          3.7511552363866940E-005
  0.16600000000000004          6.4585532527416945E-005
  0.16710000000000003          9.2801885330118239E-005
  0.16820000000000002          1.2191800487926230E-004
  0.16930000000000001          1.5166449884418398E-004
  0.17040000000000000          1.8174984143115580E-004
  0.17150000000000004          2.1186267258599401E-004
  0.17260000000000003          2.4167398805730045E-004
  0.17370000000000002          2.7084274915978312E-004
  0.17480000000000001          2.9901947709731758E-004
  0.17590000000000000          3.2585221924819052E-004
  0.17700000000000005          3.5099216620437801E-004
  0.17810000000000004          3.7409982178360224E-004
  0.17920000000000003          3.9485012530349195E-004
  0.18030000000000002          4.1293812682852149E-004
  0.18140000000000001          4.2808335274457932E-004
  0.18250000000000000          4.4003495713695884E-004
  0.18360000000000004          4.4857829925604165E-004
  0.18470000000000003          4.5354032772593200E-004
  0.18580000000000002          4.5479182153940201E-004
  0.18690000000000001          4.5224910718388855E-004
  0.18800000000000000          4.4587606680579484E-004
  0.18910000000000005          4.3568605906330049E-004
  0.19020000000000004          4.2174223926849663E-004
  0.19130000000000003          4.0416029514744878E-004
  0.19240000000000002          3.8310448871925473E-004
  0.19350000000000001          3.5878576454706490E-004
  0.19460000000000005          3.3145523048005998E-004
  0.19570000000000004          3.0140645685605705E-004
  0.19680000000000003          2.6896814233623445E-004
  0.19790000000000002          2.3449689615517855E-004
  0.19900000000000001          1.9837687432300299E-004
  0.20010000000000000          1.6100941866170615E-004
  0.20120000000000005          1.2280738155823201E-004
  0.20230000000000004          8.4186147432774305E-005
  0.20340000000000003          4.5562221202999353E-005
  0.20450000000000002          7.3459686973365024E-006
  0.20560000000000000         -3.0063545636949129E-005
  0.20670000000000005         -6.6291257098782808E-005
  0.20780000000000004         -1.0098605707753450E-004
  0.20890000000000003         -1.3382697943598032E-004
