 -0.12000000000000000          0.0000000000000000
 -0.11889999999999999          0.0000000000000000
 -0.11780000000000000          0.0000000000000000
 -0.11670000000000000          0.0000000000000000
 -0.11559999999999999          0.0000000000000000
 -0.11449999999999999          0.0000000000000000
 -0.11340000000000000         -1.0370384665327475E-019
 -0.11230000000000000         -4.6409876227256865E-020
 -0.11119999999999999          8.2720842650112477E-019
 -0.11009999999999999          8.0862028226977456E-019
 -0.10900000000000000         -2.4883402283185032E-018
 -0.10790000000000000         -2.5798934056964849E-018
 -0.10679999999999999          4.4458095879805804E-018
 -0.10569999999999999         -8.2915699519060062E-018
 -0.10460000000000000         -4.1711803306570549E-017
 -0.10349999999999999          3.4793552522030194E-017
 -0.10239999999999999          2.8669153588801880E-016
 -0.10130000000000000          2.5638893219999620E-016
 -0.10020000000000000         -6.8406153180152721E-016
  -9.9099999999999994E-002    -1.7783005682559623E-015
  -9.7999999999999990E-002    -6.4952386925635152E-016
  -9.6899999999999986E-002     3.2767259923878163E-015
  -9.5799999999999996E-002     5.7871662648666111E-015
  -9.4699999999999993E-002     2.2170111188909601E-015
  -9.3599999999999989E-002    -5.0691186477872484E-015
  -9.2499999999999999E-002    -9.9055200755140613E-015
  -9.1399999999999995E-002    -1.3656571601111840E-014
  -9.0299999999999991E-002    -1.9275620460673312E-014
  -8.9200000000000002E-002    -7.1703193987231011E-015
  -8.8099999999999984E-002     5.4147827985729508E-014
  -8.6999999999999994E-002     1.3642907604419913E-013
  -8.5899999999999990E-002     1.1752887075014429E-013
  -8.4799999999999986E-002    -9.3426372053170142E-014
  -8.3699999999999997E-002    -3.7053083583142576E-013
  -8.2599999999999993E-002    -4.1808898465674205E-013
  -8.1499999999999989E-002    -1.0171621574531220E-013
  -8.0399999999999999E-002     3.5628268456149026E-013
  -7.9299999999999995E-002     6.6289031555588629E-013
  -7.8199999999999992E-002     8.2279587873893001E-013
  -7.7100000000000002E-002     9.0005504134807457E-013
  -7.5999999999999984E-002     4.4932571660778742E-013
  -7.4899999999999994E-002    -1.1745863613341068E-012
  -7.3799999999999991E-002    -3.4557834024950829E-012
  -7.2699999999999987E-002    -4.2359778879008658E-012
  -7.1599999999999997E-002    -1.7172206582052874E-012
  -7.0499999999999993E-002     2.9525650587641783E-012
  -6.9399999999999989E-002     6.3249388365660408E-012
  -6.8300000000000000E-002     6.5535099048885659E-012
  -6.7199999999999996E-002     5.3395517174426033E-012
  -6.6099999999999992E-002     4.4603648031993348E-012
  -6.5000000000000002E-002     1.5831603606200617E-012
  -6.3899999999999985E-002    -7.2067816124510298E-012
  -6.2799999999999995E-002    -1.9912894250184721E-011
  -6.1699999999999991E-002    -2.7178292602569876E-011
  -6.0599999999999994E-002    -2.1546889272805458E-011
  -5.9499999999999990E-002    -6.1066100093265518E-012
  -5.8399999999999994E-002     1.0584709324301667E-011
  -5.7299999999999990E-002     2.7202143315641081E-011
  -5.6199999999999986E-002     5.0021015107759581E-011
  -5.5099999999999996E-002     7.6653031144680028E-011
  -5.3999999999999992E-002     8.5816131978333487E-011
  -5.2899999999999989E-002     5.3101415625755877E-011
  -5.1799999999999985E-002    -2.2090562018517446E-011
  -5.0699999999999995E-002    -1.1234462665710154E-010
  -4.9599999999999991E-002    -1.8649702615558539E-010
  -4.8499999999999988E-002    -2.2949642186631536E-010
  -4.7399999999999998E-002    -2.3298971085772280E-010
  -4.6299999999999994E-002    -1.7724323397860786E-010
  -4.5199999999999990E-002    -3.9997276324310604E-011
  -4.4099999999999986E-002     1.7328681545247804E-010
  -4.2999999999999997E-002     4.1959866137197821E-010
  -4.1899999999999993E-002     6.4424421353237449E-010
  -4.0799999999999989E-002     8.0668854929299982E-010
  -3.9699999999999985E-002     8.7561802253333099E-010
  -3.8599999999999995E-002     8.1776579952119732E-010
  -3.7499999999999992E-002     6.2022081914747673E-010
  -3.6399999999999988E-002     3.2891583900962473E-010
  -3.5299999999999984E-002     4.5457870107012965E-011
  -3.4199999999999994E-002    -1.2486589540117166E-010
  -3.3099999999999991E-002    -1.0975974296112412E-010
  -3.1999999999999987E-002     1.4636117318111985E-010
  -3.0899999999999997E-002     6.9390487800191636E-010
  -2.9799999999999993E-002     1.5184250523603282E-009
  -2.8699999999999989E-002     2.4584141389283332E-009
  -2.7599999999999986E-002     3.2189622078959701E-009
  -2.6499999999999996E-002     3.4918223867919096E-009
  -2.5399999999999992E-002     3.0425144625922940E-009
  -2.4299999999999988E-002     1.6652109691150940E-009
  -2.3199999999999985E-002    -8.9586416063269780E-010
  -2.2099999999999995E-002    -4.8898272098085727E-009
  -2.0999999999999991E-002    -1.0389062943261251E-008
  -1.9899999999999987E-002    -1.7221786663412786E-008
  -1.8799999999999983E-002    -2.5130816538876388E-008
  -1.7699999999999994E-002    -3.4010241733994917E-008
  -1.6599999999999990E-002    -4.3996287502068299E-008
  -1.5499999999999986E-002    -5.5407792132200484E-008
  -1.4399999999999996E-002    -6.8721291768270021E-008
  -1.3299999999999992E-002    -8.4655937371280743E-008
  -1.2199999999999989E-002    -1.0424356844396243E-007
  -1.1099999999999985E-002    -1.2877180211035011E-007
  -9.9999999999999950E-003    -1.5969094135925843E-007
  -8.8999999999999913E-003    -1.9860898703427665E-007
  -7.7999999999999875E-003    -2.4732585757192282E-007
  -6.6999999999999837E-003    -3.0777545134696993E-007
  -5.5999999999999939E-003    -3.8194298213056754E-007
  -4.4999999999999901E-003    -4.7200052222251543E-007
  -3.3999999999999864E-003    -5.8066461861017160E-007
  -2.2999999999999826E-003    -7.1144188495964045E-007
  -1.1999999999999927E-003    -8.6852088543309947E-007
  -9.9999999999988987E-005    -1.0565522643446457E-006
   1.0000000000000148E-003    -1.2807626035282738E-006
   2.1000000000000185E-003    -1.5473543726329808E-006
   3.2000000000000084E-003    -1.8637244920682861E-006
   4.3000000000000121E-003    -2.2382873794413172E-006
   5.4000000000000159E-003    -2.6801260446518427E-006
   6.5000000000000058E-003    -3.1991282867238624E-006
   7.6000000000000234E-003    -3.8063847114244709E-006
   8.7000000000000133E-003    -4.5145043259253725E-006
   9.8000000000000032E-003    -5.3374478738987818E-006
   1.0900000000000021E-002    -6.2903163779992610E-006
   1.2000000000000011E-002    -7.3894339038815815E-006
   1.3100000000000001E-002    -8.6525242295465432E-006
   1.4200000000000018E-002    -1.0098953680426348E-005
   1.5300000000000008E-002    -1.1749643817893229E-005
   1.6400000000000026E-002    -1.3626910003949888E-005
   1.7500000000000016E-002    -1.5754370906506665E-005
   1.8600000000000005E-002    -1.8156684745918028E-005
   1.9700000000000023E-002    -2.0859271899098530E-005
   2.0800000000000013E-002    -2.3887778297648765E-005
   2.1900000000000003E-002    -2.7267760742688552E-005
   2.3000000000000020E-002    -3.1024610507301986E-005
   2.4100000000000010E-002    -3.5183653380954638E-005
   2.5200000000000000E-002    -3.9768743590684608E-005
   2.6300000000000018E-002    -4.4801210606237873E-005
   2.7400000000000008E-002    -5.0300048314966261E-005
   2.8500000000000025E-002    -5.6281471188412979E-005
   2.9600000000000015E-002    -6.2758881540503353E-005
   3.0700000000000005E-002    -6.9740788603667170E-005
   3.1800000000000023E-002    -7.7229691669344902E-005
   3.2900000000000013E-002    -8.5220352048054338E-005
   3.4000000000000002E-002    -9.3700073193758726E-005
   3.5100000000000020E-002    -1.0264723096042871E-004
   3.6200000000000010E-002    -1.1203000030945987E-004
   3.7300000000000028E-002    -1.2180607882328331E-004
   3.8400000000000017E-002    -1.3192120241001248E-004
   3.9500000000000007E-002    -1.4230984379537404E-004
   4.0600000000000025E-002    -1.5289265138562769E-004
   4.1700000000000015E-002    -1.6357634740415961E-004
   4.2800000000000005E-002    -1.7425448459107429E-004
   4.3900000000000022E-002    -1.8480568542145193E-004
   4.5000000000000012E-002    -1.9509663979988545E-004
   4.6100000000000002E-002    -2.0498019875958562E-004
   4.7200000000000020E-002    -2.1429521439131349E-004
   4.8300000000000010E-002    -2.2286706371232867E-004
   4.9400000000000027E-002    -2.3051169409882277E-004
   5.0500000000000017E-002    -2.3703568149358034E-004
   5.1600000000000007E-002    -2.4224136723205447E-004
   5.2700000000000025E-002    -2.4592570844106376E-004
   5.3800000000000014E-002    -2.4788427981548011E-004
   5.4900000000000004E-002    -2.4791478062979877E-004
   5.6000000000000022E-002    -2.4581979960203171E-004
   5.7100000000000012E-002    -2.4140834284480661E-004
   5.8200000000000002E-002    -2.3450382286682725E-004
   5.9300000000000019E-002    -2.2494954464491457E-004
   6.0400000000000009E-002    -2.1261062647681683E-004
   6.1500000000000027E-002    -1.9737478578463197E-004
   6.2600000000000017E-002    -1.7915500211529434E-004
   6.3700000000000007E-002    -1.5789967437740415E-004
   6.4800000000000024E-002    -1.3359800504986197E-004
   6.5900000000000014E-002    -1.0627923620631918E-004
   6.7000000000000004E-002    -7.6014286605641246E-005
   6.8100000000000022E-002    -4.2915224184980616E-005
   6.9200000000000012E-002    -7.1417580329580233E-006
   7.0300000000000029E-002     3.1099476473173127E-005
   7.1400000000000019E-002     7.1551832661498338E-005
   7.2500000000000009E-002     1.1391225416446105E-004
   7.3600000000000027E-002     1.5783312846906483E-004
   7.4700000000000016E-002     2.0292501721996814E-004
   7.5800000000000006E-002     2.4876266252249479E-004
   7.6900000000000024E-002     2.9489063308574259E-004
   7.8000000000000014E-002     3.4082416095770895E-004
   7.9100000000000004E-002     3.8605122244916856E-004
   8.0200000000000021E-002     4.3004052713513374E-004
   8.1300000000000011E-002     4.7225833986885846E-004
   8.2400000000000029E-002     5.1218067528679967E-004
   8.3500000000000019E-002     5.4929417092353106E-004
   8.4600000000000009E-002     5.8309157611802220E-004
   8.5700000000000026E-002     6.1308575095608830E-004
   8.6800000000000016E-002     6.3882843824103475E-004
   8.7900000000000006E-002     6.5992021700367332E-004
   8.9000000000000024E-002     6.7601795308291912E-004
   9.0100000000000013E-002     6.8683107383549213E-004
   9.1200000000000003E-002     6.9212692324072123E-004
   9.2300000000000021E-002     6.9173821248114109E-004
   9.3400000000000011E-002     6.8556971382349730E-004
   9.4500000000000028E-002     6.7360349930822849E-004
   9.5600000000000018E-002     6.5589859150350094E-004
   9.6700000000000008E-002     6.3259538728743792E-004
   9.7800000000000026E-002     6.0391076840460300E-004
   9.8900000000000016E-002     5.7012250181287527E-004
  0.10000000000000001          5.3156743524596095E-004
  0.10110000000000002          4.8864964628592134E-004
  0.10220000000000001          4.4184314901940525E-004
  0.10330000000000003          3.9168004877865314E-004
  0.10440000000000002          3.3872621133923531E-004
  0.10550000000000001          2.8356109396554530E-004
  0.10660000000000003          2.2678713139612228E-004
  0.10770000000000002          1.6902614152058959E-004
  0.10880000000000001          1.1091567284893245E-004
  0.10990000000000003          5.3085655963514000E-005
  0.11100000000000002         -3.8561306610063184E-006
  0.11210000000000001         -5.9328081988496706E-005
  0.11320000000000002         -1.1278640886303037E-004
  0.11430000000000001         -1.6372697427868843E-004
  0.11540000000000003         -2.1169128012843430E-004
  0.11650000000000002         -2.5626629940234125E-004
  0.11760000000000001         -2.9709184309467673E-004
  0.11870000000000003         -3.3387306029908359E-004
  0.11980000000000002         -3.6638998426496983E-004
  0.12090000000000001         -3.9449238101951778E-004
  0.12200000000000003         -4.1808249079622328E-004
  0.12310000000000001         -4.3711203034035861E-004
  0.12420000000000003         -4.5159514411352575E-004
  0.12530000000000002         -4.6161533100530505E-004
  0.12640000000000001         -4.6731522888876498E-004
  0.12750000000000003         -4.6887929784134030E-004
  0.12860000000000002         -4.6652549644932151E-004
  0.12970000000000001         -4.6051017125137150E-004
  0.13080000000000003         -4.5112328371033072E-004
  0.13190000000000002         -4.3868343345820904E-004
  0.13300000000000001         -4.2352423770353198E-004
  0.13410000000000000         -4.0599072235636413E-004
  0.13520000000000004         -3.8643580046482384E-004
  0.13630000000000003         -3.6521322908811271E-004
  0.13740000000000002         -3.4266777220182121E-004
  0.13850000000000001         -3.1913275597617030E-004
  0.13960000000000000         -2.9493251349776983E-004
  0.14070000000000005         -2.7037865947932005E-004
  0.14180000000000004         -2.4575807037763298E-004
  0.14290000000000003         -2.2132400772534311E-004
  0.14400000000000002         -1.9730407802853733E-004
  0.14510000000000001         -1.7391052097082138E-004
  0.14620000000000000         -1.5133715351112187E-004
  0.14730000000000004         -1.2974305718671530E-004
  0.14840000000000003         -1.0924666275968775E-004
  0.14950000000000002         -8.9939036115538329E-005
  0.15060000000000001         -7.1900460170581937E-005
  0.15170000000000000         -5.5195847380673513E-005
  0.15280000000000005         -3.9859369280748069E-005
  0.15390000000000004         -2.5890480173984542E-005
  0.15500000000000003         -1.3273760487209074E-005
  0.15610000000000002         -1.9901556242984952E-006
  0.15720000000000001          7.9904057201929390E-006
  0.15830000000000000          1.6719672203180380E-005
  0.15940000000000004          2.4263572413474321E-005
  0.16050000000000003          3.0688886909047142E-005
  0.16160000000000002          3.6059660487808287E-005
  0.16270000000000001          4.0450820961268619E-005
  0.16380000000000000          4.3950531107839197E-005
  0.16490000000000005          4.6645640395581722E-005
  0.16600000000000004          4.8607962526148185E-005
  0.16710000000000003          4.9905516789294779E-005
  0.16820000000000002          5.0617636588867754E-005
  0.16930000000000001          5.0830549298552796E-005
  0.17040000000000000          5.0615177315194160E-005
  0.17150000000000004          5.0021437346003950E-005
  0.17260000000000003          4.9099140596808866E-005
  0.17370000000000002          4.7913854359649122E-005
  0.17480000000000001          4.6533386921510100E-005
  0.17590000000000000          4.5002194383414462E-005
  0.17700000000000005          4.3341424316167831E-005
  0.17810000000000004          4.1575753130018711E-005
  0.17920000000000003          3.9749349525664002E-005
  0.18030000000000002          3.7907309888396412E-005
  0.18140000000000001          3.6071760405320674E-005
  0.18250000000000000          3.4246440918650478E-005
  0.18360000000000004          3.2441257644677535E-005
  0.18470000000000003          3.0678118491778150E-005
  0.18580000000000002          2.8973552616662346E-005
  0.18690000000000001          2.7328655050951056E-005
  0.18800000000000000          2.5743975129444152E-005
  0.18910000000000005          2.4233278963947669E-005
  0.19020000000000004          2.2810263544670306E-005
  0.19130000000000003          2.1467814804054797E-005
  0.19240000000000002          2.0185245375614613E-005
  0.19350000000000001          1.8959239241667092E-005
  0.19460000000000005          1.7811255020205863E-005
  0.19570000000000004          1.6757971025072038E-005
  0.19680000000000003          1.5784222341608256E-005
  0.19790000000000002          1.4859747352602426E-005
  0.19900000000000001          1.3975974979985040E-005
  0.20010000000000000          1.3151105122233275E-005
  0.20120000000000005          1.2398305443639401E-005
  0.20230000000000004          1.1704773896781262E-005
  0.20340000000000003          1.1050487046304625E-005
  0.20450000000000002          1.0434259820613079E-005
  0.20560000000000000          9.8669770522974432E-006
  0.20670000000000005          9.3456146714743227E-006
  0.20780000000000004          8.8521492216386832E-006
  0.20890000000000003          8.3796621765941381E-006
