 -0.12000000000000000          0.0000000000000000
 -0.11889999999999999          0.0000000000000000
 -0.11780000000000000          0.0000000000000000
 -0.11670000000000000          0.0000000000000000
 -0.11559999999999999          0.0000000000000000
 -0.11449999999999999          0.0000000000000000
 -0.11340000000000000          0.0000000000000000
 -0.11230000000000000          0.0000000000000000
 -0.11119999999999999          0.0000000000000000
 -0.11009999999999999          0.0000000000000000
 -0.10900000000000000          0.0000000000000000
 -0.10790000000000000          0.0000000000000000
 -0.10679999999999999          0.0000000000000000
 -0.10569999999999999          0.0000000000000000
 -0.10460000000000000          0.0000000000000000
 -0.10349999999999999          0.0000000000000000
 -0.10239999999999999          0.0000000000000000
 -0.10130000000000000          0.0000000000000000
 -0.10020000000000000          0.0000000000000000
  -9.9099999999999994E-002     0.0000000000000000
  -9.7999999999999990E-002     1.5257050413383422E-038
  -9.6899999999999986E-002    -1.7992601656488049E-037
  -9.5799999999999996E-002     1.0898453071245975E-037
  -9.4699999999999993E-002     2.6624939871476675E-036
  -9.3599999999999989E-002    -3.9959697851653668E-036
  -9.2499999999999999E-002    -2.9494987102195098E-035
  -9.1399999999999995E-002     5.4106788148025801E-035
  -9.0299999999999991E-002     2.8228080272468997E-034
  -8.9200000000000002E-002    -4.9113536101572350E-034
  -8.8099999999999984E-002    -2.4500343862769224E-033
  -8.6999999999999994E-002     3.2310530367724050E-033
  -8.5899999999999990E-002     1.9282484600574390E-032
  -8.4799999999999986E-002    -1.3873777953051802E-032
  -8.3699999999999997E-002    -1.3467858594814552E-031
  -8.2599999999999993E-002     7.0791642005937075E-033
  -8.1499999999999989E-002     8.1077597554180994E-031
  -8.0399999999999999E-002     5.3403658157291986E-031
  -7.9299999999999995E-002    -4.0412611809518426E-030
  -7.8199999999999992E-002    -6.0495133457158649E-030
  -7.7100000000000002E-002     1.5387379791020879E-029
  -7.5999999999999984E-002     4.3040104618182631E-029
  -7.4899999999999994E-002    -3.3347528144579137E-029
  -7.3799999999999991E-002    -2.2751768767962020E-028
  -7.2699999999999987E-002    -7.3391779521160045E-029
  -7.1599999999999997E-002     8.9952830649940227E-028
  -7.0499999999999993E-002     1.2210283180513329E-027
  -6.9399999999999989E-002    -2.3506845491581077E-027
  -6.8300000000000000E-002    -7.2753960394051332E-027
  -6.7199999999999996E-002     1.0803647504821056E-027
  -6.6099999999999992E-002     2.8146800535830672E-026
  -6.5000000000000002E-002     2.7526290559652393E-026
  -6.3899999999999985E-002    -6.7843781971164652E-026
  -6.2799999999999995E-002    -1.7226678527244310E-025
  -6.1699999999999991E-002     2.6997155944499577E-026
  -6.0599999999999994E-002     5.9450337684872855E-025
  -5.9499999999999990E-002     6.1972478840664816E-025
  -5.8399999999999994E-002    -1.1094572311540650E-024
  -5.7299999999999990E-002    -3.2302067298850108E-024
  -5.6199999999999986E-002    -6.4326065072914335E-025
  -5.5099999999999996E-002     8.6069978573241160E-024
  -5.3999999999999992E-002     1.2517666143291456E-023
  -5.2899999999999989E-002    -8.2880124839671372E-024
  -5.1799999999999985E-002    -4.4519658642404543E-023
  -5.0699999999999995E-002    -3.4456923691856350E-023
  -4.9599999999999991E-002     7.1907505099266780E-023
  -4.8499999999999988E-002     1.8037397999009613E-022
  -4.7399999999999998E-002     5.4532395588779829E-023
  -4.6299999999999994E-002    -3.6871638913423626E-022
  -4.5199999999999990E-002    -6.1462048916296457E-022
  -4.4099999999999986E-002     4.6968090410149690E-023
  -4.2999999999999997E-002     1.4654903043989661E-021
  -4.1899999999999993E-002     1.8647013803128562E-021
  -4.0799999999999989E-002    -6.7264531081867714E-022
  -3.9699999999999985E-002    -4.9037124637347457E-021
  -3.8599999999999995E-002    -5.3731180743129822E-021
  -3.7499999999999992E-002     2.5210120449788222E-021
  -3.6399999999999988E-002     1.4352152314466160E-020
  -3.5299999999999984E-002     1.5697133450193178E-020
  -3.4199999999999994E-002    -4.8019292626091595E-021
  -3.3099999999999991E-002    -3.7193840201323040E-020
  -3.1999999999999987E-002    -4.7783299774476063E-020
  -3.0899999999999997E-002    -4.6137359797305423E-021
  -2.9799999999999993E-002     8.3212321058348808E-020
  -2.8699999999999989E-002     1.4621911421856188E-019
  -2.7599999999999986E-002     8.5385492548587537E-020
  -2.6499999999999996E-002    -1.4169950274914871E-019
  -2.5399999999999992E-002    -4.1784118744442385E-019
  -2.4299999999999988E-002    -4.4558358441853357E-019
  -2.3199999999999985E-002     6.7234946248323480E-020
  -2.2099999999999995E-002     1.0197740051519382E-018
  -2.0999999999999991E-002     1.6366831346448783E-018
  -1.9899999999999987E-002     8.0437839669102606E-019
  -1.8799999999999983E-002    -1.8127948501410932E-018
  -1.7699999999999994E-002    -4.6456936471009568E-018
  -1.6599999999999990E-002    -4.5247676997615234E-018
  -1.5499999999999986E-002     8.5959006594073814E-019
  -1.4399999999999996E-002     9.7221440797307404E-018
  -1.3299999999999992E-002     1.5263411286791834E-017
  -1.2199999999999989E-002     9.3279081454267423E-018
  -1.1099999999999985E-002    -1.0540288571272239E-017
  -9.9999999999999950E-003    -3.5327997224523155E-017
  -8.8999999999999913E-003    -4.5425122955439497E-017
  -7.7999999999999875E-003    -2.0663608630646297E-017
  -6.6999999999999837E-003     4.2963168754685669E-017
  -5.5999999999999939E-003     1.1818900852456489E-016
  -4.4999999999999901E-003     1.4611542009774315E-016
  -3.3999999999999864E-003     6.2949768104265491E-017
  -2.2999999999999826E-003    -1.4690804441302616E-016
  -1.1999999999999927E-003    -3.9762744098991451E-016
  -9.9999999999988987E-005    -4.9734137715055243E-016
   1.0000000000000148E-003    -2.3487289244141809E-016
   2.1000000000000185E-003     4.4985189262758884E-016
   3.2000000000000084E-003     1.2979852415594909E-015
   4.3000000000000121E-003     1.7106235886824093E-015
   5.4000000000000159E-003     9.9630090486771579E-016
   6.5000000000000058E-003    -1.1249294224136225E-015
   7.6000000000000234E-003    -3.9870971616244501E-015
   8.7000000000000133E-003    -5.8213698787932134E-015
   9.8000000000000032E-003    -4.3668546426470223E-015
   1.0900000000000021E-002     1.6991561390051254E-015
   1.2000000000000011E-002     1.1063661448031288E-014
   1.3100000000000001E-002     1.8930391854229088E-014
   1.4200000000000018E-002     1.8214281401500096E-014
   1.5300000000000008E-002     3.2195696914147538E-015
   1.6400000000000026E-002    -2.5259511821605629E-014
   1.7500000000000016E-002    -5.6121519784917487E-014
   1.8600000000000005E-002    -6.8897544733183963E-014
   1.9700000000000023E-002    -4.1805636372387739E-014
   2.0800000000000013E-002     3.4091524362626219E-014
   2.1900000000000003E-002     1.4035991878318110E-013
   2.3000000000000020E-002     2.2576023353277491E-013
   2.4100000000000010E-002     2.1904804630313440E-013
   2.5200000000000000E-002     6.2692513398514282E-014
   2.6300000000000018E-002    -2.4159707979858058E-013
   2.7400000000000008E-002    -5.9720902268606268E-013
   2.8500000000000025E-002    -8.1451815778232906E-013
   2.9600000000000015E-002    -6.7051675626747520E-013
   3.0700000000000005E-002    -2.2924983986887318E-014
   3.1800000000000023E-002     1.0582410598855563E-012
   3.2900000000000013E-002     2.2083185974297592E-012
   3.4000000000000002E-002     2.8079951558401817E-012
   3.5100000000000020E-002     2.1872783532300710E-012
   3.6200000000000010E-002    -3.4516047111394707E-014
   3.7300000000000028E-002    -3.5873426625088189E-012
   3.8400000000000017E-002    -7.3472582184930246E-012
   3.9500000000000007E-002    -9.4718382442904314E-012
   4.0600000000000025E-002    -7.9644494124786469E-012
   4.1700000000000015E-002    -1.5850265978195610E-012
   4.2800000000000005E-002     9.1780281291642396E-012
   4.3900000000000022E-002     2.1508237899037219E-011
   4.5000000000000012E-002     3.0469501921537301E-011
   4.6100000000000002E-002     3.0261342043313988E-011
   4.7200000000000020E-002     1.6384334861063721E-011
   4.8300000000000010E-002    -1.1866288333883812E-011
   4.9400000000000027E-002    -4.9503026677832906E-011
   5.0500000000000017E-002    -8.5532116111952661E-011
   5.1600000000000007E-002    -1.0488895169080692E-010
   5.2700000000000025E-002    -9.2614159397097495E-011
   5.3800000000000014E-002    -3.9413326768933388E-011
   5.4900000000000004E-002     5.2987034898643870E-011
   5.6000000000000022E-002     1.6859247331524330E-010
   5.7100000000000012E-002     2.7762653287410899E-010
   5.8200000000000002E-002     3.4149652550219400E-010
   5.9300000000000019E-002     3.2173474995289553E-010
   6.0400000000000009E-002     1.9113877147702851E-010
   6.1500000000000027E-002    -5.5550505168033837E-011
   6.2600000000000017E-002    -3.9428843523481305E-010
   6.3700000000000007E-002    -7.6993833530991651E-010
   6.4800000000000024E-002    -1.1010543587985921E-009
   6.5900000000000014E-002    -1.2906433699555464E-009
   6.7000000000000004E-002    -1.2408651883788480E-009
   6.8100000000000022E-002    -8.6860008075007045E-010
   6.9200000000000012E-002    -1.1850403991431335E-010
   7.0300000000000029E-002     1.0295549968120099E-009
   7.1400000000000019E-002     2.5608444254032747E-009
   7.2500000000000009E-002     4.4347530092636589E-009
   7.3600000000000027E-002     6.6016130340074142E-009
   7.4700000000000016E-002     9.0249132611575078E-009
   7.5800000000000006E-002     1.1705040492415719E-008
   7.6900000000000024E-002     1.4699818251528995E-008
   7.8000000000000014E-002     1.8137571444754030E-008
   7.9100000000000004E-002     2.2220213224954932E-008
   8.0200000000000021E-002     2.7216167097776633E-008
   8.1300000000000011E-002     3.3446191594066477E-008
   8.2400000000000029E-002     4.1267568917646713E-008
   8.3500000000000019E-002     5.1063505424053801E-008
   8.4600000000000009E-002     6.3243291492653952E-008
   8.5700000000000026E-002     7.8256256585973460E-008
   8.6800000000000016E-002     9.6618144596050115E-008
   8.7900000000000006E-002     1.1894523055389072E-007
   8.9000000000000024E-002     1.4598651887354208E-007
   9.0100000000000013E-002     1.7865117740711867E-007
   9.1200000000000003E-002     2.1802310357088572E-007
   9.2300000000000021E-002     2.6536773134466785E-007
   9.3400000000000011E-002     3.2213557688010042E-007
   9.4500000000000028E-002     3.8997603724055807E-007
   9.5600000000000018E-002     4.7075835141185962E-007
   9.6700000000000008E-002     5.6660707059563720E-007
   9.7800000000000026E-002     6.7995262043041294E-007
   9.8900000000000016E-002     8.1357740100429510E-007
  0.10000000000000001          9.7065242243843386E-007
  0.10110000000000002          1.1547750773388543E-006
  0.10220000000000001          1.3699708460990223E-006
  0.10330000000000003          1.6207009139179718E-006
  0.10440000000000002          1.9118613181490218E-006
  0.10550000000000001          2.2488056856673211E-006
  0.10660000000000003          2.6373359105491545E-006
  0.10770000000000002          3.0837618396617472E-006
  0.10880000000000001          3.5949190078099491E-006
  0.10990000000000003          4.1781672734941822E-006
  0.11100000000000002          4.8413794502266683E-006
  0.11210000000000001          5.5928571782715153E-006
  0.11320000000000002          6.4413075051561464E-006
  0.11430000000000001          7.3957194217655342E-006
  0.11540000000000003          8.4652974692289717E-006
  0.11650000000000002          9.6593157650204375E-006
  0.11760000000000001          1.0986988854710944E-005
  0.11870000000000003          1.2457350749173202E-005
  0.11980000000000002          1.4079131688049529E-005
  0.12090000000000001          1.5860417988733388E-005
  0.12200000000000003          1.7808550182962790E-005
  0.12310000000000001          1.9929742848034948E-005
  0.12420000000000003          2.2228663510759361E-005
  0.12530000000000002          2.4708386263228022E-005
  0.12640000000000001          2.7369920644559897E-005
  0.12750000000000003          3.0211771445465274E-005
  0.12860000000000002          3.3229825930902734E-005
  0.12970000000000001          3.6416993680177256E-005
  0.13080000000000003          3.9762529922882095E-005
  0.13190000000000002          4.3252050090814009E-005
  0.13300000000000001          4.6866945922374725E-005
  0.13410000000000000          5.0584207201609388E-005
  0.13520000000000004          5.4376156185753644E-005
  0.13630000000000003          5.8210283896187320E-005
  0.13740000000000002          6.2048755353316665E-005
  0.13850000000000001          6.5849191742017865E-005
  0.13960000000000000          6.9563902798108757E-005
  0.14070000000000005          7.3140348831657320E-005
  0.14180000000000004          7.6521610026247799E-005
  0.14290000000000003          7.9646393714938313E-005
  0.14400000000000002          8.2449434557929635E-005
  0.14510000000000001          8.4862578660249710E-005
  0.14620000000000000          8.6814397946000099E-005
  0.14730000000000004          8.8232518464792520E-005
  0.14840000000000003          8.9044457126874477E-005
  0.14950000000000002          8.9178451162297279E-005
  0.15060000000000001          8.8564767793286592E-005
  0.15170000000000000          8.7135347712319344E-005
  0.15280000000000005          8.4827821410726756E-005
  0.15390000000000004          8.1585341831669211E-005
  0.15500000000000003          7.7359349234029651E-005
  0.15610000000000002          7.2110291512217373E-005
  0.15720000000000001          6.5807646024040878E-005
  0.15830000000000000          5.8433492085896432E-005
  0.15940000000000004          4.9983093049377203E-005
  0.16050000000000003          4.0465838537784293E-005
  0.16160000000000002          2.9907287171226926E-005
  0.16270000000000001          1.8347382138017565E-005
  0.16380000000000000          5.8424916460353415E-006
  0.16490000000000005         -7.5333737186156213E-006
  0.16600000000000004         -2.1691002984880470E-005
  0.16710000000000003         -3.6523128073895350E-005
  0.16820000000000002         -5.1907845772802830E-005
  0.16930000000000001         -6.7707558628171682E-005
  0.17040000000000000         -8.3773789810948074E-005
  0.17150000000000004         -9.9945114925503731E-005
  0.17260000000000003         -1.1605001782299951E-004
  0.17370000000000002         -1.3191053585615009E-004
  0.17480000000000001         -1.4734276919625700E-004
  0.17590000000000000         -1.6216105723287910E-004
  0.17700000000000005         -1.7618045967537910E-004
  0.17810000000000004         -1.8921913579106331E-004
  0.17920000000000003         -2.0110188052058220E-004
  0.18030000000000002         -2.1166325313970447E-004
  0.18140000000000001         -2.2074971639085561E-004
  0.18250000000000000         -2.2822266328148544E-004
  0.18360000000000004         -2.3396138567477465E-004
  0.18470000000000003         -2.3786578094586730E-004
  0.18580000000000002         -2.3985836014617234E-004
  0.18690000000000001         -2.3988411703612655E-004
  0.18800000000000000         -2.3791381681803614E-004
  0.18910000000000005         -2.3394355957861990E-004
  0.19020000000000004         -2.2799475118517876E-004
  0.19130000000000003         -2.2011648979969323E-004
  0.19240000000000002         -2.1038376144133508E-004
  0.19350000000000001         -1.9889541727025062E-004
  0.19460000000000005         -1.8577491573523730E-004
  0.19570000000000004         -1.7116413800977170E-004
  0.19680000000000003         -1.5522516332566738E-004
  0.19790000000000002         -1.3813799887429923E-004
  0.19900000000000001         -1.2009368947474286E-004
  0.20010000000000000         -1.0129781730938703E-004
  0.20120000000000005         -8.1960570241790265E-005
  0.20230000000000004         -6.2295926909428090E-005
  0.20340000000000003         -4.2517523979768157E-005
  0.20450000000000002         -2.2836438802187331E-005
  0.20560000000000000         -3.4607537600095384E-006
  0.20670000000000005          1.5411093045258895E-005
  0.20780000000000004          3.3592401450732723E-005
  0.20890000000000003          5.0913720770040527E-005
