 -0.12000000000000000          0.0000000000000000
 -0.11889999999999999          0.0000000000000000
 -0.11780000000000000          0.0000000000000000
 -0.11670000000000000          0.0000000000000000
 -0.11559999999999999          0.0000000000000000
 -0.11449999999999999          1.4284272566454691E-015
 -0.11340000000000000         -2.4924151996029865E-015
 -0.11230000000000000         -1.3384939993388648E-014
 -0.11119999999999999          2.1669274583241763E-014
 -0.11009999999999999          9.6478468931352618E-014
 -0.10900000000000000         -6.4762987182255538E-014
 -0.10790000000000000         -5.1346714423708417E-013
 -0.10679999999999999         -1.4715542694977712E-013
 -0.10569999999999999          1.8767448532741593E-012
 -0.10460000000000000          2.3827196726083910E-012
 -0.10349999999999999         -3.7394427832015964E-012
 -0.10239999999999999         -1.1419124326672581E-011
 -0.10130000000000000         -2.0969820931776573E-012
 -0.10020000000000000          2.8348457262183935E-011
  -9.9099999999999994E-002     3.8769619459255722E-011
  -9.7999999999999990E-002    -2.0811784587349003E-011
  -9.6899999999999986E-002    -1.1168242025627606E-010
  -9.5799999999999996E-002    -9.2685907560063896E-011
  -9.4699999999999993E-002     1.0614287920818199E-010
  -9.3599999999999989E-002     3.0103763926092597E-010
  -9.2499999999999999E-002     1.8590765038517532E-010
  -9.1399999999999995E-002    -2.5472474129983880E-010
  -9.0299999999999991E-002    -5.8175564365825494E-010
  -8.9200000000000002E-002    -3.5416372612395719E-010
  -8.8099999999999984E-002     2.7511035116667415E-010
  -8.6999999999999994E-002     6.7017613680775412E-010
  -8.5899999999999990E-002     5.1441351178738159E-010
  -8.4799999999999986E-002     2.1862112120629718E-010
  -8.3699999999999997E-002     2.5128918390571187E-010
  -8.2599999999999993E-002     2.7846500105788152E-010
  -8.1499999999999989E-002    -5.3182985793043258E-010
  -8.0399999999999999E-002    -2.2713591008027834E-009
  -7.9299999999999995E-002    -3.7994576373989730E-009
  -7.8199999999999992E-002    -3.6941329994988337E-009
  -7.7100000000000002E-002    -1.2695934303863510E-009
  -7.5999999999999984E-002     3.6348308807276908E-009
  -7.4899999999999994E-002     1.1205787409096502E-008
  -7.3799999999999991E-002     2.1071231870450902E-008
  -7.2699999999999987E-002     3.1462864313880345E-008
  -7.1599999999999997E-002     4.0369371845372370E-008
  -7.0499999999999993E-002     4.8108038441796452E-008
  -6.9399999999999989E-002     5.7568318112544148E-008
  -6.8300000000000000E-002     7.0786633443731262E-008
  -6.7199999999999996E-002     8.6315402825221099E-008
  -6.6099999999999992E-002     1.0202877120946141E-007
  -6.5000000000000002E-002     1.2042835351167014E-007
  -6.3899999999999985E-002     1.4856044572297833E-007
  -6.2799999999999995E-002     1.9108965432224068E-007
  -6.1699999999999991E-002     2.4523859565306338E-007
  -6.0599999999999994E-002     3.0510221904478385E-007
  -5.9499999999999990E-002     3.7036278399682487E-007
  -5.8399999999999994E-002     4.4808237475990609E-007
  -5.7299999999999990E-002     5.4581528274866287E-007
  -5.6199999999999986E-002     6.6625733552427846E-007
  -5.5099999999999996E-002     8.1032453635998536E-007
  -5.3999999999999992E-002     9.8234568213229068E-007
  -5.2899999999999989E-002     1.1887321988979238E-006
  -5.1799999999999985E-002     1.4335653304442530E-006
  -5.0699999999999995E-002     1.7206435813932330E-006
  -4.9599999999999991E-002     2.0601564756361768E-006
  -4.8499999999999988E-002     2.4675296117493417E-006
  -4.7399999999999998E-002     2.9524976525863167E-006
  -4.6299999999999994E-002     3.5145028505212395E-006
  -4.5199999999999990E-002     4.1555563257134054E-006
  -4.4099999999999986E-002     4.8957140279526357E-006
  -4.2999999999999997E-002     5.7676757023727987E-006
  -4.1899999999999993E-002     6.7942869463877287E-006
  -4.0799999999999989E-002     7.9788696893956512E-006
  -3.9699999999999985E-002     9.3232474682736211E-006
  -3.8599999999999995E-002     1.0849553291336633E-005
  -3.7499999999999992E-002     1.2595945918292273E-005
  -3.6399999999999988E-002     1.4593531886930577E-005
  -3.5299999999999984E-002     1.6858361050253734E-005
  -3.4199999999999994E-002     1.9407852960284799E-005
  -3.3099999999999991E-002     2.2273756258073263E-005
  -3.1999999999999987E-002     2.5490717234788463E-005
  -3.0899999999999997E-002     2.9080754757160321E-005
  -2.9799999999999993E-002     3.3061667636502534E-005
  -2.8699999999999989E-002     3.7467521906364709E-005
  -2.7599999999999986E-002     4.2344545363448560E-005
  -2.6499999999999996E-002     4.7720815928187221E-005
  -2.5399999999999992E-002     5.3594638302456588E-005
  -2.4299999999999988E-002     5.9963644162053242E-005
  -2.3199999999999985E-002     6.6855507611762732E-005
  -2.2099999999999995E-002     7.4312243668828160E-005
  -2.0999999999999991E-002     8.2345679402351379E-005
  -1.9899999999999987E-002     9.0926878328900784E-005
  -1.8799999999999983E-002     1.0002391354646534E-004
  -1.7699999999999994E-002     1.0963048407575116E-004
  -1.6599999999999990E-002     1.1974066728726029E-004
  -1.5499999999999986E-002     1.3030857371632010E-004
  -1.4399999999999996E-002     1.4125520829111338E-004
  -1.3299999999999992E-002     1.5251175500452518E-004
  -1.2199999999999989E-002     1.6402605979237705E-004
  -1.1099999999999985E-002     1.7571850912645459E-004
  -9.9999999999999950E-003     1.8744885164778680E-004
  -8.8999999999999913E-003     1.9905640510842204E-004
  -7.7999999999999875E-003     2.1041430591139942E-004
  -6.6999999999999837E-003     2.2141548106446862E-004
  -5.5999999999999939E-003     2.3190707725007087E-004
  -4.4999999999999901E-003     2.4166385992430151E-004
  -3.3999999999999864E-003     2.5045298389159143E-004
  -2.2999999999999826E-003     2.5808680220507085E-004
  -1.1999999999999927E-003     2.6439581415615976E-004
  -9.9999999999988987E-005     2.6916727074421942E-004
   1.0000000000000148E-003     2.7214433066546917E-004
   2.1000000000000185E-003     2.7309308643452823E-004
   3.2000000000000084E-003     2.7183294878341258E-004
   4.3000000000000121E-003     2.6818519108928740E-004
   5.4000000000000159E-003     2.6192120276391506E-004
   6.5000000000000058E-003     2.5281609850935638E-004
   7.6000000000000234E-003     2.4073373060673475E-004
   8.7000000000000133E-003     2.2561392688658088E-004
   9.8000000000000032E-003     2.0738352031912655E-004
   1.0900000000000021E-002     1.8590940453577787E-004
   1.2000000000000011E-002     1.6110044089145958E-004
   1.3100000000000001E-002     1.3300319551490247E-004
   1.4200000000000018E-002     1.0175841453019530E-004
   1.5300000000000008E-002     6.7492277594283223E-005
   1.6400000000000026E-002     3.0294217140180990E-005
   1.7500000000000016E-002    -9.6684161690063775E-006
   1.8600000000000005E-002    -5.2098064770689234E-005
   1.9700000000000023E-002    -9.6634918008930981E-005
   2.0800000000000013E-002    -1.4294811990112066E-004
   2.1900000000000003E-002    -1.9070114649366587E-004
   2.3000000000000020E-002    -2.3944654094520956E-004
   2.4100000000000010E-002    -2.8862836188636720E-004
   2.5200000000000000E-002    -3.3770740265026689E-004
   2.6300000000000018E-002    -3.8622663123533130E-004
   2.7400000000000008E-002    -4.3371168430894613E-004
   2.8500000000000025E-002    -4.7956273192539811E-004
   2.9600000000000015E-002    -5.2311323815956712E-004
   3.0700000000000005E-002    -5.6379055604338646E-004
   3.1800000000000023E-002    -6.0115265659987926E-004
   3.2900000000000013E-002    -6.3475454226136208E-004
   3.4000000000000002E-002    -6.6406215773895383E-004
   3.5100000000000020E-002    -6.8855274002999067E-004
   3.6200000000000010E-002    -7.0786208380013704E-004
   3.7300000000000028E-002    -7.2175898822024465E-004
   3.8400000000000017E-002    -7.2999828262254596E-004
   3.9500000000000007E-002    -7.3229661211371422E-004
   4.0600000000000025E-002    -7.2848430136218667E-004
   4.1700000000000015E-002    -7.1860040770843625E-004
   4.2800000000000005E-002    -7.0278724888339639E-004
   4.3900000000000022E-002    -6.8112905137240887E-004
   4.5000000000000012E-002    -6.5369525691494346E-004
   4.6100000000000002E-002    -6.2072958098724484E-004
   4.7200000000000020E-002    -5.8268767315894365E-004
   4.8300000000000010E-002    -5.4007617291063070E-004
   4.9400000000000027E-002    -4.9330061301589012E-004
   5.0500000000000017E-002    -4.4276539119891822E-004
   5.1600000000000007E-002    -3.8904318353161216E-004
   5.2700000000000025E-002    -3.3285823883488774E-004
   5.3800000000000014E-002    -2.7487802435643971E-004
   5.4900000000000004E-002    -2.1564478811342269E-004
   5.6000000000000022E-002    -1.5572764095850289E-004
   5.7100000000000012E-002    -9.5843322924338281E-005
   5.8200000000000002E-002    -3.6742643715115264E-005
   5.9300000000000019E-002     2.0986037270631641E-005
   6.0400000000000009E-002     7.6911295764148235E-005
   6.1500000000000027E-002     1.3054654118604958E-004
   6.2600000000000017E-002     1.8128147348761559E-004
   6.3700000000000007E-002     2.2857265139464289E-004
   6.4800000000000024E-002     2.7210888219997287E-004
   6.5900000000000014E-002     3.1171712907962501E-004
   6.7000000000000004E-002     3.4714856883510947E-004
   6.8100000000000022E-002     3.7807866465300322E-004
   6.9200000000000012E-002     4.0432636160403490E-004
   7.0300000000000029E-002     4.2594855767674744E-004
   7.1400000000000019E-002     4.4306542258709669E-004
   7.2500000000000009E-002     4.5567221241071820E-004
   7.3600000000000027E-002     4.6373592340387404E-004
   7.4700000000000016E-002     4.6742451377213001E-004
   7.5800000000000006E-002     4.6711243339814246E-004
   7.6900000000000024E-002     4.6313446364365518E-004
   7.8000000000000014E-002     4.5565352775156498E-004
   7.9100000000000004E-002     4.4483740930445492E-004
   8.0200000000000021E-002     4.3106861994601786E-004
   8.1300000000000011E-002     4.1485647670924664E-004
   8.2400000000000029E-002     3.9657941670157015E-004
   8.3500000000000019E-002     3.7644669646397233E-004
   8.4600000000000009E-002     3.5472554736770689E-004
   8.5700000000000026E-002     3.3186480868607759E-004
   8.6800000000000016E-002     3.0831960611976683E-004
   8.7900000000000006E-002     2.8434209525585175E-004
   8.9000000000000024E-002     2.6006685220636427E-004
   9.0100000000000013E-002     2.3575840168632567E-004
   9.1200000000000003E-002     2.1182966884225607E-004
   9.2300000000000021E-002     1.8858704424928874E-004
   9.3400000000000011E-002     1.6608877922408283E-004
   9.4500000000000028E-002     1.4433558681048453E-004
   9.5600000000000018E-002     1.2351493933238089E-004
   9.6700000000000008E-002     1.0392505646450445E-004
   9.7800000000000026E-002     8.5696112364530563E-005
   9.8900000000000016E-002     6.8730558268725872E-005
  0.10000000000000001          5.2950512326788157E-005
  0.10110000000000002          3.8471847801702097E-005
  0.10220000000000001          2.5445866413065232E-005
  0.10330000000000003          1.3821671018376946E-005
  0.10440000000000002          3.4026043067569844E-006
  0.10550000000000001         -5.8901482589135412E-006
  0.10660000000000003         -1.3957914234197233E-005
  0.10770000000000002         -2.0763001884915866E-005
  0.10880000000000001         -2.6485951821086928E-005
  0.10990000000000003         -3.1359380955109373E-005
  0.11100000000000002         -3.5420845961198211E-005
  0.11210000000000001         -3.8566668081330135E-005
  0.11320000000000002         -4.0827435441315174E-005
  0.11430000000000001         -4.2437070078449324E-005
  0.11540000000000003         -4.3592004658421502E-005
  0.11650000000000002         -4.4267060729907826E-005
  0.11760000000000001         -4.4369793613441288E-005
  0.11870000000000003         -4.3986408854834735E-005
  0.11980000000000002         -4.3344403820810840E-005
  0.12090000000000001         -4.2552375816740096E-005
  0.12200000000000003         -4.1515813791193068E-005
  0.12310000000000001         -4.0163929952541366E-005
  0.12420000000000003         -3.8630336348433048E-005
  0.12530000000000002         -3.7112029531272128E-005
  0.12640000000000001         -3.5624376323539764E-005
  0.12750000000000003         -3.4026863431790844E-005
  0.12860000000000002         -3.2280200684908777E-005
  0.12970000000000001         -3.0539576982846484E-005
  0.13080000000000003         -2.8944914447492920E-005
  0.13190000000000002         -2.7434314688434824E-005
  0.13300000000000001         -2.5867810109048150E-005
  0.13410000000000000         -2.4262599254143424E-005
  0.13520000000000004         -2.2778072889195755E-005
  0.13630000000000003         -2.1476676920428872E-005
  0.13740000000000002         -2.0233734176144935E-005
  0.13850000000000001         -1.8933860701508820E-005
  0.13960000000000000         -1.7651726011536084E-005
  0.14070000000000005         -1.6539981515961699E-005
  0.14180000000000004         -1.5596286175423302E-005
  0.14290000000000003         -1.4667704817838967E-005
  0.14400000000000002         -1.3681335076398682E-005
  0.14510000000000001         -1.2747859727824107E-005
  0.14620000000000000         -1.1983693184447475E-005
  0.14730000000000004         -1.1331621863064356E-005
  0.14840000000000003         -1.0650428521330468E-005
  0.14950000000000002         -9.9297176348045468E-006
  0.15060000000000001         -9.2964510258752853E-006
  0.15170000000000000         -8.8097795014618896E-006
  0.15280000000000005         -8.3643799371202476E-006
  0.15390000000000004         -7.8503389886463992E-006
  0.15500000000000003         -7.3195260483771563E-006
  0.15610000000000002         -6.9030070335429627E-006
  0.15720000000000001         -6.6072489062207751E-006
  0.15830000000000000         -6.3025304370967206E-006
  0.15940000000000004         -5.9158478507015388E-006
  0.16050000000000003         -5.5338377933367155E-006
  0.16160000000000002         -5.2631348808063194E-006
  0.16270000000000001         -5.0689027375483420E-006
  0.16380000000000000         -4.8335100473195780E-006
  0.16490000000000005         -4.5369847612164449E-006
  0.16600000000000004         -4.2795518311322667E-006
  0.16710000000000003         -4.1195885387423914E-006
  0.16820000000000002         -3.9823921724746469E-006
  0.16930000000000001         -3.7779702779516811E-006
  0.17040000000000000         -3.5403995752858464E-006
  0.17150000000000004         -3.3731832900230074E-006
  0.17260000000000003         -3.2882073810469592E-006
  0.17370000000000002         -3.1866632070887135E-006
  0.17480000000000001         -3.0085673188295914E-006
  0.17590000000000000         -2.8205358830746263E-006
  0.17700000000000005         -2.7117941954202252E-006
  0.17810000000000004         -2.6609620817907853E-006
  0.17920000000000003         -2.5735596409504069E-006
  0.18030000000000002         -2.4253754418168683E-006
  0.18140000000000001         -2.2921144591236953E-006
  0.18250000000000000         -2.2285066734184511E-006
  0.18360000000000004         -2.1871030639886158E-006
  0.18470000000000003         -2.0964723717042943E-006
  0.18580000000000002         -1.9711603727046167E-006
  0.18690000000000001         -1.8849326579584158E-006
  0.18800000000000000         -1.8550230151959113E-006
  0.18910000000000005         -1.8177642004957306E-006
  0.19020000000000004         -1.7283126680922578E-006
  0.19130000000000003         -1.6270931837425451E-006
  0.19240000000000002         -1.5740504295536084E-006
  0.19350000000000001         -1.5570828963973327E-006
  0.19460000000000005         -1.5137223954297951E-006
  0.19570000000000004         -1.4281935136750690E-006
  0.19680000000000003         -1.3529443094739690E-006
  0.19790000000000002         -1.3264193512441125E-006
  0.19900000000000001         -1.3157623470760882E-006
  0.20010000000000000         -1.2688871038335492E-006
  0.20120000000000005         -1.1925136504942202E-006
  0.20230000000000004         -1.1384817071302678E-006
  0.20340000000000003         -1.1250292573095066E-006
  0.20450000000000002         -1.1132744930364424E-006
  0.20560000000000000         -1.0685778306651628E-006
  0.20670000000000005         -1.0093195896843099E-006
  0.20780000000000004         -9.7361987627664348E-007
  0.20890000000000003         -9.6151688921963796E-007
