 -0.12000000000000000          0.0000000000000000
 -0.11889999999999999          0.0000000000000000
 -0.11780000000000000          0.0000000000000000
 -0.11670000000000000          0.0000000000000000
 -0.11559999999999999          0.0000000000000000
 -0.11449999999999999          0.0000000000000000
 -0.11340000000000000          0.0000000000000000
 -0.11230000000000000          0.0000000000000000
 -0.11119999999999999          0.0000000000000000
 -0.11009999999999999          0.0000000000000000
 -0.10900000000000000          0.0000000000000000
 -0.10790000000000000          0.0000000000000000
 -0.10679999999999999          0.0000000000000000
 -0.10569999999999999          0.0000000000000000
 -0.10460000000000000          0.0000000000000000
 -0.10349999999999999          0.0000000000000000
 -0.10239999999999999          0.0000000000000000
 -0.10130000000000000          0.0000000000000000
 -0.10020000000000000          0.0000000000000000
  -9.9099999999999994E-002     0.0000000000000000
  -9.7999999999999990E-002     1.4913450628632512E-038
  -9.6899999999999986E-002    -1.8013099850424193E-037
  -9.5799999999999996E-002     1.0892723442085044E-037
  -9.4699999999999993E-002     2.6624823283444443E-036
  -9.3599999999999989E-002    -3.9959862868560827E-036
  -9.2499999999999999E-002    -2.9495041629520942E-035
  -9.1399999999999995E-002     5.4106747969996231E-035
  -9.0299999999999991E-002     2.8228098639568229E-034
  -8.9200000000000002E-002    -4.9113549876896774E-034
  -8.8099999999999984E-002    -2.4500356719738686E-033
  -8.6999999999999994E-002     3.2310548734823282E-033
  -8.5899999999999990E-002     1.9282466968159127E-032
  -8.4799999999999986E-002    -1.3873766198108294E-032
  -8.3699999999999997E-002    -1.3467855068331499E-031
  -8.2599999999999993E-002     7.0790745691494573E-033
  -8.1499999999999989E-002     8.1077606958135801E-031
  -8.0399999999999999E-002     5.3403644051359776E-031
  -7.9299999999999995E-002    -4.0412619332682271E-030
  -7.8199999999999992E-002    -6.0495204927215179E-030
  -7.7100000000000002E-002     1.5387379791020879E-029
  -7.5999999999999984E-002     4.3040170822024469E-029
  -7.4899999999999994E-002    -3.3347555227968980E-029
  -7.3799999999999991E-002    -2.2751771175374450E-028
  -7.2699999999999987E-002    -7.3391761465566817E-029
  -7.1599999999999997E-002     8.9952878798188837E-028
  -7.0499999999999993E-002     1.2210291847198078E-027
  -6.9399999999999989E-002    -2.3506851269370910E-027
  -6.8300000000000000E-002    -7.2753952690331554E-027
  -6.7199999999999996E-002     1.0803690838244805E-027
  -6.6099999999999992E-002     2.8146791291366939E-026
  -6.5000000000000002E-002     2.7526290559652393E-026
  -6.3899999999999985E-002    -6.7843763482237186E-026
  -6.2799999999999995E-002    -1.7226674829458816E-025
  -6.1699999999999991E-002     2.6997217574257797E-026
  -6.0599999999999994E-002     5.9450327824111539E-025
  -5.9499999999999990E-002     6.1972429536858240E-025
  -5.8399999999999994E-002    -1.1094578227997440E-024
  -5.7299999999999990E-002    -3.2302077159611423E-024
  -5.6199999999999986E-002    -6.4326124237482227E-025
  -5.5099999999999996E-002     8.6069994350459264E-024
  -5.3999999999999992E-002     1.2517659832404215E-023
  -5.2899999999999989E-002    -8.2880187948543790E-024
  -5.1799999999999985E-002    -4.4519661797848164E-023
  -5.0699999999999995E-002    -3.4456920536412729E-023
  -4.9599999999999991E-002     7.1907517721041263E-023
  -4.8499999999999988E-002     1.8037399261187061E-022
  -4.7399999999999998E-002     5.4532357723456379E-023
  -4.6299999999999994E-002    -3.6871641437778523E-022
  -4.5199999999999990E-002    -6.1462048916296457E-022
  -4.4099999999999986E-002     4.6968229249669009E-023
  -4.2999999999999997E-002     1.4654905063473578E-021
  -4.1899999999999993E-002     1.8647011783644644E-021
  -4.0799999999999989E-002    -6.7264692640581103E-022
  -3.9699999999999985E-002    -4.9037140793218796E-021
  -3.8599999999999995E-002    -5.3731176704161987E-021
  -3.7499999999999992E-002     2.5210174975853991E-021
  -3.6399999999999988E-002     1.4352152314466160E-020
  -3.5299999999999984E-002     1.5697122141083241E-020
  -3.4199999999999994E-002    -4.8019357249576950E-021
  -3.3099999999999991E-002    -3.7193833738974504E-020
  -3.1999999999999987E-002    -4.7783290080953260E-020
  -3.0899999999999997E-002    -4.6137311329691406E-021
  -2.9799999999999993E-002     8.3212321058348808E-020
  -2.8699999999999989E-002     1.4621910129386481E-019
  -2.7599999999999986E-002     8.5385505473284608E-020
  -2.6499999999999996E-002    -1.4169955444793699E-019
  -2.5399999999999992E-002    -4.1784134254078870E-019
  -2.4299999999999988E-002    -4.4558363611732185E-019
  -2.3199999999999985E-002     6.7235030258854442E-020
  -2.2099999999999995E-002     1.0197741085495148E-018
  -2.0999999999999991E-002     1.6366832380424549E-018
  -1.9899999999999987E-002     8.0437767290799008E-019
  -1.8799999999999983E-002    -1.8127950569362464E-018
  -1.7699999999999994E-002    -4.6456932335106505E-018
  -1.6599999999999990E-002    -4.5247676997615234E-018
  -1.5499999999999986E-002     8.5958980744679672E-019
  -1.4399999999999996E-002     9.7221432525501278E-018
  -1.3299999999999992E-002     1.5263412941153059E-017
  -1.2199999999999989E-002     9.3279147628716427E-018
  -1.1099999999999985E-002    -1.0540276990743663E-017
  -9.9999999999999950E-003    -3.5327987298355805E-017
  -8.8999999999999913E-003    -4.5425132881606847E-017
  -7.7999999999999875E-003    -2.0663628482980998E-017
  -6.6999999999999837E-003     4.2963129050016267E-017
  -5.5999999999999939E-003     1.1818898205478528E-016
  -4.4999999999999901E-003     1.4611548627219216E-016
  -3.3999999999999864E-003     6.2949887218273699E-017
  -2.2999999999999826E-003    -1.4690792529901796E-016
  -1.1999999999999927E-003    -3.9762744098991451E-016
  -9.9999999999988987E-005    -4.9734164184834844E-016
   1.0000000000000148E-003    -2.3487344830678972E-016
   2.1000000000000185E-003     4.4985115147375999E-016
   3.2000000000000084E-003     1.2979849239221357E-015
   4.3000000000000121E-003     1.7106236945615277E-015
   5.4000000000000159E-003     9.9630048135124216E-016
   6.5000000000000058E-003    -1.1249292106553857E-015
   7.6000000000000234E-003    -3.9870984321738710E-015
   8.7000000000000133E-003    -5.8213719963755815E-015
   9.8000000000000032E-003    -4.3668550661634959E-015
   1.0900000000000021E-002     1.6991598447742696E-015
   1.2000000000000011E-002     1.1063662295064235E-014
   1.3100000000000001E-002     1.8930393548294983E-014
   1.4200000000000018E-002     1.8214276319302412E-014
   1.5300000000000008E-002     3.2195785852607000E-015
   1.6400000000000026E-002    -2.5259496575012579E-014
   1.7500000000000016E-002    -5.6121533337444643E-014
   1.8600000000000005E-002    -6.8897592167029009E-014
   1.9700000000000023E-002    -4.1805714299418886E-014
   2.0800000000000013E-002     3.4091541303285164E-014
   2.1900000000000003E-002     1.4036009496603413E-013
   2.3000000000000020E-002     2.2576053168837235E-013
   2.4100000000000010E-002     2.1904814117082450E-013
   2.5200000000000000E-002     6.2692255900498317E-014
   2.6300000000000018E-002    -2.4159754058450389E-013
   2.7400000000000008E-002    -5.9720945636693168E-013
   2.8500000000000025E-002    -8.1451837462276355E-013
   2.9600000000000015E-002    -6.7051632258660621E-013
   3.0700000000000005E-002    -2.2924114931083435E-014
   3.1800000000000023E-002     1.0582427946090323E-012
   3.2900000000000013E-002     2.2083203321532352E-012
   3.4000000000000002E-002     2.8079962400423542E-012
   3.5100000000000020E-002     2.1872764016661606E-012
   3.6200000000000010E-002    -3.4520516057224421E-014
   3.7300000000000028E-002    -3.5873474329983779E-012
   3.8400000000000017E-002    -7.3472590858547626E-012
   3.9500000000000007E-002    -9.4718356422052175E-012
   4.0600000000000025E-002    -7.9644424735847430E-012
   4.1700000000000015E-002    -1.5850148884360982E-012
   4.2800000000000005E-002     9.1780333333346675E-012
   4.3900000000000022E-002     2.1508244837931123E-011
   4.5000000000000012E-002     3.0469498452090349E-011
   4.6100000000000002E-002     3.0261331634973132E-011
   4.7200000000000020E-002     1.6384322717999389E-011
   4.8300000000000010E-002    -1.1866272721372528E-011
   4.9400000000000027E-002    -4.9503016269492051E-011
   5.0500000000000017E-002    -8.5532116111952661E-011
   5.1600000000000007E-002    -1.0488898638527644E-010
   5.2700000000000025E-002    -9.2614166335991399E-011
   5.3800000000000014E-002    -3.9413240032759589E-011
   5.4900000000000004E-002     5.2987142451499381E-011
   5.6000000000000022E-002     1.6859262597090918E-010
   5.7100000000000012E-002     2.7762669940756268E-010
   5.8200000000000002E-002     3.4149680305795016E-010
   5.9300000000000019E-002     3.2173494424192484E-010
   6.0400000000000009E-002     1.9113868821030167E-010
   6.1500000000000027E-002    -5.5551455796498672E-011
   6.2600000000000017E-002    -3.9428973974686699E-010
   6.3700000000000007E-002    -7.6993944553294114E-010
   6.4800000000000024E-002    -1.1010545808431971E-009
   6.5900000000000014E-002    -1.2906419266656144E-009
   6.7000000000000004E-002    -1.2408627458881938E-009
   6.8100000000000022E-002    -8.6859885950474336E-010
   6.9200000000000012E-002    -1.1850240233535203E-010
   7.0300000000000029E-002     1.0295585495256887E-009
   7.1400000000000019E-002     2.5608479781169535E-009
   7.2500000000000009E-002     4.4347534533528687E-009
   7.3600000000000027E-002     6.6016037081340073E-009
   7.4700000000000016E-002     9.0249008266596320E-009
   7.5800000000000006E-002     1.1705034275166781E-008
   7.6900000000000024E-002     1.4699806705209539E-008
   7.8000000000000014E-002     1.8137571444754030E-008
   7.9100000000000004E-002     2.2220255857519078E-008
   8.0200000000000021E-002     2.7216238152050209E-008
   8.1300000000000011E-002     3.3446220015775907E-008
   8.2400000000000029E-002     4.1267533390509925E-008
   8.3500000000000019E-002     5.1063487660485407E-008
   8.4600000000000009E-002     6.3243263070944522E-008
   8.5700000000000026E-002     7.8256249480546103E-008
   8.6800000000000016E-002     9.6618151701477473E-008
   8.7900000000000006E-002     1.1894504581277943E-007
   8.9000000000000024E-002     1.4598658992781566E-007
   9.0100000000000013E-002     1.7865126267224696E-007
   9.1200000000000003E-002     2.1802308936003101E-007
   9.2300000000000021E-002     2.6536716291047924E-007
   9.3400000000000011E-002     3.2213543477155326E-007
   9.4500000000000028E-002     3.8997606566226750E-007
   9.5600000000000018E-002     4.7075826614673133E-007
   9.6700000000000008E-002     5.6660695690879948E-007
   9.7800000000000026E-002     6.7995358676853357E-007
   9.8900000000000016E-002     8.1357728731745738E-007
  0.10000000000000001          9.7065219506475842E-007
  0.10110000000000002          1.1547731446626130E-006
  0.10220000000000001          1.3699686860491056E-006
  0.10330000000000003          1.6206995496759191E-006
  0.10440000000000002          1.9118626823910745E-006
  0.10550000000000001          2.2488004560727859E-006
  0.10660000000000003          2.6373306809546193E-006
  0.10770000000000002          3.0837668418826070E-006
  0.10880000000000001          3.5949292396253441E-006
  0.10990000000000003          4.1781809159147087E-006
  0.11100000000000002          4.8413803597213700E-006
  0.11210000000000001          5.5928544497874100E-006
  0.11320000000000002          6.4413052314193919E-006
  0.11430000000000001          7.3957348831754643E-006
  0.11540000000000003          8.4653102021547966E-006
  0.11650000000000002          9.6593112175469287E-006
  0.11760000000000001          1.0986981578753330E-005
  0.11870000000000003          1.2457348930183798E-005
  0.11980000000000002          1.4079115317144897E-005
  0.12090000000000001          1.5860430721659213E-005
  0.12200000000000003          1.7808601114666089E-005
  0.12310000000000001          1.9929741029045545E-005
  0.12420000000000003          2.2228661691769958E-005
  0.12530000000000002          2.4708369892323390E-005
  0.12640000000000001          2.7369920644559897E-005
  0.12750000000000003          3.0211820558179170E-005
  0.12860000000000002          3.3229884138563648E-005
  0.12970000000000001          3.6416935472516343E-005
  0.13080000000000003          3.9762475353199989E-005
  0.13190000000000002          4.3251959141343832E-005
  0.13300000000000001          4.6866854972904548E-005
  0.13410000000000000          5.0584156269906089E-005
  0.13520000000000004          5.4376159823732451E-005
  0.13630000000000003          5.8210272982250899E-005
  0.13740000000000002          6.2048813560977578E-005
  0.13850000000000001          6.5849395468831062E-005
  0.13960000000000000          6.9564055593218654E-005
  0.14070000000000005          7.3140487074851990E-005
  0.14180000000000004          7.6521813753060997E-005
  0.14290000000000003          7.9646699305158108E-005
  0.14400000000000002          8.2449747424107045E-005
  0.14510000000000001          8.4862527728546411E-005
  0.14620000000000000          8.6814383394084871E-005
  0.14730000000000004          8.8232263806276023E-005
  0.14840000000000003          8.9044289779849350E-005
  0.14950000000000002          8.9178356574848294E-005
  0.15060000000000001          8.8564120233058929E-005
  0.15170000000000000          8.7134867499116808E-005
  0.15280000000000005          8.4827872342430055E-005
  0.15390000000000004          8.1586003943812102E-005
  0.15500000000000003          7.7360120485536754E-005
  0.15610000000000002          7.2110618930310011E-005
  0.15720000000000001          6.5807667851913720E-005
  0.15830000000000000          5.8433364756638184E-005
  0.15940000000000004          4.9983267672359943E-005
  0.16050000000000003          4.0466409700457007E-005
  0.16160000000000002          2.9907490898040123E-005
  0.16270000000000001          1.8347180230193771E-005
  0.16380000000000000          5.8416030697117094E-006
  0.16490000000000005         -7.5346365520090330E-006
  0.16600000000000004         -2.1691317670047283E-005
  0.16710000000000003         -3.6522338632494211E-005
  0.16820000000000002         -5.1906899898312986E-005
  0.16930000000000001         -6.7707624111790210E-005
  0.17040000000000000         -8.3774197264574468E-005
  0.17150000000000004         -9.9945187685079873E-005
  0.17260000000000003         -1.1605009058257565E-004
  0.17370000000000002         -1.3191018661018461E-004
  0.17480000000000001         -1.4734279830008745E-004
  0.17590000000000000         -1.6216158110182732E-004
  0.17700000000000005         -1.7618095444049686E-004
  0.17810000000000004         -1.8921925220638514E-004
  0.17920000000000003         -2.0110153127461672E-004
  0.18030000000000002         -2.1166291844565421E-004
  0.18140000000000001         -2.2074983280617744E-004
  0.18250000000000000         -2.2822304163128138E-004
  0.18360000000000004         -2.3396183678414673E-004
  0.18470000000000003         -2.3786614474374801E-004
  0.18580000000000002         -2.3985815641935915E-004
  0.18690000000000001         -2.3988405882846564E-004
  0.18800000000000000         -2.3791374405846000E-004
  0.18910000000000005         -2.3394306481350213E-004
  0.19020000000000004         -2.2799424186814576E-004
  0.19130000000000003         -2.2011622786521912E-004
  0.19240000000000002         -2.1038347040303051E-004
  0.19350000000000001         -1.9889629038516432E-004
  0.19460000000000005         -1.8577607988845557E-004
  0.19570000000000004         -1.7116496746893972E-004
  0.19680000000000003         -1.5522562898695469E-004
  0.19790000000000002         -1.3813759142067283E-004
  0.19900000000000001         -1.2009322381345555E-004
  0.20010000000000000         -1.0129737347597256E-004
  0.20120000000000005         -8.1960628449451178E-005
  0.20230000000000004         -6.2295977841131389E-005
  0.20340000000000003         -4.2517043766565621E-005
  0.20450000000000002         -2.2836080461274832E-005
  0.20560000000000000         -3.4598785987327574E-006
  0.20670000000000005          1.5410803825943731E-005
  0.20780000000000004          3.3592412364669144E-005
  0.20890000000000003          5.0912742153741419E-005
