 -0.12000000000000000          0.0000000000000000
 -0.11889999999999999          0.0000000000000000
 -0.11780000000000000          0.0000000000000000
 -0.11670000000000000          0.0000000000000000
 -0.11559999999999999          0.0000000000000000
 -0.11449999999999999          0.0000000000000000
 -0.11340000000000000          0.0000000000000000
 -0.11230000000000000          0.0000000000000000
 -0.11119999999999999          0.0000000000000000
 -0.11009999999999999          0.0000000000000000
 -0.10900000000000000         -3.7337474201100635E-029
 -0.10790000000000000          1.5412641070580501E-029
 -0.10679999999999999          4.7066126351828040E-028
 -0.10569999999999999         -3.4945866433222718E-029
 -0.10460000000000000         -2.2726639715530141E-027
 -0.10349999999999999          2.3659348328297436E-027
 -0.10239999999999999          5.7739545362704548E-027
 -0.10130000000000000         -4.9473544174915929E-026
 -0.10020000000000000         -7.3761569963099801E-026
  -9.9099999999999994E-002     3.5826251130890007E-025
  -9.7999999999999990E-002     9.5600909255421850E-025
  -9.6899999999999986E-002    -7.2430324044708590E-025
  -9.5799999999999996E-002    -5.5817624341644911E-024
  -9.4699999999999993E-002    -4.8780965345550856E-024
  -9.3599999999999989E-002     1.3090458835433338E-023
  -9.2499999999999999E-002     3.3913149248113023E-023
  -9.1399999999999995E-002     1.4169955030799496E-023
  -9.0299999999999991E-002    -5.5987175004864969E-023
  -8.9200000000000002E-002    -1.2020267412216443E-022
  -8.8099999999999984E-002    -1.4259959642464144E-022
  -8.6999999999999994E-002    -8.8054781009769814E-023
  -8.5899999999999990E-002     3.6373995162151452E-022
  -8.4799999999999986E-002     1.5562628753102906E-021
  -8.3699999999999997E-002     2.2292368066494211E-021
  -8.2599999999999993E-002    -1.1398438779107225E-021
  -8.1499999999999989E-002    -9.5910517660079520E-021
  -8.0399999999999999E-002    -1.4230818489536556E-020
  -7.9299999999999995E-002     2.0212794910038181E-022
  -7.8199999999999992E-002     3.4533291309228653E-020
  -7.7100000000000002E-002     5.9679653016674586E-020
  -7.5999999999999984E-002     3.5590570303739205E-020
  -7.4899999999999994E-002    -5.0935937120508539E-020
  -7.3799999999999991E-002    -1.7517773811176304E-019
  -7.2699999999999987E-002    -2.7621106446915303E-019
  -7.1599999999999997E-002    -2.1148605561795393E-019
  -7.0499999999999993E-002     2.4874918512027535E-019
  -6.9399999999999989E-002     1.1344293030627603E-018
  -6.8300000000000000E-002     1.7642914605628213E-018
  -6.7199999999999996E-002     7.9611982545529663E-019
  -6.6099999999999992E-002    -2.4487964455450995E-018
  -6.5000000000000002E-002    -6.2714468307218657E-018
  -6.3899999999999985E-002    -6.7751009756834594E-018
  -6.2799999999999995E-002    -7.9459321193604173E-019
  -6.1699999999999991E-002     1.0857178982399466E-017
  -6.0599999999999994E-002     2.2700524345445877E-017
  -5.9499999999999990E-002     2.5839896454488781E-017
  -5.8399999999999994E-002     9.5859082600238693E-018
  -5.7299999999999990E-002    -3.2789343528650961E-017
  -5.6199999999999986E-002    -8.9371074922066769E-017
  -5.5099999999999996E-002    -1.1655931713404761E-016
  -5.3999999999999992E-002    -5.5178449262721649E-017
  -5.2899999999999989E-002     1.1382579622947018E-016
  -5.1799999999999985E-002     3.1578534415097070E-016
  -5.0699999999999995E-002     3.9751605615735057E-016
  -4.9599999999999991E-002     2.2280105828648860E-016
  -4.8499999999999988E-002    -2.2402907077155013E-016
  -4.7399999999999998E-002    -7.9938384996033852E-016
  -4.6299999999999994E-002    -1.2179048409019380E-015
  -4.5199999999999990E-002    -1.0986544603897941E-015
  -4.4099999999999986E-002    -1.1228292571604647E-016
  -4.2999999999999997E-002     1.6862915084813455E-015
  -4.1899999999999993E-002     3.5227640760932466E-015
  -4.0799999999999989E-002     4.0350828486358271E-015
  -3.9699999999999985E-002     2.1037164387891980E-015
  -3.8599999999999995E-002    -2.1420537852566380E-015
  -3.7499999999999992E-002    -7.0666573890557517E-015
  -3.6399999999999988E-002    -1.0296891648792911E-014
  -3.5299999999999984E-002    -9.7682117995994029E-015
  -3.4199999999999994E-002    -4.2955272687081585E-015
  -3.3099999999999991E-002     6.0232013129814417E-015
  -3.1999999999999987E-002     1.8899661498902702E-014
  -3.0899999999999997E-002     2.9128456780934051E-014
  -2.9799999999999993E-002     2.9913730861938145E-014
  -2.8699999999999989E-002     1.6592421677613135E-014
  -2.7599999999999986E-002    -1.0003630207728632E-014
  -2.6499999999999996E-002    -4.3556975246657886E-014
  -2.5399999999999992E-002    -7.4719195403399191E-014
  -2.4299999999999988E-002    -9.2169978246903206E-014
  -2.3199999999999985E-002    -8.1799848741358899E-014
  -2.2099999999999995E-002    -2.9473897145615088E-014
  -2.0999999999999991E-002     6.8365025283640551E-014
  -1.9899999999999987E-002     1.9201591813962360E-013
  -1.8799999999999983E-002     2.9645445711982965E-013
  -1.7699999999999994E-002     3.2548041952601414E-013
  -1.6599999999999990E-002     2.3350904001205597E-013
  -1.5499999999999986E-002     3.0124817825141021E-015
  -1.4399999999999996E-002    -3.4366319469000817E-013
  -1.3299999999999992E-002    -7.3275478566781072E-013
  -1.2199999999999989E-002    -1.0337134793980685E-012
  -1.1099999999999985E-002    -1.0800312467279527E-012
  -9.9999999999999950E-003    -7.2678430114436754E-013
  -8.8999999999999913E-003     7.5428419478267006E-014
  -7.7999999999999875E-003     1.2279993645211706E-012
  -6.6999999999999837E-003     2.4742846660430473E-012
  -5.5999999999999939E-003     3.4267840301471786E-012
  -4.4999999999999901E-003     3.6274609618164311E-012
  -3.3999999999999864E-003     2.6573732363893710E-012
  -2.2999999999999826E-003     3.0402644377730548E-013
  -1.1999999999999927E-003    -3.2564816728614110E-012
  -9.9999999999988987E-005    -7.3510477219262960E-012
   1.0000000000000148E-003    -1.0849147101532619E-011
   2.1000000000000185E-003    -1.2364888626881232E-011
   3.2000000000000084E-003    -1.0590577893820896E-011
   4.3000000000000121E-003    -4.7172114304994128E-012
   5.4000000000000159E-003     5.1288764901791239E-012
   6.5000000000000058E-003     1.7563445489643392E-011
   7.6000000000000234E-003     2.9900606296484611E-011
   8.7000000000000133E-003     3.8495127224758008E-011
   9.8000000000000032E-003     3.9456306277774189E-011
   1.0900000000000021E-002     2.9622776454019117E-011
   1.2000000000000011E-002     7.6443790533731182E-012
   1.3100000000000001E-002    -2.5038754056239121E-011
   1.4200000000000018E-002    -6.3623696588965828E-011
   1.5300000000000008E-002    -1.0011137058230091E-010
   1.6400000000000026E-002    -1.2439622942839179E-010
   1.7500000000000016E-002    -1.2618847633483199E-010
   1.8600000000000005E-002    -9.7445544688934405E-011
   1.9700000000000023E-002    -3.4874079318791829E-011
   2.0800000000000013E-002     5.8033654271039126E-011
   2.1900000000000003E-002     1.7009528507916372E-010
   2.3000000000000020E-002     2.8332403090303160E-010
   2.4100000000000010E-002     3.7591485479993025E-010
   2.5200000000000000E-002     4.2700692981512134E-010
   2.6300000000000018E-002     4.2232647934348222E-010
   2.7400000000000008E-002     3.5952193999655435E-010
   2.8500000000000025E-002     2.5193686026270257E-010
   2.9600000000000015E-002     1.2956173633948964E-010
   3.0700000000000005E-002     3.6093999317143854E-011
   3.1800000000000023E-002     2.1655035403744805E-011
   3.2900000000000013E-002     1.3177209323700367E-010
   3.4000000000000002E-002     3.9437811349962715E-010
   3.5100000000000020E-002     8.0728257412232551E-010
   3.6200000000000010E-002     1.3287138056483627E-009
   3.7300000000000028E-002     1.8733548046157011E-009
   3.8400000000000017E-002     2.3154205219810819E-009
   3.9500000000000007E-002     2.4992208302876406E-009
   4.0600000000000025E-002     2.2556194689826725E-009
   4.1700000000000015E-002     1.4214701637982330E-009
   4.2800000000000005E-002    -1.4196514797060189E-010
   4.3900000000000022E-002    -2.5352384636079250E-009
   4.5000000000000012E-002    -5.8152180848480839E-009
   4.6100000000000002E-002    -1.0000673178467423E-008
   4.7200000000000020E-002    -1.5089931082457042E-008
   4.8300000000000010E-002    -2.1089499924187294E-008
   4.9400000000000027E-002    -2.8049901956705980E-008
   5.0500000000000017E-002    -3.6104616185639316E-008
   5.1600000000000007E-002    -4.5506894252866914E-008
   5.2700000000000025E-002    -5.6659658298485738E-008
   5.3800000000000014E-002    -7.0135321550424123E-008
   5.4900000000000004E-002    -8.6684529776448471E-008
   5.6000000000000022E-002    -1.0723439913817856E-007
   5.7100000000000012E-002    -1.3287920808124909E-007
   5.8200000000000002E-002    -1.6487349796534545E-007
   5.9300000000000019E-002    -2.0462850613967021E-007
   6.0400000000000009E-002    -2.5372338541274075E-007
   6.1500000000000027E-002    -3.1393028621096164E-007
   6.2600000000000017E-002    -3.8726153661627905E-007
   6.3700000000000007E-002    -4.7603157327102963E-007
   6.4800000000000024E-002    -5.8293460369895911E-007
   6.5900000000000014E-002    -7.1113447575044120E-007
   6.7000000000000004E-002    -8.6432919488288462E-007
   6.8100000000000022E-002    -1.0468216942172148E-006
   6.9200000000000012E-002    -1.2635983921427396E-006
   7.0300000000000029E-002    -1.5203637531158165E-006
   7.1400000000000019E-002    -1.8235647303299629E-006
   7.2500000000000009E-002    -2.1804221432830673E-006
   7.3600000000000027E-002    -2.5989863843278727E-006
   7.4700000000000016E-002    -3.0881731163390214E-006
   7.5800000000000006E-002    -3.6578142044163542E-006
   7.6900000000000024E-002    -4.3187405935896095E-006
   7.8000000000000014E-002    -5.0827766244765371E-006
   7.9100000000000004E-002    -5.9628628150676377E-006
   8.0200000000000021E-002    -6.9730449467897415E-006
   8.1300000000000011E-002    -8.1283960753353313E-006
   8.2400000000000029E-002    -9.4450761025655083E-006
   8.3500000000000019E-002    -1.0940167157968972E-005
   8.4600000000000009E-002    -1.2631580830202438E-005
   8.5700000000000026E-002    -1.4537847164319828E-005
   8.6800000000000016E-002    -1.6678028259775601E-005
   8.7900000000000006E-002    -1.9071376300416887E-005
   8.9000000000000024E-002    -2.1737121642217971E-005
   9.0100000000000013E-002    -2.4694023522897623E-005
   9.1200000000000003E-002    -2.7960308216279373E-005
   9.2300000000000021E-002    -3.1553088774671778E-005
   9.3400000000000011E-002    -3.5487726563587785E-005
   9.4500000000000028E-002    -3.9777532947482541E-005
   9.5600000000000018E-002    -4.4433101720642298E-005
   9.6700000000000008E-002    -4.9461610615253448E-005
   9.7800000000000026E-002    -5.4866140999365598E-005
   9.8900000000000016E-002    -6.0645179473794997E-005
  0.10000000000000001         -6.6791173594538122E-005
  0.10110000000000002         -7.3290822911076248E-005
  0.10220000000000001         -8.0123427323997021E-005
  0.10330000000000003         -8.7260086729656905E-005
  0.10440000000000002         -9.4663519121240824E-005
  0.10550000000000001         -1.0228840983472764E-004
  0.10660000000000003         -1.1007820285158232E-004
  0.10770000000000002         -1.1796630133176222E-004
  0.10880000000000001         -1.2587601668201387E-004
  0.10990000000000003         -1.3372002285905182E-004
  0.11100000000000002         -1.4140029088594019E-004
  0.11210000000000001         -1.4880976232234389E-004
  0.11320000000000002         -1.5582948981318623E-004
  0.11430000000000001         -1.6233214410021901E-004
  0.11540000000000003         -1.6818151925690472E-004
  0.11650000000000002         -1.7323576321359724E-004
  0.11760000000000001         -1.7734491848386824E-004
  0.11870000000000003         -1.8035562243312597E-004
  0.11980000000000002         -1.8211343558505177E-004
  0.12090000000000001         -1.8246452964376658E-004
  0.12200000000000003         -1.8125749193131924E-004
  0.12310000000000001         -1.7834639584179968E-004
  0.12420000000000003         -1.7359368212055415E-004
  0.12530000000000002         -1.6687436436768621E-004
  0.12640000000000001         -1.5808004536665976E-004
  0.12750000000000003         -1.4711816038470715E-004
  0.12860000000000002         -1.3391723041422665E-004
  0.12970000000000001         -1.1843060929095373E-004
  0.13080000000000003         -1.0063896479550749E-004
  0.13190000000000002         -8.0553218140266836E-005
  0.13300000000000001         -5.8215180615661666E-005
  0.13410000000000000         -3.3699478080961853E-005
  0.13520000000000004         -7.1160352490551304E-006
  0.13630000000000003          2.1386234948295169E-005
  0.13740000000000002          5.1623490435304120E-005
  0.13850000000000001          8.3377177361398935E-005
  0.13960000000000000          1.1639569129329175E-004
  0.14070000000000005          1.5039285062812269E-004
  0.14180000000000004          1.8505305342841893E-004
  0.14290000000000003          2.2002976038493216E-004
  0.14400000000000002          2.5495665613561869E-004
  0.14510000000000001          2.8945013764314353E-004
  0.14620000000000000          3.2311235554516315E-004
  0.14730000000000004          3.5553754423744977E-004
  0.14840000000000003          3.8631865754723549E-004
  0.14950000000000002          4.1505129775032401E-004
  0.15060000000000001          4.4134244672022760E-004
  0.15170000000000000          4.6481765457428992E-004
  0.15280000000000005          4.8512831563130021E-004
  0.15390000000000004          5.0195708172395825E-004
  0.15500000000000003          5.1502184942364693E-004
  0.15610000000000002          5.2408030023798347E-004
  0.15720000000000001          5.2893674001097679E-004
  0.15830000000000000          5.2944861818104982E-004
  0.15940000000000004          5.2553066052496433E-004
  0.16050000000000003          5.1715347217395902E-004
  0.16160000000000002          5.0434225704520941E-004
  0.16270000000000001          4.8718074685893953E-004
  0.16380000000000000          4.6581000788137317E-004
  0.16490000000000005          4.4043158413842320E-004
  0.16600000000000004          4.1130243334919214E-004
  0.16710000000000003          3.7872698158025742E-004
  0.16820000000000002          3.4305173903703690E-004
  0.16930000000000001          3.0466224416159093E-004
  0.17040000000000000          2.6398018235340714E-004
  0.17150000000000004          2.2145899129100144E-004
  0.17260000000000003          1.7757191380951554E-004
  0.17370000000000002          1.3280184066388756E-004
  0.17480000000000001          8.7636108219157904E-005
  0.17590000000000000          4.2555802792776376E-005
  0.17700000000000005         -1.9626265839178814E-006
  0.17810000000000004         -4.5456978114088997E-005
  0.17920000000000003         -8.7492066086269915E-005
  0.18030000000000002         -1.2766155123244971E-004
  0.18140000000000001         -1.6559430514462292E-004
  0.18250000000000000         -2.0096270600333810E-004
  0.18360000000000004         -2.3347859678324312E-004
  0.18470000000000003         -2.6290165260434151E-004
  0.18580000000000002         -2.8903555357828736E-004
  0.18690000000000001         -3.1173555180430412E-004
  0.18800000000000000         -3.3091177465394139E-004
  0.18910000000000005         -3.4652173053473234E-004
  0.19020000000000004         -3.5856792237609625E-004
  0.19130000000000003         -3.6709825508296490E-004
  0.19240000000000002         -3.7220277590677142E-004
  0.19350000000000001         -3.7401105510070920E-004
  0.19460000000000005         -3.7268918822519481E-004
  0.19570000000000004         -3.6843304405920208E-004
  0.19680000000000003         -3.6146369529888034E-004
  0.19790000000000002         -3.5202308208681643E-004
  0.19900000000000001         -3.4036854049190879E-004
  0.20010000000000000         -3.2676692353561521E-004
  0.20120000000000005         -3.1149311689659953E-004
  0.20230000000000004         -2.9482488753274083E-004
  0.20340000000000003         -2.7703831437975168E-004
  0.20450000000000002         -2.5840164744295180E-004
  0.20560000000000000         -2.3917171347420663E-004
  0.20670000000000005         -2.1959209698252380E-004
  0.20780000000000004         -1.9989284919574857E-004
  0.20890000000000003         -1.8028744671028107E-004
