 -0.12000000000000000          0.0000000000000000
 -0.11889999999999999          0.0000000000000000
 -0.11780000000000000          0.0000000000000000
 -0.11670000000000000          0.0000000000000000
 -0.11559999999999999          0.0000000000000000
 -0.11449999999999999          1.4284272566454691E-015
 -0.11340000000000000         -2.4924151996029865E-015
 -0.11230000000000000         -1.3384939993388648E-014
 -0.11119999999999999          2.1669274583241763E-014
 -0.11009999999999999          9.6478468931352618E-014
 -0.10900000000000000         -6.4762987182255538E-014
 -0.10790000000000000         -5.1346714423708417E-013
 -0.10679999999999999         -1.4715542694977712E-013
 -0.10569999999999999          1.8767448532741593E-012
 -0.10460000000000000          2.3827196726083910E-012
 -0.10349999999999999         -3.7394427832015964E-012
 -0.10239999999999999         -1.1419124326672581E-011
 -0.10130000000000000         -2.0969820931776573E-012
 -0.10020000000000000          2.8348455527460459E-011
  -9.9099999999999994E-002     3.8769619459255722E-011
  -9.7999999999999990E-002    -2.0811784587349003E-011
  -9.6899999999999986E-002    -1.1168242719516996E-010
  -9.5799999999999996E-002    -9.2685907560063896E-011
  -9.4699999999999993E-002     1.0614287920818199E-010
  -9.3599999999999989E-002     3.0103763926092597E-010
  -9.2499999999999999E-002     1.8590765038517532E-010
  -9.1399999999999995E-002    -2.5472474129983880E-010
  -9.0299999999999991E-002    -5.8175569916940617E-010
  -8.9200000000000002E-002    -3.5416380939068404E-010
  -8.8099999999999984E-002     2.7511035116667415E-010
  -8.6999999999999994E-002     6.7017613680775412E-010
  -8.5899999999999990E-002     5.1441367832083529E-010
  -8.4799999999999986E-002     2.1862120447302402E-010
  -8.3699999999999997E-002     2.5128923941686310E-010
  -8.2599999999999993E-002     2.7846502881345714E-010
  -8.1499999999999989E-002    -5.3182963588582766E-010
  -8.0399999999999999E-002    -2.2713586567135735E-009
  -7.9299999999999995E-002    -3.7994567492205533E-009
  -7.8199999999999992E-002    -3.6941323333650189E-009
  -7.7100000000000002E-002    -1.2695933193640485E-009
  -7.5999999999999984E-002     3.6348306586830859E-009
  -7.4899999999999994E-002     1.1205784744561242E-008
  -7.3799999999999991E-002     2.1071230094094062E-008
  -7.2699999999999987E-002     3.1462867866594024E-008
  -7.1599999999999997E-002     4.0369371845372370E-008
  -7.0499999999999993E-002     4.8108027783655416E-008
  -6.9399999999999989E-002     5.7568300348975754E-008
  -6.8300000000000000E-002     7.0786633443731262E-008
  -6.7199999999999996E-002     8.6315374403511669E-008
  -6.6099999999999992E-002     1.0202876410403405E-007
  -6.5000000000000002E-002     1.2042846719850786E-007
  -6.3899999999999985E-002     1.4856058783152548E-007
  -6.2799999999999995E-002     1.9108968274395011E-007
  -6.1699999999999991E-002     2.4523856723135395E-007
  -6.0599999999999994E-002     3.0510227588820271E-007
  -5.9499999999999990E-002     3.7036286926195316E-007
  -5.8399999999999994E-002     4.4808214738623064E-007
  -5.7299999999999990E-002     5.4581528274866287E-007
  -5.6199999999999986E-002     6.6625716499402188E-007
  -5.5099999999999996E-002     8.1032476373366080E-007
  -5.3999999999999992E-002     9.8234613687964156E-007
  -5.2899999999999989E-002     1.1887319715242484E-006
  -5.1799999999999985E-002     1.4335644209495513E-006
  -5.0699999999999995E-002     1.7206422171511804E-006
  -4.9599999999999991E-002     2.0601562482625013E-006
  -4.8499999999999988E-002     2.4675298391230172E-006
  -4.7399999999999998E-002     2.9524990168283693E-006
  -4.6299999999999994E-002     3.5145064885000465E-006
  -4.5199999999999990E-002     4.1555576899554580E-006
  -4.4099999999999986E-002     4.8957126637105830E-006
  -4.2999999999999997E-002     5.7676688811625354E-006
  -4.1899999999999993E-002     6.7942801251774654E-006
  -4.0799999999999989E-002     7.9788724178797565E-006
  -3.9699999999999985E-002     9.3232592917047441E-006
  -3.8599999999999995E-002     1.0849564205273055E-005
  -3.7499999999999992E-002     1.2595938642334659E-005
  -3.6399999999999988E-002     1.4593520063499454E-005
  -3.5299999999999984E-002     1.6858350136317313E-005
  -3.4199999999999994E-002     1.9407842046348378E-005
  -3.3099999999999991E-002     2.2273745344136842E-005
  -3.1999999999999987E-002     2.5490708139841445E-005
  -3.0899999999999997E-002     2.9080760214128532E-005
  -2.9799999999999993E-002     3.3061671274481341E-005
  -2.8699999999999989E-002     3.7467551010195166E-005
  -2.7599999999999986E-002     4.2344574467279017E-005
  -2.6499999999999996E-002     4.7720845032017678E-005
  -2.5399999999999992E-002     5.3594631026498973E-005
  -2.4299999999999988E-002     5.9963618696201593E-005
  -2.3199999999999985E-002     6.6855493059847504E-005
  -2.2099999999999995E-002     7.4312294600531459E-005
  -2.0999999999999991E-002     8.2345737610012293E-005
  -1.9899999999999987E-002     9.0926776465494186E-005
  -1.8799999999999983E-002     1.0002371709560975E-004
  -1.7699999999999994E-002     1.0963039676425979E-004
  -1.6599999999999990E-002     1.1974070366704836E-004
  -1.5499999999999986E-002     1.3030871923547238E-004
  -1.4399999999999996E-002     1.4125542656984180E-004
  -1.3299999999999992E-002     1.5251187141984701E-004
  -1.2199999999999989E-002     1.6402607434429228E-004
  -1.1099999999999985E-002     1.7571833450347185E-004
  -9.9999999999999950E-003     1.8744882254395634E-004
  -8.8999999999999913E-003     1.9905637600459158E-004
  -7.7999999999999875E-003     2.1041440777480602E-004
  -6.6999999999999837E-003     2.2141572844702750E-004
  -5.5999999999999939E-003     2.3190712090581656E-004
  -4.4999999999999901E-003     2.4166369985323399E-004
  -3.3999999999999864E-003     2.5045292568393052E-004
  -2.2999999999999826E-003     2.5808697682805359E-004
  -1.1999999999999927E-003     2.6439610519446433E-004
  -9.9999999999988987E-005     2.6916703791357577E-004
   1.0000000000000148E-003     2.7214316651225090E-004
   2.1000000000000185E-003     2.7309189317747951E-004
   3.2000000000000084E-003     2.7183291967958212E-004
   4.3000000000000121E-003     2.6818600599654019E-004
   5.4000000000000159E-003     2.6192193035967648E-004
   6.5000000000000058E-003     2.5281641865149140E-004
   7.6000000000000234E-003     2.4073320673778653E-004
   8.7000000000000133E-003     2.2561359219253063E-004
   9.8000000000000032E-003     2.0738411694765091E-004
   1.0900000000000021E-002     1.8590995750855654E-004
   1.2000000000000011E-002     1.6110108117572963E-004
   1.3100000000000001E-002     1.3300251157488674E-004
   1.4200000000000018E-002     1.0175700299441814E-004
   1.5300000000000008E-002     6.7490887886378914E-005
   1.6400000000000026E-002     3.0294489988591522E-005
   1.7500000000000016E-002    -9.6660696726758033E-006
   1.8600000000000005E-002    -5.2096431318204850E-005
   1.9700000000000023E-002    -9.6637129900045693E-005
   2.0800000000000013E-002    -1.4295277651399374E-004
   2.1900000000000003E-002    -1.9070337293669581E-004
   2.3000000000000020E-002    -2.3944374697748572E-004
   2.4100000000000010E-002    -2.8862265753559768E-004
   2.5200000000000000E-002    -3.3770370646379888E-004
   2.6300000000000018E-002    -3.8622718420810997E-004
   2.7400000000000008E-002    -4.3371631181798875E-004
   2.8500000000000025E-002    -4.7956692287698388E-004
   2.9600000000000015E-002    -5.2311294712126255E-004
   3.0700000000000005E-002    -5.6378706358373165E-004
   3.1800000000000023E-002    -6.0114933876320720E-004
   3.2900000000000013E-002    -6.3475576462224126E-004
   3.4000000000000002E-002    -6.6406774567440152E-004
   3.5100000000000020E-002    -6.8855762947350740E-004
   3.6200000000000010E-002    -7.0786155993118882E-004
   3.7300000000000028E-002    -7.2175293462350965E-004
   3.8400000000000017E-002    -7.2999275289475918E-004
   3.9500000000000007E-002    -7.3229678673669696E-004
   4.0600000000000025E-002    -7.2848977288231254E-004
   4.1700000000000015E-002    -7.1860523894429207E-004
   4.2800000000000005E-002    -7.0278509519994259E-004
   4.3900000000000022E-002    -6.8112148437649012E-004
   4.5000000000000012E-002    -6.5368850482627749E-004
   4.6100000000000002E-002    -6.2073057051748037E-004
   4.7200000000000020E-002    -5.8269698638468981E-004
   4.8300000000000010E-002    -5.4008496226742864E-004
   4.9400000000000027E-002    -4.9330265028402209E-004
   5.0500000000000017E-002    -4.4275907566770911E-004
   5.1600000000000007E-002    -3.8903453969396651E-004
   5.2700000000000025E-002    -3.3285436802543700E-004
   5.3800000000000014E-002    -2.7488090563565493E-004
   5.4900000000000004E-002    -2.1565030328929424E-004
   5.6000000000000022E-002    -1.5572972188238055E-004
   5.7100000000000012E-002    -9.5840878202579916E-005
   5.8200000000000002E-002    -3.6739576898980886E-005
   5.9300000000000019E-002     2.0985362425562926E-005
   6.0400000000000009E-002     7.6906238973606378E-005
   6.1500000000000027E-002     1.3054178270976990E-004
   6.2600000000000017E-002     1.8128039664588869E-004
   6.3700000000000007E-002     2.2857557632960379E-004
   6.4800000000000024E-002     2.7211222914047539E-004
   6.5900000000000014E-002     3.1171870068646967E-004
   6.7000000000000004E-002     3.4714819048531353E-004
   6.8100000000000022E-002     3.7807758781127632E-004
   6.9200000000000012E-002     4.0432630339637399E-004
   7.0300000000000029E-002     4.2594879050739110E-004
   7.1400000000000019E-002     4.4306632480584085E-004
   7.2500000000000009E-002     4.5567264896817505E-004
   7.3600000000000027E-002     4.6373403165489435E-004
   7.4700000000000016E-002     4.6742171980440617E-004
   7.5800000000000006E-002     4.6711132745258510E-004
   7.6900000000000024E-002     4.6313807251863182E-004
   7.8000000000000014E-002     4.5566071639768779E-004
   7.9100000000000004E-002     4.4484264799393713E-004
   8.0200000000000021E-002     4.3106739758513868E-004
   8.1300000000000011E-002     4.1484914254397154E-004
   8.2400000000000029E-002     3.9657202432863414E-004
   8.3500000000000019E-002     3.7644460098817945E-004
   8.4600000000000009E-002     3.5472851595841348E-004
   8.5700000000000026E-002     3.3186891232617199E-004
   8.6800000000000016E-002     3.0832123593427241E-004
   8.7900000000000006E-002     2.8434116393327713E-004
   8.9000000000000024E-002     2.6006583357229829E-004
   9.0100000000000013E-002     2.3575939121656120E-004
   9.1200000000000003E-002     2.1183276840019971E-004
   9.2300000000000021E-002     1.8859028932638466E-004
   9.3400000000000011E-002     1.6608911391813308E-004
   9.4500000000000028E-002     1.4433130854740739E-004
   9.5600000000000018E-002     1.2350724136922508E-004
   9.6700000000000008E-002     1.0391883552074432E-004
   9.7800000000000026E-002     8.5696599853690714E-005
   9.8900000000000016E-002     6.8738481786567718E-005
  0.10000000000000001          5.2960738685214892E-005
  0.10110000000000002          3.8476795452879742E-005
  0.10220000000000001          2.5442650439799763E-005
  0.10330000000000003          1.3814105841447599E-005
  0.10440000000000002          3.3970682125072926E-006
  0.10550000000000001         -5.8907685343001503E-006
  0.10660000000000003         -1.3955349459138233E-005
  0.10770000000000002         -2.0760810002684593E-005
  0.10880000000000001         -2.6486213755561039E-005
  0.10990000000000003         -3.1361319997813553E-005
  0.11100000000000002         -3.5422468499746174E-005
  0.11210000000000001         -3.8566438888665289E-005
  0.11320000000000002         -4.0824765164870769E-005
  0.11430000000000001         -4.2432711779838428E-005
  0.11540000000000003         -4.3588945118244737E-005
  0.11650000000000002         -4.4267751945881173E-005
  0.11760000000000001         -4.4374130084179342E-005
  0.11870000000000003         -4.3991596612613648E-005
  0.11980000000000002         -4.3347357859602198E-005
  0.12090000000000001         -4.2552201193757355E-005
  0.12200000000000003         -4.1514256736263633E-005
  0.12310000000000001         -4.0161485230783001E-005
  0.12420000000000003         -3.8627560570603237E-005
  0.12530000000000002         -3.7110468838363886E-005
  0.12640000000000001         -3.5625584132503718E-005
  0.12750000000000003         -3.4029704693239182E-005
  0.12860000000000002         -3.2281292078550905E-005
  0.12970000000000001         -3.0536124540958554E-005
  0.13080000000000003         -2.8939142794115469E-005
  0.13190000000000002         -2.7432259230408818E-005
  0.13300000000000001         -2.5873008780763485E-005
  0.13410000000000000         -2.4271614165627398E-005
  0.13520000000000004         -2.2783109670854174E-005
  0.13630000000000003         -2.1473466404131614E-005
  0.13740000000000002         -2.0224972104188055E-005
  0.13850000000000001         -1.8926504708360881E-005
  0.13960000000000000         -1.7651456801104359E-005
  0.14070000000000005         -1.6546928236493841E-005
  0.14180000000000004         -1.5605233784299344E-005
  0.14290000000000003         -1.4671751159767155E-005
  0.14400000000000002         -1.3676912203663960E-005
  0.14510000000000001         -1.2738016266666818E-005
  0.14620000000000000         -1.1976469977525994E-005
  0.14730000000000004         -1.1333419024595059E-005
  0.14840000000000003         -1.0660055522748735E-005
  0.14950000000000002         -9.9386061265249737E-006
  0.15060000000000001         -9.2965847215964459E-006
  0.15170000000000000         -8.8012693595374003E-006
  0.15280000000000005         -8.3552304204204120E-006
  0.15390000000000004         -7.8486482379958034E-006
  0.15500000000000003         -7.3266919571324252E-006
  0.15610000000000002         -6.9129482653806917E-006
  0.15720000000000001         -6.6122452153649647E-006
  0.15830000000000000         -6.2988115132611711E-006
  0.15940000000000004         -5.9054723351437133E-006
  0.16050000000000003         -5.5234031606232747E-006
  0.16160000000000002         -5.2598657021007966E-006
  0.16270000000000001         -5.0755788834067062E-006
  0.16380000000000000         -4.8455840442329645E-006
  0.16490000000000005         -4.5450128709489945E-006
  0.16600000000000004         -4.2771025619003922E-006
  0.16710000000000003         -4.1092480387305841E-006
  0.16820000000000002         -3.9737224142299965E-006
  0.16930000000000001         -3.7787274322909070E-006
  0.17040000000000000         -3.5494822441251017E-006
  0.17150000000000004         -3.3822279874584638E-006
  0.17260000000000003         -3.2894045034481678E-006
  0.17370000000000002         -3.1792465051694307E-006
  0.17480000000000001         -2.9988643746037269E-006
  0.17590000000000000         -2.8165918593003880E-006
  0.17700000000000005         -2.7171602141606854E-006
  0.17810000000000004         -2.6718305434769718E-006
  0.17920000000000003         -2.5811564228206407E-006
  0.18030000000000002         -2.4227647372754291E-006
  0.18140000000000001         -2.2805932076153113E-006
  0.18250000000000000         -2.2175900085130706E-006
  0.18360000000000004         -2.1865726012038067E-006
  0.18470000000000003         -2.1070447928650538E-006
  0.18580000000000002         -1.9835604234685889E-006
  0.18690000000000001         -1.8887189980887342E-006
  0.18800000000000000         -1.8480594690117869E-006
  0.18910000000000005         -1.8072274770020158E-006
  0.19020000000000004         -1.7229732520718244E-006
  0.19130000000000003         -1.6296239664370660E-006
  0.19240000000000002         -1.5803807400516234E-006
  0.19350000000000001         -1.5614830317645101E-006
  0.19460000000000005         -1.5133896340557840E-006
  0.19570000000000004         -1.4241537655834691E-006
  0.19680000000000003         -1.3484367400451447E-006
  0.19790000000000002         -1.3247696415419341E-006
  0.19900000000000001         -1.3185610896471189E-006
  0.20010000000000000         -1.2747229902743129E-006
  0.20120000000000005         -1.1976502491961583E-006
  0.20230000000000004         -1.1396000445529353E-006
  0.20340000000000003         -1.1215906852157786E-006
  0.20450000000000002         -1.1074807844124734E-006
  0.20560000000000000         -1.0633133342707879E-006
  0.20670000000000005         -1.0067340099340072E-006
  0.20780000000000004         -9.7488009487278759E-007
  0.20890000000000003         -9.6626627055229619E-007
