 -0.12000000000000000          0.0000000000000000
 -0.11889999999999999          0.0000000000000000
 -0.11780000000000000          0.0000000000000000
 -0.11670000000000000          0.0000000000000000
 -0.11559999999999999          0.0000000000000000
 -0.11449999999999999          0.0000000000000000
 -0.11340000000000000          0.0000000000000000
 -0.11230000000000000          4.5173334915543855E-021
 -0.11119999999999999         -2.1335217507987356E-021
 -0.11009999999999999         -5.0255093159369238E-020
 -0.10900000000000000          6.3247356507830386E-021
 -0.10790000000000000          3.2296866351523760E-019
 -0.10679999999999999          1.0674557717373977E-019
 -0.10569999999999999         -1.4623047761222683E-018
 -0.10460000000000000         -1.2596300164102911E-018
 -0.10349999999999999          4.7662432272616785E-018
 -0.10239999999999999          7.2483702952041428E-018
 -0.10130000000000000         -1.0592410048849818E-017
 -0.10020000000000000         -2.7792543971565133E-017
  -9.9099999999999994E-002     1.2570398243991732E-017
  -9.7999999999999990E-002     7.9820460804419312E-017
  -9.6899999999999986E-002     1.2145883363365230E-017
  -9.5799999999999996E-002    -1.8955655035397421E-016
  -9.4699999999999993E-002    -1.2843990713135484E-016
  -9.3599999999999989E-002     3.9215259059577714E-016
  -9.2499999999999999E-002     5.3948947190813040E-016
  -9.1399999999999995E-002    -6.0574327731161850E-016
  -9.0299999999999991E-002    -1.6980233383172912E-015
  -8.9200000000000002E-002     1.2997302353099532E-016
  -8.8099999999999984E-002     3.8443742275944687E-015
  -8.6999999999999994E-002     2.7951547275888037E-015
  -8.5899999999999990E-002    -5.4413006896460517E-015
  -8.4799999999999986E-002    -9.5917485786649673E-015
  -8.3699999999999997E-002     2.5228135180140488E-015
  -8.2599999999999993E-002     1.8417215249069176E-014
  -8.1499999999999989E-002     8.2132600552490068E-015
  -8.0399999999999999E-002    -2.5318153606609939E-014
  -7.9299999999999995E-002    -2.8646833847125255E-014
  -7.8199999999999992E-002     2.6885410198585098E-014
  -7.7100000000000002E-002     6.7104572495490372E-014
  -7.5999999999999984E-002    -4.8575484522879638E-015
  -7.4899999999999994E-002    -1.2584705955283326E-013
  -7.3799999999999991E-002    -8.8558948043750141E-014
  -7.2699999999999987E-002     1.4607405725546724E-013
  -7.1599999999999997E-002     2.6607204937564854E-013
  -7.0499999999999993E-002    -1.4646019585919795E-014
  -6.9399999999999989E-002    -4.1285109554124733E-013
  -6.8300000000000000E-002    -2.8991373646376772E-013
  -6.7199999999999996E-002     3.7689483153337255E-013
  -6.6099999999999992E-002     6.6022843659210850E-013
  -6.5000000000000002E-002    -1.0487793901566012E-013
  -6.3899999999999985E-002    -1.0222490172059895E-012
  -6.2799999999999995E-002    -5.2546839492476072E-013
  -6.1699999999999991E-002     1.1612636850386049E-012
  -6.0599999999999994E-002     1.6429054297550927E-012
  -5.9499999999999990E-002    -4.3080353195369681E-013
  -5.8399999999999994E-002    -2.6582670526603680E-012
  -5.7299999999999990E-002    -1.4798601797108568E-012
  -5.6199999999999986E-002     2.3741848331065851E-012
  -5.5099999999999996E-002     3.6569857385371218E-012
  -5.3999999999999992E-002    -3.4670782412572765E-013
  -5.2899999999999989E-002    -4.7691820111162020E-012
  -5.1799999999999985E-002    -2.8353903426536764E-012
  -5.0699999999999995E-002     3.9462547812840754E-012
  -4.9599999999999991E-002     6.1618149818642998E-012
  -4.8499999999999988E-002    -6.3208211451351581E-013
  -4.7399999999999998E-002    -7.9607978195617157E-012
  -4.6299999999999994E-002    -4.8449191707156114E-012
  -4.5199999999999990E-002     5.9952416295305788E-012
  -4.4099999999999986E-002     1.0003288128390686E-011
  -4.2999999999999997E-002     7.0879570658946567E-013
  -4.1899999999999993E-002    -9.9521103164024183E-012
  -4.0799999999999989E-002    -7.5305178759421665E-012
  -3.9699999999999985E-002     4.1723174394603380E-012
  -3.8599999999999995E-002     8.2177606733346842E-012
  -3.7499999999999992E-002    -6.3655038271687170E-013
  -3.6399999999999988E-002    -8.0509314492882567E-012
  -3.5299999999999984E-002    -1.8639827095018324E-012
  -3.4199999999999994E-002     9.1500088755802622E-012
  -3.3099999999999991E-002     8.9033251257641943E-012
  -3.1999999999999987E-002    -8.5820510854067722E-013
  -3.0899999999999997E-002    -4.3729611945431124E-012
  -2.9799999999999993E-002     6.2954882192739481E-013
  -2.8699999999999989E-002    -1.9714479614768576E-012
  -2.7599999999999986E-002    -1.6761333640480380E-011
  -2.6499999999999996E-002    -2.0919059887103408E-011
  -2.5399999999999992E-002     2.9902512757584709E-012
  -2.4299999999999988E-002     3.0767388636832038E-011
  -2.3199999999999985E-002     2.1639650141236366E-011
  -2.2099999999999995E-002    -1.9670950632266759E-011
  -2.0999999999999991E-002    -3.8398579454979043E-011
  -1.9899999999999987E-002    -5.0765455207602006E-012
  -1.8799999999999983E-002     3.2657536397362463E-011
  -1.7699999999999994E-002     9.2001224347160182E-012
  -1.6599999999999990E-002    -5.9788091144596933E-011
  -1.5499999999999986E-002    -8.4349811857453716E-011
  -1.4399999999999996E-002    -1.9601972822691494E-011
  -1.3299999999999992E-002     6.4493244078533962E-011
  -1.2199999999999989E-002     6.8701586086739042E-011
  -1.1099999999999985E-002    -7.3295111299720439E-012
  -9.9999999999999950E-003    -7.1610294083424009E-011
  -8.8999999999999913E-003    -6.8366479144543746E-011
  -7.7999999999999875E-003    -4.3222536660891819E-011
  -6.6999999999999837E-003    -6.1215130187086686E-011
  -5.5999999999999939E-003    -1.0940999495279158E-010
  -4.4999999999999901E-003    -1.2941499261120981E-010
  -3.3999999999999864E-003    -1.1115008219375611E-010
  -2.2999999999999826E-003    -9.2272925411585049E-011
  -1.1999999999999927E-003    -8.1016152120305662E-011
  -9.9999999999988987E-005    -4.9467485663257094E-011
   1.0000000000000148E-003    -2.0956614915634830E-011
   2.1000000000000185E-003    -9.5010943557127803E-011
   3.2000000000000084E-003    -3.0176716681040716E-010
   4.3000000000000121E-003    -5.0322074285347185E-010
   5.4000000000000159E-003    -5.2148724227762955E-010
   6.5000000000000058E-003    -3.8817593583928556E-010
   7.6000000000000234E-003    -3.2292238327791267E-010
   8.7000000000000133E-003    -4.5394646375207515E-010
   9.8000000000000032E-003    -6.2280175461282283E-010
   1.0900000000000021E-002    -6.1249744165436937E-010
   1.2000000000000011E-002    -4.5956802252611340E-010
   1.3100000000000001E-002    -4.4487205586030143E-010
   1.4200000000000018E-002    -7.3590006310908507E-010
   1.5300000000000008E-002    -1.1800415089524563E-009
   1.6400000000000026E-002    -1.4804982795268984E-009
   1.7500000000000016E-002    -1.5548959897415671E-009
   1.8600000000000005E-002    -1.5272240139196924E-009
   1.9700000000000023E-002    -1.5306744760579249E-009
   2.0800000000000013E-002    -1.6026497906551640E-009
   2.1900000000000003E-002    -1.6743550990128142E-009
   2.3000000000000020E-002    -1.7814325570242318E-009
   2.4100000000000010E-002    -1.8729284789742451E-009
   2.5200000000000000E-002    -2.0609931539183890E-009
   2.6300000000000018E-002    -2.2781898589840921E-009
   2.7400000000000008E-002    -2.5423307903338355E-009
   2.8500000000000025E-002    -2.9353492969619310E-009
   2.9600000000000015E-002    -3.3291629453202631E-009
   3.0700000000000005E-002    -3.4143730065494537E-009
   3.1800000000000023E-002    -3.2940579153262206E-009
   3.2900000000000013E-002    -3.1081406337563067E-009
   3.4000000000000002E-002    -2.9658184796943488E-009
   3.5100000000000020E-002    -3.0376570148149540E-009
   3.6200000000000010E-002    -3.0842177700662887E-009
   3.7300000000000028E-002    -2.8179549804718818E-009
   3.8400000000000017E-002    -2.5942421544300487E-009
   3.9500000000000007E-002    -2.5553128502053823E-009
   4.0600000000000025E-002    -2.8116664552157999E-009
   4.1700000000000015E-002    -2.7860778128996344E-009
   4.2800000000000005E-002    -2.2743218419662981E-009
   4.3900000000000022E-002    -1.5384428175835296E-009
   4.5000000000000012E-002    -1.0412203321763513E-009
   4.6100000000000002E-002    -7.4717398934609491E-010
   4.7200000000000020E-002    -6.4630176210833667E-012
   4.8300000000000010E-002     1.4202629072812556E-009
   4.9400000000000027E-002     2.2820845213544771E-009
   5.0500000000000017E-002     2.9294178194305687E-009
   5.1600000000000007E-002     3.7678282716058220E-009
   5.2700000000000025E-002     4.6686063903678132E-009
   5.3800000000000014E-002     4.8893751269929453E-009
   5.4900000000000004E-002     5.7563340760680148E-009
   5.6000000000000022E-002     6.6936807208151095E-009
   5.7100000000000012E-002     8.8902085693121080E-009
   5.8200000000000002E-002     1.0180010612259593E-008
   5.9300000000000019E-002     9.3034087100818397E-009
   6.0400000000000009E-002     9.0796863361219948E-009
   6.1500000000000027E-002     1.1301924729423263E-008
   6.2600000000000017E-002     1.5846531198349112E-008
   6.3700000000000007E-002     1.6548387549164545E-008
   6.4800000000000024E-002     1.3797667008930148E-008
   6.5900000000000014E-002     1.1712657510543067E-008
   6.7000000000000004E-002     1.2439726582158528E-008
   6.8100000000000022E-002     1.3915209429171682E-008
   6.9200000000000012E-002     1.4927747926662960E-008
   7.0300000000000029E-002     1.5145820597695092E-008
   7.1400000000000019E-002     1.5365566596869940E-008
   7.2500000000000009E-002     1.3283062649804833E-008
   7.3600000000000027E-002     9.9912931261769700E-009
   7.4700000000000016E-002     7.1703474269213530E-009
   7.5800000000000006E-002     8.4380804565853396E-009
   7.6900000000000024E-002     1.0961386465169198E-008
   7.8000000000000014E-002     1.1538066502225774E-008
   7.9100000000000004E-002     6.4795320220412123E-009
   8.0200000000000021E-002    -1.0050320575771821E-009
   8.1300000000000011E-002    -4.8689252629685598E-009
   8.2400000000000029E-002    -2.6776785233550982E-009
   8.3500000000000019E-002     1.3617362792928134E-009
   8.4600000000000009E-002     2.1496925073360984E-010
   8.5700000000000026E-002    -6.8994832069790846E-009
   8.6800000000000016E-002    -1.4836418316122035E-008
   8.7900000000000006E-002    -1.7736573099114139E-008
   8.9000000000000024E-002    -1.5363470495799447E-008
   9.0100000000000013E-002    -1.1580979730752006E-008
   9.1200000000000003E-002    -1.1265407273697292E-008
   9.2300000000000021E-002    -1.5409764131391057E-008
   9.3400000000000011E-002    -2.2439664348894439E-008
   9.4500000000000028E-002    -2.6788855578274706E-008
   9.5600000000000018E-002    -2.4762702111047474E-008
   9.6700000000000008E-002    -1.7526396334233141E-008
   9.7800000000000026E-002    -1.2895299050796893E-008
   9.8900000000000016E-002    -1.5438075706697418E-008
  0.10000000000000001         -2.4407448506735818E-008
  0.10110000000000002         -2.9995103290048064E-008
  0.10220000000000001         -2.5704002482029864E-008
  0.10330000000000003         -1.3021060674134333E-008
  0.10440000000000002         -4.2949626077870562E-009
  0.10550000000000001         -7.1783050614726562E-009
  0.10660000000000003         -1.6590377072134288E-008
  0.10770000000000002         -2.1154018980951150E-008
  0.10880000000000001         -1.5836059574780847E-008
  0.10990000000000003         -4.1108823012336870E-009
  0.11100000000000002          3.8870271446000970E-009
  0.11210000000000001          4.3192303067485227E-009
  0.11320000000000002          1.2951952843565095E-009
  0.11430000000000001         -4.1857486365870500E-009
  0.11540000000000003         -6.7701511063944508E-009
  0.11650000000000002         -1.5021659471869953E-009
  0.11760000000000001          1.1891536644270673E-008
  0.11870000000000003          2.2564913493283711E-008
  0.11980000000000002          1.8810577984140764E-008
  0.12090000000000001          2.6468325309281227E-009
  0.12200000000000003         -5.3777702291313290E-009
  0.12310000000000001          4.1745611412125072E-009
  0.12420000000000003          2.0847332748985536E-008
  0.12530000000000002          2.5896188304841417E-008
  0.12640000000000001          1.6609575936854526E-008
  0.12750000000000003          6.6340741788906143E-009
  0.12860000000000002          6.8488046345294151E-009
  0.12970000000000001          1.1547411027379439E-008
  0.13080000000000003          1.2740554389267800E-008
  0.13190000000000002          1.1172978098272779E-008
  0.13300000000000001          1.2325140907876175E-008
  0.13410000000000000          1.2934648907503288E-008
  0.13520000000000004          6.8881509385221307E-009
  0.13630000000000003         -1.8993402406408677E-009
  0.13740000000000002         -1.6735175467630370E-009
  0.13850000000000001          9.8573584850214502E-009
  0.13960000000000000          1.8688162128910335E-008
  0.14070000000000005          1.2420881212449331E-008
  0.14180000000000004         -2.4733461945203317E-009
  0.14290000000000003         -8.5284801443208380E-009
  0.14400000000000002         -1.4552198335238131E-009
  0.14510000000000001          5.9524021267520766E-009
  0.14620000000000000          3.6541458747763045E-009
  0.14730000000000004         -2.4845259183337021E-009
  0.14840000000000003         -2.1568375974112541E-009
  0.14950000000000002          1.0386977944421005E-009
  0.15060000000000001         -2.3915258662299266E-009
  0.15170000000000000         -1.0554868978829290E-008
  0.15280000000000005         -9.3181080629278767E-009
  0.15390000000000004          4.3134078531181785E-009
  0.15500000000000003          1.2736167676052901E-008
  0.15610000000000002          2.0086872165592240E-009
  0.15720000000000001         -1.5996027613596198E-008
  0.15830000000000000         -1.7891499837219271E-008
  0.15940000000000004         -1.0083222035106587E-009
  0.16050000000000003          1.3188516057027755E-008
  0.16160000000000002          7.8432291772401186E-009
  0.16270000000000001         -7.7490671657187704E-009
  0.16380000000000000         -1.4040050011487892E-008
  0.16490000000000005         -7.1848624827453023E-009
  0.16600000000000004         -5.4358079148997263E-010
  0.16710000000000003         -8.1288364928155943E-010
  0.16820000000000002          3.0196653511005422E-010
  0.16930000000000001          6.2569944780932474E-009
  0.17040000000000000          6.4070051486453394E-009
  0.17150000000000004         -6.4068936822536671E-009
  0.17260000000000003         -1.8093547993203174E-008
  0.17370000000000002         -9.4676089190670609E-009
  0.17480000000000001          1.2993874420885732E-008
  0.17590000000000000          2.0817434887021591E-008
  0.17700000000000005          1.6904330157885283E-009
  0.17810000000000004         -2.1169949349086892E-008
  0.17920000000000003         -1.8900916387565303E-008
  0.18030000000000002          4.7083217324939142E-009
  0.18140000000000001          1.9325581135376524E-008
  0.18250000000000000          9.8157588723779554E-009
  0.18360000000000004         -6.8027121713498673E-009
  0.18470000000000003         -9.8529397973834421E-009
  0.18580000000000002         -2.3642920954358715E-009
  0.18690000000000001          4.9751397446229362E-010
  0.18800000000000000         -2.2589776715875587E-009
  0.18910000000000005          1.4163163974956205E-009
  0.19020000000000004          1.0783864468066895E-008
  0.19130000000000003          9.2991419009536003E-009
  0.19240000000000002         -7.7051014457651945E-009
  0.19350000000000001         -1.9056349387369664E-008
  0.19460000000000005         -5.9742064628665048E-009
  0.19570000000000004          1.7274341956863282E-008
  0.19680000000000003          1.9541635865039098E-008
  0.19790000000000002         -3.6422647120559759E-009
  0.19900000000000001         -2.1801525917908293E-008
  0.20010000000000000         -1.1430392632405528E-008
  0.20120000000000005          1.1742266714520611E-008
  0.20230000000000004          1.6681992676126356E-008
  0.20340000000000003          4.6280965171341393E-010
  0.20450000000000002         -1.1442773839576148E-008
  0.20560000000000000         -4.6772199446820650E-009
  0.20670000000000005          5.7403992670401749E-009
  0.20780000000000004          2.8361171189317247E-009
  0.20890000000000003         -5.5695701384195218E-009
