 -0.12000000000000000          0.0000000000000000
 -0.11889999999999999          0.0000000000000000
 -0.11780000000000000          0.0000000000000000
 -0.11670000000000000          0.0000000000000000
 -0.11559999999999999          0.0000000000000000
 -0.11449999999999999          0.0000000000000000
 -0.11340000000000000          0.0000000000000000
 -0.11230000000000000          4.5173334915543855E-021
 -0.11119999999999999          2.6953383395904554E-021
 -0.11009999999999999         -3.9686148311642383E-020
 -0.10900000000000000         -4.3154532775948567E-020
 -0.10790000000000000          1.2673961825370042E-019
 -0.10679999999999999          1.1275686670622454E-019
 -0.10569999999999999         -2.9436465453557734E-019
 -0.10460000000000000          7.7179637274802171E-019
 -0.10349999999999999          3.4095603163756938E-018
 -0.10239999999999999         -2.6647561394849845E-018
 -0.10130000000000000         -2.4008300202614664E-017
 -0.10020000000000000         -2.3006915353057968E-017
  -9.9099999999999994E-002     5.9794438026845214E-017
  -9.7999999999999990E-002     1.6465781834608704E-016
  -9.6899999999999986E-002     6.5371819112269760E-017
  -9.5799999999999996E-002    -3.2096637999152924E-016
  -9.4699999999999993E-002    -5.9947475704590384E-016
  -9.3599999999999989E-002    -2.6554607304386444E-016
  -9.2499999999999999E-002     5.2617946087277234E-016
  -9.1399999999999995E-002     1.2265280598214605E-015
  -9.0299999999999991E-002     1.9775489754715386E-015
  -8.9200000000000002E-002     2.6896684207113053E-015
  -8.8099999999999984E-002     1.9473867145549642E-016
  -8.6999999999999994E-002    -9.5672515387974257E-015
  -8.5899999999999990E-002    -2.1019359755340694E-014
  -8.4799999999999986E-002    -1.4576910167753317E-014
  -8.3699999999999997E-002     2.3028633714576932E-014
  -8.2599999999999993E-002     6.8656255539697314E-014
  -8.1499999999999989E-002     7.0093866962831625E-014
  -8.0399999999999999E-002     1.8026841057085718E-015
  -7.9299999999999995E-002    -9.8447481720539964E-014
  -7.8199999999999992E-002    -1.7167476750075406E-013
  -7.7100000000000002E-002    -1.9459218578935650E-013
  -7.5999999999999984E-002    -1.4046687532749680E-013
  -7.4899999999999994E-002     9.1882786643938952E-014
  -7.3799999999999991E-002     5.6259543464859396E-013
  -7.2699999999999987E-002     1.0080224415592864E-012
  -7.1599999999999997E-002     8.3523894181189440E-013
  -7.0499999999999993E-002    -2.9889692066895068E-013
  -6.9399999999999989E-002    -1.8545852787515971E-012
  -6.8300000000000000E-002    -2.6645740735381507E-012
  -6.7199999999999996E-002    -2.0365256789972586E-012
  -6.6099999999999992E-002    -3.4666621786735852E-013
  -6.5000000000000002E-002     1.7393216858105354E-012
  -6.3899999999999985E-002     4.1749277646108141E-012
  -6.2799999999999995E-002     6.7709930544335162E-012
  -6.1699999999999991E-002     7.5979647920498827E-012
  -6.0599999999999994E-002     3.6871334978261228E-012
  -5.9499999999999990E-002    -5.3345960461526065E-012
  -5.8399999999999994E-002    -1.5047071227902720E-011
  -5.7299999999999990E-002    -1.9570289833126253E-011
  -5.6199999999999986E-002    -1.7235570609619444E-011
  -5.5099999999999996E-002    -1.0806308105293372E-011
  -5.3999999999999992E-002    -1.1947499196571232E-012
  -5.2899999999999989E-002     1.5830942459715835E-011
  -5.1799999999999985E-002     4.2452256987512982E-011
  -5.0699999999999995E-002     6.8811373266086662E-011
  -4.9599999999999991E-002     7.5453795989055550E-011
  -4.8499999999999988E-002     4.9080850494931383E-011
  -4.7399999999999998E-002    -6.5036509164229095E-012
  -4.6299999999999994E-002    -7.7458900404892006E-011
  -4.5199999999999990E-002    -1.5275535003578256E-010
  -4.4099999999999986E-002    -2.2125641596648649E-010
  -4.2999999999999997E-002    -2.5614368959203659E-010
  -4.1899999999999993E-002    -2.1505976166569241E-010
  -4.0799999999999989E-002    -6.9065093921683030E-011
  -3.9699999999999985E-002     1.6694895466073945E-010
  -3.8599999999999995E-002     4.3755224443664531E-010
  -3.7499999999999992E-002     6.7744704290717550E-010
  -3.6399999999999988E-002     8.2886497665413117E-010
  -3.5299999999999984E-002     8.2947032575830804E-010
  -3.4199999999999994E-002     6.0446825322912900E-010
  -3.3099999999999991E-002     9.7093395823311113E-011
  -3.1999999999999987E-002    -6.8152344878669169E-010
  -3.0899999999999997E-002    -1.6310373052164095E-009
  -2.9799999999999993E-002    -2.5782611601243843E-009
  -2.8699999999999989E-002    -3.2951075201737012E-009
  -2.7599999999999986E-002    -3.5026770373036697E-009
  -2.6499999999999996E-002    -2.8971782750630837E-009
  -2.5399999999999992E-002    -1.2209897537474035E-009
  -2.4299999999999988E-002     1.6695325122384475E-009
  -2.3199999999999985E-002     5.8055071860962926E-009
  -2.2099999999999995E-002     1.1159309920572014E-008
  -2.0999999999999991E-002     1.7666991425357992E-008
  -1.9899999999999987E-002     2.5200598940955388E-008
  -1.8799999999999983E-002     3.3585791925361264E-008
  -1.7699999999999994E-002     4.2738850680734686E-008
  -1.6599999999999990E-002     5.2840000819287525E-008
  -1.5499999999999986E-002     6.4385190512439294E-008
  -1.4399999999999996E-002     7.8097244227137708E-008
  -1.3299999999999992E-002     9.4849227139093273E-008
  -1.2199999999999989E-002     1.1570796232263092E-007
  -1.1099999999999985E-002     1.4199845566054137E-007
  -9.9999999999999950E-003     1.7523117890050344E-007
  -8.8999999999999913E-003     2.1693179519388650E-007
  -7.7999999999999875E-003     2.6858714363697800E-007
  -6.6999999999999837E-003     3.3180492664541816E-007
  -5.5999999999999939E-003     4.0853231553228397E-007
  -4.4999999999999901E-003     5.0113561655962258E-007
  -3.3999999999999864E-003     6.1238188209244981E-007
  -2.2999999999999826E-003     7.4549905093590496E-007
  -1.1999999999999927E-003     9.0435366928431904E-007
  -9.9999999999988987E-005     1.0935958698610193E-006
   1.0000000000000148E-003     1.3186778460294590E-006
   2.1000000000000185E-003     1.5858497590670595E-006
   3.2000000000000084E-003     1.9022552351088962E-006
   4.3000000000000121E-003     2.2760309548175428E-006
   5.4000000000000159E-003     2.7162575406691758E-006
   6.5000000000000058E-003     3.2328589441021904E-006
   7.6000000000000234E-003     3.8367288652807474E-006
   8.7000000000000133E-003     4.5400720409816131E-006
   9.8000000000000032E-003     5.3566232054436114E-006
   1.0900000000000021E-002     6.3015049818204716E-006
   1.2000000000000011E-002     7.3909568527597003E-006
   1.3100000000000001E-002     8.6424197434098460E-006
   1.4200000000000018E-002     1.0074971214635298E-005
   1.5300000000000008E-002     1.1709543286997359E-005
   1.6400000000000026E-002     1.3568720532930456E-005
   1.7500000000000016E-002     1.5676194379921071E-005
   1.8600000000000005E-002     1.8056523913401179E-005
   1.9700000000000023E-002     2.0735056750709191E-005
   2.0800000000000013E-002     2.3737784431432374E-005
   2.1900000000000003E-002     2.7090904040960595E-005
   2.3000000000000020E-002     3.0820159736322239E-005
   2.4100000000000010E-002     3.4950662666233256E-005
   2.5200000000000000E-002     3.9506463508587331E-005
   2.6300000000000018E-002     4.4510303268907592E-005
   2.7400000000000008E-002     4.9982536438619718E-005
   2.8500000000000025E-002     5.5940570746315643E-005
   2.9600000000000015E-002     6.2398117734119296E-005
   3.0700000000000005E-002     6.9364417868200690E-005
   3.1800000000000023E-002     7.6842770795337856E-005
   3.2900000000000013E-002     8.4829480329062790E-005
   3.4000000000000002E-002     9.3312701210379601E-005
   3.5100000000000020E-002     1.0227134043816477E-004
   3.6200000000000010E-002     1.1167456250404939E-004
   3.7300000000000028E-002     1.2148084351792932E-004
   3.8400000000000017E-002     1.3163690164219588E-004
   3.9500000000000007E-002     1.4207686763256788E-004
   4.0600000000000025E-002     1.5272169548552483E-004
   4.1700000000000015E-002     1.6347906785085797E-004
   4.2800000000000005E-002     1.7424268298782408E-004
   4.3900000000000022E-002     1.8489159992896020E-004
   4.5000000000000012E-002     1.9528981647454202E-004
   4.6100000000000002E-002     2.0528797176666558E-004
   4.7200000000000020E-002     2.1472340449690819E-004
   4.8300000000000010E-002     2.2342058946378529E-004
   4.9400000000000027E-002     2.3119237448554486E-004
   5.0500000000000017E-002     2.3784412769600749E-004
   5.1600000000000007E-002     2.4317446514032781E-004
   5.2700000000000025E-002     2.4697685148566961E-004
   5.3800000000000014E-002     2.4904258316382766E-004
   5.4900000000000004E-002     2.4916528491303325E-004
   5.6000000000000022E-002     2.4714434402994812E-004
   5.7100000000000012E-002     2.4278945056721568E-004
   5.8200000000000002E-002     2.3592106299474835E-004
   5.9300000000000019E-002     2.2637682559434325E-004
   6.0400000000000009E-002     2.1401933918241411E-004
   6.1500000000000027E-002     1.9873383280355483E-004
   6.2600000000000017E-002     1.8043335876427591E-004
   6.3700000000000007E-002     1.5906438056845218E-004
   6.4800000000000024E-002     1.3461682829074562E-004
   6.5900000000000014E-002     1.0712438961490989E-004
   6.7000000000000004E-002     7.6657983299810439E-005
   6.8100000000000022E-002     4.3330066546332091E-005
   6.9200000000000012E-002     7.3006758611882105E-006
   7.0300000000000029E-002    -3.1216692150337622E-005
   7.1400000000000019E-002    -7.1955786552280188E-005
   7.2500000000000009E-002    -1.1460651148809120E-004
   7.3600000000000027E-002    -1.5881734725553542E-004
   7.4700000000000016E-002    -2.0419685461092740E-004
   7.5800000000000006E-002    -2.5031616678461432E-004
   7.6900000000000024E-002    -2.9671000083908439E-004
   7.8000000000000014E-002    -3.4288095775991678E-004
   7.9100000000000004E-002    -3.8830935955047607E-004
   8.0200000000000021E-002    -4.3246286804787815E-004
   8.1300000000000011E-002    -4.7480734065175056E-004
   8.2400000000000029E-002    -5.1481166156008840E-004
   8.3500000000000019E-002    -5.5195484310388565E-004
   8.4600000000000009E-002    -5.8572791749611497E-004
   8.5700000000000026E-002    -6.1564421048387885E-004
   8.6800000000000016E-002    -6.4125610515475273E-004
   8.7900000000000006E-002    -6.6216650884598494E-004
   8.9000000000000024E-002    -6.7803607089444995E-004
   9.0100000000000013E-002    -6.8857974838465452E-004
   9.1200000000000003E-002    -6.9356750464066863E-004
   9.2300000000000021E-002    -6.9283344782888889E-004
   9.3400000000000011E-002    -6.8628956796601415E-004
   9.4500000000000028E-002    -6.7393033532425761E-004
   9.5600000000000018E-002    -6.5583118703216314E-004
   9.6700000000000008E-002    -6.3213839894160628E-004
   9.7800000000000026E-002    -6.0306646628305316E-004
   9.8900000000000016E-002    -5.6889822008088231E-004
  0.10000000000000001         -5.2998634055256844E-004
  0.10110000000000002         -4.8675225116312504E-004
  0.10220000000000001         -4.3967863894067705E-004
  0.10330000000000003         -3.8929237052798271E-004
  0.10440000000000002         -3.3615619759075344E-004
  0.10550000000000001         -2.8085775556974113E-004
  0.10660000000000003         -2.2400335001293570E-004
  0.10770000000000002         -1.6622216207906604E-004
  0.10880000000000001         -1.0815088171511889E-004
  0.10990000000000003         -5.0416827434673905E-005
  0.11100000000000002          6.3781972130527720E-006
  0.11210000000000001          6.1665035900659859E-005
  0.11320000000000002          1.1490681208670139E-004
  0.11430000000000001          1.6559605137445033E-004
  0.11540000000000003          2.1327011927496642E-004
  0.11650000000000002          2.5752451620064676E-004
  0.11760000000000001          2.9802025528624654E-004
  0.11870000000000003          3.3448054455220699E-004
  0.11980000000000002          3.6668556276708841E-004
  0.12090000000000001          3.9447334711439908E-004
  0.12200000000000003          4.1775763384066522E-004
  0.12310000000000001          4.3650533189065754E-004
  0.12420000000000003          4.5073693036101758E-004
  0.12530000000000002          4.6053258120082319E-004
  0.12640000000000001          4.6603672672063112E-004
  0.12750000000000003          4.6744561404921114E-004
  0.12860000000000002          4.6498380834236741E-004
  0.12970000000000001          4.5889339526183903E-004
  0.13080000000000003          4.4945414992980659E-004
  0.13190000000000002          4.3699055095203221E-004
  0.13300000000000001          4.2185155325569212E-004
  0.13410000000000000          4.0438113501295447E-004
  0.13520000000000004          3.8491468876600266E-004
  0.13630000000000003          3.6379351513460279E-004
  0.13740000000000002          3.4136639442294836E-004
  0.13850000000000001          3.1797180417925119E-004
  0.13960000000000000          2.9392421129159629E-004
  0.14070000000000005          2.6952076586894691E-004
  0.14180000000000004          2.4504846078343689E-004
  0.14290000000000003          2.2077327594161034E-004
  0.14400000000000002          1.9692236674018204E-004
  0.14510000000000001          1.7368656699545681E-004
  0.14620000000000000          1.5124195488169789E-004
  0.14730000000000004          1.2975715799257159E-004
  0.14840000000000003          1.0937324987025931E-004
  0.14950000000000002          9.0182744315825403E-005
  0.15060000000000001          7.2242881287820637E-005
  0.15170000000000000          5.5602253269171342E-005
  0.15280000000000005          4.0307768358616158E-005
  0.15390000000000004          2.6380053895991296E-005
  0.15500000000000003          1.3800988199363928E-005
  0.15610000000000002          2.5336066755698994E-006
  0.15720000000000001         -7.4538470471452456E-006
  0.15830000000000000         -1.6192341718124226E-005
  0.15940000000000004         -2.3739426978863776E-005
  0.16050000000000003         -3.0177903681760654E-005
  0.16160000000000002         -3.5589200706453994E-005
  0.16270000000000001         -4.0035971323959529E-005
  0.16380000000000000         -4.3578795157372952E-005
  0.16490000000000005         -4.6298780944198370E-005
  0.16600000000000004         -4.8291698476532474E-005
  0.16710000000000003         -4.9640690122032538E-005
  0.16820000000000002         -5.0407266826368868E-005
  0.16930000000000001         -5.0655064114835113E-005
  0.17040000000000000         -5.0463204388506711E-005
  0.17150000000000004         -4.9906670028576627E-005
  0.17260000000000003         -4.9035206757253036E-005
  0.17370000000000002         -4.7885561798466370E-005
  0.17480000000000001         -4.6511646360158920E-005
  0.17590000000000000         -4.4983040424995124E-005
  0.17700000000000005         -4.3351079511921853E-005
  0.17810000000000004         -4.1630217310739681E-005
  0.17920000000000003         -3.9826663851272315E-005
  0.18030000000000002         -3.7973662983858958E-005
  0.18140000000000001         -3.6123401514487341E-005
  0.18250000000000000         -3.4306842280784622E-005
  0.18360000000000004         -3.2520831155125052E-005
  0.18470000000000003         -3.0759569199290127E-005
  0.18580000000000002         -2.9041877496638335E-005
  0.18690000000000001         -2.7394822609494440E-005
  0.18800000000000000         -2.5823621399467811E-005
  0.18910000000000005         -2.4314318579854444E-005
  0.19020000000000004         -2.2865926439408213E-005
  0.19130000000000003         -2.1498737623915076E-005
  0.19240000000000002         -2.0225001208018512E-005
  0.19350000000000001         -1.9028029782930389E-005
  0.19460000000000005         -1.7884738554130308E-005
  0.19570000000000004         -1.6798339856904931E-005
  0.19680000000000003         -1.5791365512995981E-005
  0.19790000000000002         -1.4868102880427614E-005
  0.19900000000000001         -1.4004774129716679E-005
  0.20010000000000000         -1.3182490874896757E-005
  0.20120000000000005         -1.2412035175657365E-005
  0.20230000000000004         -1.1711066690622829E-005
  0.20340000000000003         -1.1069646461692173E-005
  0.20450000000000002         -1.0458349606778938E-005
  0.20560000000000000         -9.8690152299241163E-006
  0.20670000000000005         -9.3252556325751357E-006
  0.20780000000000004         -8.8443412096239626E-006
  0.20890000000000003         -8.4066614363109693E-006
