 -0.12000000000000000          0.0000000000000000
 -0.11889999999999999          0.0000000000000000
 -0.11780000000000000          0.0000000000000000
 -0.11670000000000000          0.0000000000000000
 -0.11559999999999999          0.0000000000000000
 -0.11449999999999999          0.0000000000000000
 -0.11340000000000000          0.0000000000000000
 -0.11230000000000000          0.0000000000000000
 -0.11119999999999999          0.0000000000000000
 -0.11009999999999999          0.0000000000000000
 -0.10900000000000000          0.0000000000000000
 -0.10790000000000000          1.9595432523687732E-030
 -0.10679999999999999         -4.4594351148161897E-030
 -0.10569999999999999         -3.0723129613204489E-029
 -0.10460000000000000          6.4259019724875773E-029
 -0.10349999999999999          2.9027127417081031E-028
 -0.10239999999999999         -4.6664916625813291E-028
 -0.10130000000000000         -2.0752632781941167E-027
 -0.10020000000000000          2.0507583233607168E-027
  -9.9099999999999994E-002     1.1726681593698710E-026
  -9.7999999999999990E-002    -4.6992417160996452E-027
  -9.6899999999999986E-002    -5.2944319535222521E-026
  -9.5799999999999996E-002    -4.7411068108587572E-027
  -9.4699999999999993E-002     1.9614073612258371E-025
  -9.3599999999999989E-002     9.7820391598974126E-026
  -9.2499999999999999E-002    -6.3135866251781476E-025
  -9.1399999999999995E-002    -5.6938505955036000E-025
  -9.0299999999999991E-002     1.8606479573908973E-024
  -8.9200000000000002E-002     2.6774771371456149E-024
  -8.8099999999999984E-002    -4.7387876429975810E-024
  -8.6999999999999994E-002    -1.1244332624016202E-023
  -8.5899999999999990E-002     7.5621768319078529E-024
  -8.4799999999999986E-002     3.8791127453532325E-023
  -8.3699999999999997E-002     7.0800321463849175E-024
  -8.2599999999999993E-002    -9.9121496078949168E-023
  -8.1499999999999989E-002    -9.3908532823293194E-023
  -8.0399999999999999E-002     1.6725516002739829E-022
  -7.9299999999999995E-002     3.3376215175051048E-022
  -7.8199999999999992E-002    -1.3471365056684735E-022
  -7.7100000000000002E-002    -7.7046002409824787E-022
  -7.5999999999999984E-002    -1.3723642774174415E-022
  -7.4899999999999994E-002     1.5122207583500270E-021
  -7.3799999999999991E-002     9.2447268339478414E-022
  -7.2699999999999987E-002    -3.0605373683422667E-021
  -7.1599999999999997E-002    -3.8644638255352190E-021
  -7.0499999999999993E-002     5.0087514768319091E-021
  -6.9399999999999989E-002     1.3157930499931900E-020
  -6.8300000000000000E-002    -6.3035701466644988E-022
  -6.7199999999999996E-002    -2.9442999534162049E-020
  -6.6099999999999992E-002    -2.4788638404259426E-020
  -6.5000000000000002E-002     3.5229354101169222E-020
  -6.3899999999999985E-002     7.4170539029502374E-020
  -6.2799999999999995E-002    -1.9726882340841984E-021
  -6.1699999999999991E-002    -1.1983139351856967E-019
  -6.0599999999999994E-002    -6.7404718606701453E-020
  -5.9499999999999990E-002     1.5570332155285054E-019
  -5.8399999999999994E-002     1.7527896433922422E-019
  -5.7299999999999990E-002    -2.2764374933916728E-019
  -5.6199999999999986E-002    -4.9464268427207623E-019
  -5.5099999999999996E-002     1.4486657051946111E-019
  -5.3999999999999992E-002     1.1741719193759065E-018
  -5.2899999999999989E-002     7.8316891709849530E-019
  -5.1799999999999985E-002    -1.4747709049413253E-018
  -5.0699999999999995E-002    -2.7673838176989792E-018
  -4.9599999999999991E-002    -1.2247837147873936E-019
  -4.8499999999999988E-002     4.1183109990876669E-018
  -4.7399999999999998E-002     3.5007073480729119E-018
  -4.6299999999999994E-002    -3.0219401726108948E-018
  -4.5199999999999990E-002    -6.4421450626992273E-018
  -4.4099999999999986E-002     6.6799461505208453E-019
  -4.2999999999999997E-002     9.3954730850406861E-018
  -4.1899999999999993E-002     2.9375727132141613E-018
  -4.0799999999999989E-002    -1.5047727250791083E-017
  -3.9699999999999985E-002    -1.5278513950415827E-017
  -3.8599999999999995E-002     1.5952983787001765E-017
  -3.7499999999999992E-002     4.0582288180129389E-017
  -3.6399999999999988E-002     8.1810925364740364E-018
  -3.5299999999999984E-002    -5.9321760555052812E-017
  -3.4199999999999994E-002    -6.6170637355979570E-017
  -3.3099999999999991E-002     3.0271528166770202E-017
  -3.1999999999999987E-002     1.2269192831639735E-016
  -3.0899999999999997E-002     6.5908136551669542E-017
  -2.9799999999999993E-002    -1.0320047597276932E-016
  -2.8699999999999989E-002    -1.6215757560913936E-016
  -2.7599999999999986E-002    -6.8095027969740804E-019
  -2.6499999999999996E-002     1.6911437631894714E-016
  -2.5399999999999992E-002     7.0322058327036203E-017
  -2.4299999999999988E-002    -1.8748747385695857E-016
  -2.3199999999999985E-002    -1.6166527741321720E-016
  -2.2099999999999995E-002     2.7199736713772881E-016
  -2.0999999999999991E-002     5.5430672513356828E-016
  -1.9899999999999987E-002     9.0517309023048850E-017
  -1.8799999999999983E-002    -7.8516825482524721E-016
  -1.7699999999999994E-002    -9.7998821497390044E-016
  -1.6599999999999990E-002    -4.5222867369502931E-017
  -1.5499999999999986E-002     1.0112277429807047E-015
  -1.4399999999999996E-002     8.9497554146448577E-016
  -1.3299999999999992E-002    -1.5430065680908608E-016
  -1.2199999999999989E-002    -5.3297737673052093E-016
  -1.1099999999999985E-002     4.2858728930544724E-016
  -9.9999999999999950E-003     1.1796190575651621E-015
  -8.8999999999999913E-003    -8.5591924931328401E-017
  -7.7999999999999875E-003    -2.5306208324471285E-015
  -6.6999999999999837E-003    -3.1043215415783865E-015
  -5.5999999999999939E-003    -3.7276339762819537E-016
  -4.4999999999999901E-003     3.1980620425763094E-015
  -3.3999999999999864E-003     3.9520655729919068E-015
  -2.2999999999999826E-003     1.4800223628033335E-015
  -1.1999999999999927E-003    -1.1469766312394679E-015
  -9.9999999999988987E-005    -1.6272844405185324E-015
   1.0000000000000148E-003    -1.1452940002897472E-015
   2.1000000000000185E-003    -1.7985241151463691E-015
   3.2000000000000084E-003    -2.7304414104185751E-015
   4.3000000000000121E-003    -9.9898261117872290E-016
   5.4000000000000159E-003     3.7861182660976333E-015
   6.5000000000000058E-003     7.7363517068246290E-015
   7.6000000000000234E-003     6.4907461356903968E-015
   8.7000000000000133E-003    -5.4159111946894592E-016
   9.8000000000000032E-003    -1.0283313710648424E-014
   1.0900000000000021E-002    -1.8456122860468355E-014
   1.2000000000000011E-002    -2.0112045167296200E-014
   1.3100000000000001E-002    -9.9581343740657094E-015
   1.4200000000000018E-002     1.2980276779101484E-014
   1.5300000000000008E-002     3.9898019919349173E-014
   1.6400000000000026E-002     5.4881399175633200E-014
   1.7500000000000016E-002     4.6541353534773275E-014
   1.8600000000000005E-002     1.6277130603656667E-014
   1.9700000000000023E-002    -2.6393289138428033E-014
   2.0800000000000013E-002    -7.2508310662057485E-014
   2.1900000000000003E-002    -1.1172879570316152E-013
   2.3000000000000020E-002    -1.2289462795935652E-013
   2.4100000000000010E-002    -8.0382010455345293E-014
   2.5200000000000000E-002     1.9552283444103195E-014
   2.6300000000000018E-002     1.3885243053003010E-013
   2.7400000000000008E-002     2.1446577424134167E-013
   2.8500000000000025E-002     2.0278360425302761E-013
   2.9600000000000015E-002     1.0849418016550469E-013
   3.0700000000000005E-002    -2.6348880895069385E-014
   3.1800000000000023E-002    -1.4913177843241948E-013
   3.2900000000000013E-002    -2.1370440681824088E-013
   3.4000000000000002E-002    -1.7894270321148348E-013
   3.5100000000000020E-002    -3.3012340013320249E-014
   3.6200000000000010E-002     1.7963283855185197E-013
   3.7300000000000028E-002     3.4136620396738038E-013
   3.8400000000000017E-002     3.1471068698100957E-013
   3.9500000000000007E-002     1.6684987132154980E-014
   4.0600000000000025E-002    -5.0761966245010948E-013
   4.1700000000000015E-002    -1.1297847423222263E-012
   4.2800000000000005E-002    -1.6250235749040720E-012
   4.3900000000000022E-002    -1.7758200509046529E-012
   4.5000000000000012E-002    -1.4551591268757713E-012
   4.6100000000000002E-002    -7.0037438305511901E-013
   4.7200000000000020E-002     2.0455081313659751E-013
   4.8300000000000010E-002     8.5264992765940462E-013
   4.9400000000000027E-002     8.7706247429639173E-013
   5.0500000000000017E-002    -3.0312087068900054E-014
   5.1600000000000007E-002    -1.7859944209316914E-012
   5.2700000000000025E-002    -4.0004609867805296E-012
   5.3800000000000014E-002    -5.9428603531308521E-012
   5.4900000000000004E-002    -6.8599054388329694E-012
   5.6000000000000022E-002    -6.5948184413411326E-012
   5.7100000000000012E-002    -5.4970706805934633E-012
   5.8200000000000002E-002    -4.0156146637049250E-012
   5.9300000000000019E-002    -3.3685992363585715E-012
   6.0400000000000009E-002    -4.0808524094659848E-012
   6.1500000000000027E-002    -7.2370265162546854E-012
   6.2600000000000017E-002    -1.2686781312998274E-011
   6.3700000000000007E-002    -1.9919848756599912E-011
   6.4800000000000024E-002    -2.7215764364374451E-011
   6.5900000000000014E-002    -3.2097623170468381E-011
   6.7000000000000004E-002    -3.3261237514237152E-011
   6.8100000000000022E-002    -3.1791839993910997E-011
   6.9200000000000012E-002    -3.0518105403887219E-011
   7.0300000000000029E-002    -3.0014754570650837E-011
   7.1400000000000019E-002    -3.2903114260962596E-011
   7.2500000000000009E-002    -4.4659529546686727E-011
   7.3600000000000027E-002    -6.0493332565414448E-011
   7.4700000000000016E-002    -7.8151221605260446E-011
   7.5800000000000006E-002    -9.9471431092013063E-011
   7.6900000000000024E-002    -1.1707074198952228E-010
   7.8000000000000014E-002    -1.2997310172568888E-010
   7.9100000000000004E-002    -1.3793420572394410E-010
   8.0200000000000021E-002    -1.3731776826730879E-010
   8.1300000000000011E-002    -1.2852775788108062E-010
   8.2400000000000029E-002    -1.2671258486918191E-010
   8.3500000000000019E-002    -1.5241620465733519E-010
   8.4600000000000009E-002    -2.0776928788546201E-010
   8.5700000000000026E-002    -2.4265101039588899E-010
   8.6800000000000016E-002    -2.7267413327258794E-010
   8.7900000000000006E-002    -3.0440944209786380E-010
   8.9000000000000024E-002    -3.6975428274743649E-010
   9.0100000000000013E-002    -3.6869418629237316E-010
   9.1200000000000003E-002    -3.6389535829073338E-010
   9.2300000000000021E-002    -3.4828140371701011E-010
   9.3400000000000011E-002    -3.2529726134988834E-010
   9.4500000000000028E-002    -3.5518599172945642E-010
   9.5600000000000018E-002    -3.7686029297212542E-010
   9.6700000000000008E-002    -4.2897577157141598E-010
   9.7800000000000026E-002    -4.7816334225458945E-010
   9.8900000000000016E-002    -5.9826149589881084E-010
  0.10000000000000001         -6.8057748325855982E-010
  0.10110000000000002         -6.1525290417918654E-010
  0.10220000000000001         -5.7228505268014374E-010
  0.10330000000000003         -3.9395048334611715E-010
  0.10440000000000002         -3.9813430330326582E-010
  0.10550000000000001         -2.9160365788705178E-010
  0.10660000000000003         -2.0755129559457686E-010
  0.10770000000000002         -1.8709069016242807E-010
  0.10880000000000001         -2.3566959495013862E-010
  0.10990000000000003         -3.1764227359509789E-010
  0.11100000000000002         -4.4674364207963890E-010
  0.11210000000000001         -3.3830388490585506E-010
  0.11320000000000002          7.9035819555706155E-011
  0.11430000000000001          2.6391730467700825E-010
  0.11540000000000003          3.0901464720400895E-010
  0.11650000000000002          7.3074346573775983E-010
  0.11760000000000001          7.9608425407329264E-010
  0.11870000000000003          8.5560691864827731E-010
  0.11980000000000002          1.2588152742409875E-009
  0.12090000000000001          1.1202573313440212E-009
  0.12200000000000003          1.3647361019053506E-009
  0.12310000000000001          9.5062202554174746E-010
  0.12420000000000003          1.2725367426469347E-009
  0.12530000000000002          1.1518103137930780E-009
  0.12640000000000001          1.6144893200120691E-009
  0.12750000000000003          2.1928732163445375E-009
  0.12860000000000002          2.6535331709709453E-009
  0.12970000000000001          2.4470028225920260E-009
  0.13080000000000003          2.0822152890787038E-009
  0.13190000000000002          2.2142638833599904E-009
  0.13300000000000001          2.6807889241808880E-009
  0.13410000000000000          2.9562274850292170E-009
  0.13520000000000004          2.1271633343644680E-009
  0.13630000000000003          1.5637158234937942E-009
  0.13740000000000002          1.6771973809781571E-009
  0.13850000000000001          1.7281253095191573E-009
  0.13960000000000000          2.0679447043647770E-009
  0.14070000000000005          2.2878257066594188E-009
  0.14180000000000004          2.1779997805282392E-009
  0.14290000000000003          1.5154636434644431E-009
  0.14400000000000002          8.0013140557610996E-010
  0.14510000000000001          4.0425177094682851E-010
  0.14620000000000000          4.9602089102762648E-010
  0.14730000000000004          3.6866179553562972E-010
  0.14840000000000003         -1.3797304965201818E-010
  0.14950000000000002         -1.0119569626709790E-009
  0.15060000000000001         -1.4557507421741889E-009
  0.15170000000000000         -1.7532852947255151E-009
  0.15280000000000005         -1.9999988332131124E-009
  0.15390000000000004         -2.2266435362183756E-009
  0.15500000000000003         -2.2615591621644171E-009
  0.15610000000000002         -2.4777020435351460E-009
  0.15720000000000001         -2.7856406070725370E-009
  0.15830000000000000         -3.0154461150289080E-009
  0.15940000000000004         -3.1203297723436663E-009
  0.16050000000000003         -3.2913700653836031E-009
  0.16160000000000002         -3.1313209802874553E-009
  0.16270000000000001         -3.3261324805522463E-009
  0.16380000000000000         -3.3122933285056888E-009
  0.16490000000000005         -3.8047311967659425E-009
  0.16600000000000004         -3.2545637296266250E-009
  0.16710000000000003         -2.7383306733241852E-009
  0.16820000000000002         -2.8221998071842336E-009
  0.16930000000000001         -2.7345632425124222E-009
  0.17040000000000000         -2.9541260548882065E-009
  0.17150000000000004         -2.2081829698095135E-009
  0.17260000000000003         -1.4315409968546078E-009
  0.17370000000000002         -1.5292040966841114E-009
  0.17480000000000001         -1.5085388493929486E-009
  0.17590000000000000         -1.7651051731348844E-009
  0.17700000000000005         -1.5170796840990874E-009
  0.17810000000000004         -2.1677193373648151E-010
  0.17920000000000003          6.4896164830852143E-011
  0.18030000000000002          1.0752461143681558E-009
  0.18140000000000001          5.1917919963173631E-010
  0.18250000000000000          3.5945635357137462E-010
  0.18360000000000004          5.2340026757136116E-010
  0.18470000000000003          1.8603943940931345E-009
  0.18580000000000002          3.9443817101414425E-009
  0.18690000000000001          4.9230926002508113E-009
  0.18800000000000000          3.2685760764650240E-009
  0.18910000000000005          2.1794888810378055E-011
  0.19020000000000004         -9.7624175410260250E-010
  0.19130000000000003          1.9329018940972276E-010
  0.19240000000000002          3.2460669707745637E-009
  0.19350000000000001          4.3530734572527763E-009
  0.19460000000000005          3.7703653532616954E-009
  0.19570000000000004          2.3606165910905474E-009
  0.19680000000000003          1.4409800019876684E-009
  0.19790000000000002          1.6332656338491347E-009
  0.19900000000000001          2.5633020150905850E-009
  0.20010000000000000          3.1192408656011139E-009
  0.20120000000000005          2.1924349002944155E-009
  0.20230000000000004          1.1059694826620614E-010
  0.20340000000000003         -1.4757368660411885E-009
  0.20450000000000002         -9.2166219101130764E-010
  0.20560000000000000          1.4240613133154056E-009
  0.20670000000000005          3.5275109500076951E-009
  0.20780000000000004          3.2198177457587462E-009
  0.20890000000000003          6.4563654422755690E-010
