 -0.12000000000000000          0.0000000000000000
 -0.11889999999999999          0.0000000000000000
 -0.11780000000000000          0.0000000000000000
 -0.11670000000000000          0.0000000000000000
 -0.11559999999999999          0.0000000000000000
 -0.11449999999999999          0.0000000000000000
 -0.11340000000000000          0.0000000000000000
 -0.11230000000000000          0.0000000000000000
 -0.11119999999999999          0.0000000000000000
 -0.11009999999999999          0.0000000000000000
 -0.10900000000000000          0.0000000000000000
 -0.10790000000000000         -1.3057513726041371E-028
 -0.10679999999999999         -6.2898276793087061E-028
 -0.10569999999999999          3.0531230073916366E-027
 -0.10460000000000000          3.1705706450392423E-026
 -0.10349999999999999          6.8582926150429274E-026
 -0.10239999999999999         -2.2987271192672199E-025
 -0.10130000000000000         -1.6834668398498635E-024
 -0.10020000000000000         -3.3394276776564808E-024
  -9.9099999999999994E-002     3.9897673689338512E-024
  -9.7999999999999990E-002     3.6858695914779484E-023
  -9.6899999999999986E-002     7.6621649516446162E-023
  -9.5799999999999996E-002    -1.8825651165789243E-023
  -9.4699999999999993E-002    -4.7895867827513950E-022
  -9.3599999999999989E-002    -1.1078920072669444E-021
  -9.2499999999999999E-002    -3.8080312659741535E-022
  -9.1399999999999995E-002     4.1800796773542985E-021
  -9.0299999999999991E-002     1.1502998972567581E-020
  -8.9200000000000002E-002     9.3669140927809247E-021
  -8.8099999999999984E-002    -2.3888047127929451E-020
  -8.6999999999999994E-002    -8.8733118336983782E-020
  -8.5899999999999990E-002    -1.1036120948060319E-019
  -8.4799999999999986E-002     6.5072373009683087E-020
  -8.3699999999999997E-002     5.0554694099826823E-019
  -8.2599999999999993E-002     8.6707336214735225E-019
  -8.1499999999999989E-002     2.6607872235083785E-019
  -8.0399999999999999E-002    -2.0235761866512432E-018
  -7.9299999999999995E-002    -4.9178890081901063E-018
  -7.8199999999999992E-002    -4.3523394195330071E-018
  -7.7100000000000002E-002     4.5282703960653792E-018
  -7.5999999999999984E-002     2.0402942512934912E-017
  -7.4899999999999994E-002     2.8636092834079360E-017
  -7.3799999999999991E-002     5.3312832726614450E-018
  -7.2699999999999987E-002    -5.8650089897659753E-017
  -7.1599999999999997E-002    -1.2463998498107404E-016
  -7.0499999999999993E-002    -1.0216422380603229E-016
  -6.9399999999999989E-002     8.5677323057768375E-017
  -6.8300000000000000E-002     3.8101688666624127E-016
  -6.7199999999999996E-002     5.2062805987602686E-016
  -6.6099999999999992E-002     1.6366309726354507E-016
  -6.5000000000000002E-002    -7.5271413451163949E-016
  -6.3899999999999985E-002    -1.6699054443584742E-015
  -6.2799999999999995E-002    -1.5194553463880470E-015
  -6.1699999999999991E-002     4.5308427623342966E-016
  -6.0599999999999994E-002     3.5565977483801355E-015
  -5.9499999999999990E-002     5.3111113021365921E-015
  -5.8399999999999994E-002     2.8809833055846610E-015
  -5.7299999999999990E-002    -4.0892446763821089E-015
  -5.6199999999999986E-002    -1.1477136346068739E-014
  -5.5099999999999996E-002    -1.2267959339910296E-014
  -5.3999999999999992E-002    -2.1445468149786442E-015
  -5.2899999999999989E-002     1.4699375885333238E-014
  -5.1799999999999985E-002     2.5654864449736574E-014
  -5.0699999999999995E-002     1.8586615062256458E-014
  -4.9599999999999991E-002    -5.8161085336413433E-015
  -4.8499999999999988E-002    -2.9996950154939986E-014
  -4.7399999999999998E-002    -3.1919321921919722E-014
  -4.6299999999999994E-002    -7.2689657027932841E-015
  -4.5199999999999990E-002     1.9572622399232666E-014
  -4.4099999999999986E-002     1.3984075196101821E-014
  -4.2999999999999997E-002    -2.8545593081137632E-014
  -4.1899999999999993E-002    -5.8094445866321148E-014
  -4.0799999999999989E-002    -1.7238103034843827E-015
  -3.9699999999999985E-002     1.5393037593267739E-013
  -3.8599999999999995E-002     2.9721982253844148E-013
  -3.7499999999999992E-002     2.3205344438538555E-013
  -3.6399999999999988E-002    -1.5561300349426627E-013
  -3.5299999999999984E-002    -7.1393807749356442E-013
  -3.4199999999999994E-002    -1.0108882047416001E-012
  -3.3099999999999991E-002    -5.9662095142770655E-013
  -3.1999999999999987E-002     5.7833441811580566E-013
  -3.0899999999999997E-002     1.9188669750369591E-012
  -2.9799999999999993E-002     2.4177073103953672E-012
  -2.8699999999999989E-002     1.3394220628459852E-012
  -2.7599999999999986E-002    -1.0893408571022167E-012
  -2.6499999999999996E-002    -3.5733143874394635E-012
  -2.5399999999999992E-002    -4.4663704158731665E-012
  -2.4299999999999988E-002    -2.9000469560502840E-012
  -2.3199999999999985E-002     5.2129362024949666E-013
  -2.2099999999999995E-002     4.0640173518124989E-012
  -2.0999999999999991E-002     6.0326019353518223E-012
  -1.9899999999999987E-002     5.8071321189234748E-012
  -1.8799999999999983E-002     3.8600290498680412E-012
  -1.7699999999999994E-002     8.0531479922096860E-013
  -1.6599999999999990E-002    -3.4276457540338701E-012
  -1.5499999999999986E-002    -9.1349367306592377E-012
  -1.4399999999999996E-002    -1.5161002661634448E-011
  -1.3299999999999992E-002    -1.7664180881893365E-011
  -1.2199999999999989E-002    -1.1355366300036529E-011
  -1.1099999999999985E-002     6.4389969051115159E-012
  -9.9999999999999950E-003     3.1304993319825059E-011
  -8.8999999999999913E-003     5.0824587594089365E-011
  -7.7999999999999875E-003     4.9683156894131386E-011
  -6.6999999999999837E-003     1.9164171985441847E-011
  -5.5999999999999939E-003    -3.4534576587308408E-011
  -4.4999999999999901E-003    -8.9293891725183983E-011
  -3.3999999999999864E-003    -1.1571011510058682E-010
  -2.2999999999999826E-003    -9.1791393930229503E-011
  -1.1999999999999927E-003    -1.6049045772903447E-011
  -9.9999999999988987E-005     8.8186069557849578E-011
   1.0000000000000148E-003     1.7981006961154122E-010
   2.1000000000000185E-003     2.1540118300134026E-010
   3.2000000000000084E-003     1.6682327741435188E-010
   4.3000000000000121E-003     3.4657408887195373E-011
   5.4000000000000159E-003    -1.4695143712994962E-010
   6.5000000000000058E-003    -3.1628605290379141E-010
   7.6000000000000234E-003    -4.0108791288240297E-010
   8.7000000000000133E-003    -3.4397068526814678E-010
   9.8000000000000032E-003    -1.2947432015408822E-010
   1.0900000000000021E-002     1.9772229686854104E-010
   1.2000000000000011E-002     5.3425763812953164E-010
   1.3100000000000001E-002     7.4481465439646399E-010
   1.4200000000000018E-002     7.0978811717026247E-010
   1.5300000000000008E-002     3.7890601767287535E-010
   1.6400000000000026E-002    -1.9048232435814327E-010
   1.7500000000000016E-002    -8.3012097196188961E-010
   1.8600000000000005E-002    -1.3021186351380720E-009
   1.9700000000000023E-002    -1.3782527341632544E-009
   2.0800000000000013E-002    -9.3378682564093651E-010
   2.1900000000000003E-002    -2.0947438228446913E-011
   2.3000000000000020E-002     1.1122762710868983E-009
   2.4100000000000010E-002     2.0772401576607535E-009
   2.5200000000000000E-002     2.4665895992370679E-009
   2.6300000000000018E-002     2.0079642393255881E-009
   2.7400000000000008E-002     6.9614181086308236E-010
   2.8500000000000025E-002    -1.1502572228039298E-009
   2.9600000000000015E-002    -2.9431048709227525E-009
   3.0700000000000005E-002    -3.9930623252359965E-009
   3.1800000000000023E-002    -3.7545810904759946E-009
   3.2900000000000013E-002    -2.0716837134671096E-009
   3.4000000000000002E-002     6.7501843004080797E-010
   3.5100000000000020E-002     3.6099645495113464E-009
   3.6200000000000010E-002     5.6262727810008073E-009
   3.7300000000000028E-002     5.8083631238048383E-009
   3.8400000000000017E-002     3.8531022816812310E-009
   3.9500000000000007E-002     2.8877539248739481E-010
   4.0600000000000025E-002    -3.6483422949373789E-009
   4.1700000000000015E-002    -6.4684111400481470E-009
   4.2800000000000005E-002    -7.0314847278041270E-009
   4.3900000000000022E-002    -5.0275823504364325E-009
   4.5000000000000012E-002    -1.1128296062423715E-009
   4.6100000000000002E-002     3.3473230853786617E-009
   4.7200000000000020E-002     6.7856120722353808E-009
   4.8300000000000010E-002     7.9520292572965445E-009
   4.9400000000000027E-002     6.2527050204153056E-009
   5.0500000000000017E-002     1.8603658613614016E-009
   5.1600000000000007E-002    -4.3233905344663981E-009
   5.2700000000000025E-002    -1.0753042012368041E-008
   5.3800000000000014E-002    -1.5362802585627833E-008
   5.4900000000000004E-002    -1.5838235611909113E-008
   5.6000000000000022E-002    -1.0169298292339590E-008
   5.7100000000000012E-002     2.5124360369943588E-009
   5.8200000000000002E-002     2.1044073150733311E-008
   5.9300000000000019E-002     4.1711999188009941E-008
   6.0400000000000009E-002     5.8514302736512036E-008
   6.1500000000000027E-002     6.4337442040596216E-008
   6.2600000000000017E-002     5.2725706467526834E-008
   6.3700000000000007E-002     1.9523557881484521E-008
   6.4800000000000024E-002    -3.6420896520894530E-008
   6.5900000000000014E-002    -1.1396810606356667E-007
   6.7000000000000004E-002    -2.1164613883684069E-007
   6.8100000000000022E-002    -3.3005542832142964E-007
   6.9200000000000012E-002    -4.7366640387735970E-007
   7.0300000000000029E-002    -6.5126198478537844E-007
   7.1400000000000019E-002    -8.7500256995554082E-007
   7.2500000000000009E-002    -1.1588305142140598E-006
   7.3600000000000027E-002    -1.5172652183537139E-006
   7.4700000000000016E-002    -1.9653768958960427E-006
   7.5800000000000006E-002    -2.5200654363288777E-006
   7.6900000000000024E-002    -3.2021055176301161E-006
   7.8000000000000014E-002    -4.0381569306191523E-006
   7.9100000000000004E-002    -5.0621938498807140E-006
   8.0200000000000021E-002    -6.3163247432385106E-006
   8.1300000000000011E-002    -7.8514513006666675E-006
   8.2400000000000029E-002    -9.7282882052240893E-006
   8.3500000000000019E-002    -1.2019021596643142E-005
   8.4600000000000009E-002    -1.4809446838626172E-005
   8.5700000000000026E-002    -1.8201204511569813E-005
   8.6800000000000016E-002    -2.2313737645163201E-005
   8.7900000000000006E-002    -2.7285977921565063E-005
   8.9000000000000024E-002    -3.3278185583185405E-005
   9.0100000000000013E-002    -4.0474551497027278E-005
   9.1200000000000003E-002    -4.9086960643762723E-005
   9.2300000000000021E-002    -5.9360056184232235E-005
   9.3400000000000011E-002    -7.1576949267182499E-005
   9.4500000000000028E-002    -8.6064857896417379E-005
   9.5600000000000018E-002    -1.0320012370357290E-004
   9.6700000000000008E-002    -1.2341258116066456E-004
   9.7800000000000026E-002    -1.4718953752890229E-004
   9.8900000000000016E-002    -1.7508027667645365E-004
  0.10000000000000001         -2.0770114497281611E-004
  0.10110000000000002         -2.4574095732532442E-004
  0.10220000000000001         -2.8996626497246325E-004
  0.10330000000000003         -3.4122582292184234E-004
  0.10440000000000002         -4.0045464993454516E-004
  0.10550000000000001         -4.6867801574990153E-004
  0.10660000000000003         -5.4701569024473429E-004
  0.10770000000000002         -6.3668627990409732E-004
  0.10880000000000001         -7.3901005089282990E-004
  0.10990000000000003         -8.5540954023599625E-004
  0.11100000000000002         -9.8740588873624802E-004
  0.11210000000000001         -1.1366127291694283E-003
  0.11320000000000002         -1.3047268148511648E-003
  0.11430000000000001         -1.4935173094272614E-003
  0.11540000000000003         -1.7048153094947338E-003
  0.11650000000000002         -1.9405013881623745E-003
  0.11760000000000001         -2.2024908103048801E-003
  0.11870000000000003         -2.4927130434662104E-003
  0.11980000000000002         -2.8130854479968548E-003
  0.12090000000000001         -3.1654820777475834E-003
  0.12200000000000003         -3.5516964271664619E-003
  0.12310000000000001         -3.9734006859362125E-003
  0.12420000000000003         -4.4321068562567234E-003
  0.12530000000000002         -4.9291239120066166E-003
  0.12640000000000001         -5.4655144922435284E-003
  0.12750000000000003         -6.0420478694140911E-003
  0.12860000000000002         -6.6591459326446056E-003
  0.12970000000000001         -7.3168263770639896E-003
  0.13080000000000003         -8.0146435648202896E-003
  0.13190000000000002         -8.7516354396939278E-003
  0.13300000000000001         -9.5262741670012474E-003
  0.13410000000000000         -1.0336414910852909E-002
  0.13520000000000004         -1.1179251596331596E-002
  0.13630000000000003         -1.2051281519234180E-002
  0.13740000000000002         -1.2948260642588139E-002
  0.13850000000000001         -1.3865177519619465E-002
  0.13960000000000000         -1.4796241186559200E-002
  0.14070000000000005         -1.5734873712062836E-002
  0.14180000000000004         -1.6673723235726357E-002
  0.14290000000000003         -1.7604682594537735E-002
  0.14400000000000002         -1.8518924713134766E-002
  0.14510000000000001         -1.9406953826546669E-002
  0.14620000000000000         -2.0258668810129166E-002
  0.14730000000000004         -2.1063428372144699E-002
  0.14840000000000003         -2.1810157224535942E-002
  0.14950000000000002         -2.2487463429570198E-002
  0.15060000000000001         -2.3083770647644997E-002
  0.15170000000000000         -2.3587472736835480E-002
  0.15280000000000005         -2.3987079039216042E-002
  0.15390000000000004         -2.4271372705698013E-002
  0.15500000000000003         -2.4429591372609138E-002
  0.15610000000000002         -2.4451594799757004E-002
  0.15720000000000001         -2.4328049272298813E-002
  0.15830000000000000         -2.4050597101449966E-002
  0.15940000000000004         -2.3612050339579582E-002
  0.16050000000000003         -2.3006558418273926E-002
  0.16160000000000002         -2.2229785099625587E-002
  0.16270000000000001         -2.1279048174619675E-002
  0.16380000000000000         -2.0153442397713661E-002
  0.16490000000000005         -1.8853930756449699E-002
  0.16600000000000004         -1.7383405938744545E-002
  0.16710000000000003         -1.5746766701340675E-002
  0.16820000000000002         -1.3950953260064125E-002
  0.16930000000000001         -1.2004947289824486E-002
  0.17040000000000000         -9.9197197705507278E-003
  0.17150000000000004         -7.7081499621272087E-003
  0.17260000000000003         -5.3849099203944206E-003
  0.17370000000000002         -2.9663383029401302E-003
  0.17480000000000001         -4.7028504195623100E-004
  0.17590000000000000          2.0840782672166824E-003
  0.17700000000000005          4.6764849685132504E-003
  0.17810000000000004          7.2858319617807865E-003
  0.17920000000000003          9.8904473707079887E-003
  0.18030000000000002          1.2468357570469379E-002
  0.18140000000000001          1.4997563324868679E-002
  0.18250000000000000          1.7456335946917534E-002
  0.18360000000000004          1.9823502749204636E-002
  0.18470000000000003          2.2078741341829300E-002
  0.18580000000000002          2.4202857166528702E-002
  0.18690000000000001          2.6178011670708656E-002
  0.18800000000000000          2.7987981215119362E-002
  0.18910000000000005          2.9618343338370323E-002
  0.19020000000000004          3.1056677922606468E-002
  0.19130000000000003          3.2292716205120087E-002
  0.19240000000000002          3.3318463712930679E-002
  0.19350000000000001          3.4128274768590927E-002
  0.19460000000000005          3.4718871116638184E-002
  0.19570000000000004          3.5089369863271713E-002
  0.19680000000000003          3.5241235047578812E-002
  0.19790000000000002          3.5178240388631821E-002
  0.19900000000000001          3.4906331449747086E-002
  0.20010000000000000          3.4433517605066299E-002
  0.20120000000000005          3.3769696950912476E-002
  0.20230000000000004          3.2926488667726517E-002
  0.20340000000000003          3.1917028129100800E-002
  0.20450000000000002          3.0755739659070969E-002
  0.20560000000000000          2.9458107426762581E-002
  0.20670000000000005          2.8040438890457153E-002
  0.20780000000000004          2.6519604027271271E-002
  0.20890000000000003          2.4912791326642036E-002
