 -0.12000000000000000          0.0000000000000000
 -0.11889999999999999          0.0000000000000000
 -0.11780000000000000          0.0000000000000000
 -0.11670000000000000         -5.6460448540747166E-003
 -0.11559999999999999         -3.1935375183820724E-002
 -0.11449999999999999         -7.5036697089672089E-002
 -0.11340000000000000         -5.4554104804992676E-002
 -0.11230000000000000         0.16782419383525848
 -0.11119999999999999         0.58654230833053589
 -0.11009999999999999         0.81689828634262085
 -0.10900000000000000         0.24701428413391113
 -0.10790000000000000         -1.2388306856155396
 -0.10679999999999999         -2.5764384269714355
 -0.10569999999999999         -1.9627324342727661
 -0.10460000000000000          1.3403465747833252
 -0.10349999999999999          5.3848972320556641
 -0.10239999999999999          6.3540005683898926
 -0.10130000000000000          2.1063735485076904
 -0.10020000000000000         -4.6282606124877930
  -9.9099999999999994E-002    -7.4865312576293945
  -9.7999999999999990E-002    -2.5251655578613281
  -9.6899999999999986E-002     6.2369208335876465
  -9.5799999999999996E-002     8.5827245712280273
  -9.4699999999999993E-002    -2.1483130455017090
  -9.3599999999999989E-002    -19.673620223999023
  -9.2499999999999999E-002    -26.488313674926758
  -9.1399999999999995E-002    -8.4210643768310547
  -9.0299999999999991E-002     29.710657119750977
  -8.9200000000000002E-002     63.284164428710938
  -8.8099999999999984E-002     66.060363769531250
  -8.6999999999999994E-002     33.025314331054688
  -8.5899999999999990E-002    -13.477453231811523
  -8.4799999999999986E-002    -41.988571166992188
  -8.3699999999999997E-002    -38.998592376708984
  -8.2599999999999993E-002    -19.242055892944336
  -8.1499999999999989E-002    -8.5076608657836914
  -8.0399999999999999E-002    -15.229024887084961
  -7.9299999999999995E-002    -19.555671691894531
  -7.8199999999999992E-002     7.4497976303100586
  -7.7100000000000002E-002     71.986183166503906
  -7.5999999999999984E-002     144.79129028320312
  -7.4899999999999994E-002     182.01193237304688
  -7.3799999999999991E-002     161.37443542480469
  -7.2699999999999987E-002     99.679641723632812
  -7.1599999999999997E-002     35.478626251220703
  -7.0499999999999993E-002    -5.2610454559326172
  -6.9399999999999989E-002    -26.807390213012695
  -6.8300000000000000E-002    -49.193973541259766
  -6.7199999999999996E-002    -79.524734497070312
  -6.6099999999999992E-002    -100.77730560302734
  -6.5000000000000002E-002    -90.067100524902344
  -6.3899999999999985E-002    -46.340930938720703
  -6.2799999999999995E-002     2.5993649959564209
  -6.1699999999999991E-002     21.430822372436523
  -6.0599999999999994E-002    -5.7513141632080078
  -5.9499999999999990E-002    -70.951370239257812
  -5.8399999999999994E-002    -162.82008361816406
  -5.7299999999999990E-002    -286.75234985351562
  -5.6199999999999986E-002    -460.02481079101562
  -5.5099999999999996E-002    -687.02844238281250
  -5.3999999999999992E-002    -945.12078857421875
  -5.2899999999999989E-002    -1202.9635009765625
  -5.1799999999999985E-002    -1457.7393798828125
  -5.0699999999999995E-002    -1753.7355957031250
  -4.9599999999999991E-002    -2160.1591796875000
  -4.8499999999999988E-002    -2727.1298828125000
  -4.7399999999999998E-002    -3462.5305175781250
  -4.6299999999999994E-002    -4351.5957031250000
  -4.5199999999999990E-002    -5398.0903320312500
  -4.4099999999999986E-002    -6643.6684570312500
  -4.2999999999999997E-002    -8147.4433593750000
  -4.1899999999999993E-002    -9950.7412109375000
  -4.0799999999999989E-002    -12068.029296875000
  -3.9699999999999985E-002    -14514.788085937500
  -3.8599999999999995E-002    -17340.873046875000
  -3.7499999999999992E-002    -20630.888671875000
  -3.6399999999999988E-002    -24470.398437500000
  -3.5299999999999984E-002    -28917.917968750000
  -3.4199999999999994E-002    -34017.500000000000
  -3.3099999999999991E-002    -39839.968750000000
  -3.1999999999999987E-002    -46504.003906250000
  -3.0899999999999997E-002    -54144.875000000000
  -2.9799999999999993E-002    -62859.082031250000
  -2.8699999999999989E-002    -72683.390625000000
  -2.7599999999999986E-002    -83641.953125000000
  -2.6499999999999996E-002    -95815.796875000000
  -2.5399999999999992E-002    -109358.95312500000
  -2.4299999999999988E-002    -124434.91406250000
  -2.3199999999999985E-002    -141128.37500000000
  -2.2099999999999995E-002    -159428.35937500000
  -2.0999999999999991E-002    -179303.98437500000
  -1.9899999999999987E-002    -200804.39062500000
  -1.8799999999999983E-002    -224073.68750000000
  -1.7699999999999994E-002    -249250.46875000000
  -1.6599999999999990E-002    -276341.75000000000
  -1.5499999999999986E-002    -305195.56250000000
  -1.4399999999999996E-002    -335604.40625000000
  -1.3299999999999992E-002    -367433.68750000000
  -1.2199999999999989E-002    -400653.12500000000
  -1.1099999999999985E-002    -435208.90625000000
  -9.9999999999999950E-003    -470893.06250000000
  -8.8999999999999913E-003    -507308.09375000000
  -7.7999999999999875E-003    -543985.93750000000
  -6.6999999999999837E-003    -580542.56250000000
  -5.5999999999999939E-003    -616697.56250000000
  -4.4999999999999901E-003    -652140.56250000000
  -3.3999999999999864E-003    -686374.25000000000
  -2.2999999999999826E-003    -718706.00000000000
  -1.1999999999999927E-003    -748386.37500000000
  -9.9999999999988987E-005    -774762.81250000000
   1.0000000000000148E-003    -797311.56250000000
   2.1000000000000185E-003    -815488.06250000000
   3.2000000000000084E-003    -828585.93750000000
   4.3000000000000121E-003    -835736.00000000000
   5.4000000000000159E-003    -836091.62500000000
   6.5000000000000058E-003    -829003.50000000000
   7.6000000000000234E-003    -814033.50000000000
   8.7000000000000133E-003    -790782.31250000000
   9.8000000000000032E-003    -758739.18750000000
   1.0900000000000021E-002    -717296.68750000000
   1.2000000000000011E-002    -665967.62500000000
   1.3100000000000001E-002    -604558.18750000000
   1.4200000000000018E-002    -533140.06250000000
   1.5300000000000008E-002    -451897.28125000000
   1.6400000000000026E-002    -360952.50000000000
   1.7500000000000016E-002    -260424.84375000000
   1.8600000000000005E-002    -150636.06250000000
   1.9700000000000023E-002    -32253.638671875000
   2.0800000000000013E-002     93714.656250000000
   2.1900000000000003E-002     226160.64062500000
   2.3000000000000020E-002     364020.18750000000
   2.4100000000000010E-002     506244.06250000000
   2.5200000000000000E-002     651620.50000000000
   2.6300000000000018E-002     798627.87500000000
   2.7400000000000008E-002     945497.37500000000
   2.8500000000000025E-002     1090455.8750000000
   2.9600000000000015E-002     1231896.1250000000
   3.0700000000000005E-002     1368335.1250000000
   3.1800000000000023E-002     1498235.0000000000
   3.2900000000000013E-002     1619886.5000000000
   3.4000000000000002E-002     1731508.5000000000
   3.5100000000000020E-002     1831477.2500000000
   3.6200000000000010E-002     1918483.2500000000
   3.7300000000000028E-002     1991487.6250000000
   3.8400000000000017E-002     2049549.3750000000
   3.9500000000000007E-002     2091709.8750000000
   4.0600000000000025E-002     2117106.7500000000
   4.1700000000000015E-002     2125181.5000000000
   4.2800000000000005E-002     2115787.0000000000
   4.3900000000000022E-002     2089146.7500000000
   4.5000000000000012E-002     2045635.6250000000
   4.6100000000000002E-002     1985682.7500000000
   4.7200000000000020E-002     1909809.6250000000
   4.8300000000000010E-002     1818838.5000000000
   4.9400000000000027E-002     1713891.3750000000
   5.0500000000000017E-002     1596383.5000000000
   5.1600000000000007E-002     1467805.0000000000
   5.2700000000000025E-002     1329614.7500000000
   5.3800000000000014E-002     1183266.0000000000
   5.4900000000000004E-002     1030409.0625000000
   5.6000000000000022E-002     872804.56250000000
   5.7100000000000012E-002     712303.31250000000
   5.8200000000000002E-002     550709.12500000000
   5.9300000000000019E-002     389625.00000000000
   6.0400000000000009E-002     230541.75000000000
   6.1500000000000027E-002     74910.937500000000
   6.2600000000000017E-002    -75790.031250000000
   6.3700000000000007E-002    -220250.84375000000
   6.4800000000000024E-002    -357331.09375000000
   6.5900000000000014E-002    -486159.96875000000
   6.7000000000000004E-002    -606024.00000000000
   6.8100000000000022E-002    -716271.06250000000
   6.9200000000000012E-002    -816325.31250000000
   7.0300000000000029E-002    -905759.06250000000
   7.1400000000000019E-002    -984383.37500000000
   7.2500000000000009E-002    -1052208.7500000000
   7.3600000000000027E-002    -1109322.0000000000
   7.4700000000000016E-002    -1155868.0000000000
   7.5800000000000006E-002    -1192025.2500000000
   7.6900000000000024E-002    -1218104.3750000000
   7.8000000000000014E-002    -1234581.1250000000
   7.9100000000000004E-002    -1242021.2500000000
   8.0200000000000021E-002    -1241011.6250000000
   8.1300000000000011E-002    -1232091.0000000000
   8.2400000000000029E-002    -1215800.8750000000
   8.3500000000000019E-002    -1192733.3750000000
   8.4600000000000009E-002    -1163556.7500000000
   8.5700000000000026E-002    -1128936.7500000000
   8.6800000000000016E-002    -1089473.7500000000
   8.7900000000000006E-002    -1045695.1250000000
   8.9000000000000024E-002    -998129.25000000000
   9.0100000000000013E-002    -947365.87500000000
   9.1200000000000003E-002    -894022.25000000000
   9.2300000000000021E-002    -838674.56250000000
   9.3400000000000011E-002    -781817.87500000000
   9.4500000000000028E-002    -723852.25000000000
   9.5600000000000018E-002    -665230.56250000000
   9.6700000000000008E-002    -606465.68750000000
   9.7800000000000026E-002    -548089.68750000000
   9.8900000000000016E-002    -490502.28125000000
  0.10000000000000001         -433978.87500000000
  0.10110000000000002         -378762.81250000000
  0.10220000000000001         -325141.09375000000
  0.10330000000000003         -273491.71875000000
  0.10440000000000002         -224196.00000000000
  0.10550000000000001         -177485.42187500000
  0.10660000000000003         -133470.43750000000
  0.10770000000000002         -92247.375000000000
  0.10880000000000001         -53951.316406250000
  0.10990000000000003         -18800.263671875000
  0.11100000000000002          13040.388671875000
  0.11210000000000001          41571.488281250000
  0.11320000000000002          66894.171875000000
  0.11430000000000001          89146.093750000000
  0.11540000000000003          108384.14062500000
  0.11650000000000002          124579.60937500000
  0.11760000000000001          137792.29687500000
  0.11870000000000003          148221.53125000000
  0.11980000000000002          156161.45312500000
  0.12090000000000001          161857.26562500000
  0.12200000000000003          165424.34375000000
  0.12310000000000001          166898.37500000000
  0.12420000000000003          166400.46875000000
  0.12530000000000002          164215.39062500000
  0.12640000000000001          160723.00000000000
  0.12750000000000003          156229.54687500000
  0.12860000000000002          150876.79687500000
  0.12970000000000001          144698.95312500000
  0.13080000000000003          137783.20312500000
  0.13190000000000002          130356.21093750000
  0.13300000000000001          122720.30468750000
  0.13410000000000000          115101.37500000000
  0.13520000000000004          107558.92187500000
  0.13630000000000003          100047.39843750000
  0.13740000000000002          92565.265625000000
  0.13850000000000001          85226.171875000000
  0.13960000000000000          78212.156250000000
  0.14070000000000005          71651.820312500000
  0.14180000000000004          65541.140625000000
  0.14290000000000003          59800.394531250000
  0.14400000000000002          54390.925781250000
  0.14510000000000001          49358.593750000000
  0.14620000000000000          44793.265625000000
  0.14730000000000004          40734.183593750000
  0.14840000000000003          37133.304687500000
  0.14950000000000002          33898.449218750000
  0.15060000000000001          30976.220703125000
  0.15170000000000000          28371.283203125000
  0.15280000000000005          26099.667968750000
  0.15390000000000004          24136.919921875000
  0.15500000000000003          22412.089843750000
  0.15610000000000002          20866.673828125000
  0.15720000000000001          19498.914062500000
  0.15830000000000000          18347.460937500000
  0.15940000000000004          17417.949218750000
  0.16050000000000003          16656.316406250000
  0.16160000000000002          15981.579101562500
  0.16270000000000001          15344.481445312500
  0.16380000000000000          14762.453125000000
  0.16490000000000005          14277.282226562500
  0.16600000000000004          13894.612304687500
  0.16710000000000003          13548.285156250000
  0.16820000000000002          13160.007812500000
  0.16930000000000001          12702.186523437500
  0.17040000000000000          12216.061523437500
  0.17150000000000004          11762.916015625000
  0.17260000000000003          11362.270507812500
  0.17370000000000002          10977.164062500000
  0.17480000000000001          10556.280273437500
  0.17590000000000000          10095.308593750000
  0.17700000000000005          9635.3183593750000
  0.17810000000000004          9227.4511718750000
  0.17920000000000003          8878.5898437500000
  0.18030000000000002          8554.5253906250000
  0.18140000000000001          8217.6826171875000
  0.18250000000000000          7858.3486328125000
  0.18360000000000004          7497.1835937500000
  0.18470000000000003          7149.1787109375000
  0.18580000000000002          6815.6406250000000
  0.18690000000000001          6496.6064453125000
  0.18800000000000000          6213.4086914062500
  0.18910000000000005          5998.1557617187500
  0.19020000000000004          5857.1298828125000
  0.19130000000000003          5752.3662109375000
  0.19240000000000002          5627.0698242187500
  0.19350000000000001          5462.6132812500000
  0.19460000000000005          5297.8637695312500
  0.19570000000000004          5188.2973632812500
  0.19680000000000003          5137.1845703125000
  0.19790000000000002          5075.0039062500000
  0.19900000000000001          4918.8627929687500
  0.20010000000000000          4660.3789062500000
  0.20120000000000005          4385.3222656250000
  0.20230000000000004          4204.1181640625000
  0.20340000000000003          4146.6030273437500
  0.20450000000000002          4131.8867187500000
  0.20560000000000000          4046.1765136718750
  0.20670000000000005          3856.8774414062500
  0.20780000000000004          3647.1711425781250
  0.20890000000000003          3532.9240722656250
