 -0.12000000000000000          0.0000000000000000
 -0.11889999999999999          0.0000000000000000
 -0.11780000000000000          0.0000000000000000
 -0.11670000000000000          1.2546758770826116E-011
 -0.11559999999999999          1.3697731317263706E-011
 -0.11449999999999999         -3.8519867850972389E-011
 -0.11340000000000000         -6.0436995685808625E-011
 -0.11230000000000000          8.1728110390422160E-011
 -0.11119999999999999          2.1664800509135773E-010
 -0.11009999999999999         -3.4040520402456309E-011
 -0.10900000000000000         -4.8208020908546700E-010
 -0.10790000000000000         -2.7206739638963029E-010
 -0.10679999999999999          7.1667333179092907E-010
 -0.10569999999999999          1.0246075099473728E-009
 -0.10460000000000000         -4.2161327207246302E-010
 -0.10349999999999999         -1.8818469005310590E-009
 -0.10239999999999999         -6.0493304809838833E-010
 -0.10130000000000000          2.4258632880247433E-009
 -0.10020000000000000          2.5024633476533609E-009
  -9.9099999999999994E-002    -1.8537349433245254E-009
  -9.7999999999999990E-002    -4.8300936583700604E-009
  -9.6899999999999986E-002    -6.5601452048369424E-010
  -9.5799999999999996E-002     6.4043979008943097E-009
  -9.4699999999999993E-002     5.8165903205065206E-009
  -9.3599999999999989E-002    -3.7803542518588529E-009
  -9.2499999999999999E-002    -9.8755226218827374E-009
  -9.1399999999999995E-002    -2.5646764711950709E-009
  -9.0299999999999991E-002     9.5434833369267835E-009
  -8.9200000000000002E-002     9.3253555988326298E-009
  -8.8099999999999984E-002    -4.2170933411966871E-009
  -8.6999999999999994E-002    -1.2694451712036425E-008
  -8.5899999999999990E-002    -3.9121137440645271E-009
  -8.4799999999999986E-002     9.9854693402789962E-009
  -8.3699999999999997E-002     9.7387582442820531E-009
  -8.2599999999999993E-002    -2.9504489962306479E-009
  -8.1499999999999989E-002    -8.7991152142308238E-009
  -8.0399999999999999E-002    -8.1158801901182187E-010
  -7.9299999999999995E-002     5.8462172880524577E-009
  -7.8199999999999992E-002    -3.1192631810839089E-010
  -7.7100000000000002E-002    -7.3376624776244626E-009
  -7.5999999999999984E-002     2.8308616301792044E-012
  -7.4899999999999994E-002     1.1607000693913960E-008
  -7.3799999999999991E-002     4.7745229991846827E-009
  -7.2699999999999987E-002    -1.6707840444496469E-008
  -7.1599999999999997E-002    -2.0920076337915816E-008
  -7.0499999999999993E-002     5.0188337930023863E-009
  -6.9399999999999989E-002     2.8315882971696738E-008
  -6.8300000000000000E-002     1.2549780770143570E-008
  -6.7199999999999996E-002    -2.6888091753107801E-008
  -6.6099999999999992E-002    -3.8675427305179255E-008
  -6.5000000000000002E-002    -6.8517880258411878E-009
  -6.3899999999999985E-002     2.4598872272463268E-008
  -6.2799999999999995E-002     1.2649416625265530E-008
  -6.1699999999999991E-002    -2.5253019231286089E-008
  -6.0599999999999994E-002    -3.9295365183988906E-008
  -5.9499999999999990E-002    -1.9401529272045082E-008
  -5.8399999999999994E-002    -3.7846548117670409E-009
  -5.7299999999999990E-002    -1.5916727491571692E-008
  -5.6199999999999986E-002    -3.1367484609745588E-008
  -5.5099999999999996E-002    -2.4943410892319662E-008
  -5.3999999999999992E-002    -1.7685550801616046E-008
  -5.2899999999999989E-002    -4.2288782253763202E-008
  -5.1799999999999985E-002    -8.0341955310814228E-008
  -5.0699999999999995E-002    -7.9854267198697926E-008
  -4.9599999999999991E-002    -3.7847271983082464E-008
  -4.8499999999999988E-002    -1.9369270631841573E-008
  -4.7399999999999998E-002    -6.9010319236895157E-008
  -4.6299999999999994E-002    -1.3945280841198837E-007
  -4.5199999999999990E-002    -1.5015815790775378E-007
  -4.4099999999999986E-002    -1.0029148711510061E-007
  -4.2999999999999997E-002    -7.1687829006350512E-008
  -4.1899999999999993E-002    -1.1476137018462396E-007
  -4.0799999999999989E-002    -1.8229856380003184E-007
  -3.9699999999999985E-002    -2.0372576159388700E-007
  -3.8599999999999995E-002    -1.8460244177731511E-007
  -3.7499999999999992E-002    -1.8543616420174658E-007
  -3.6399999999999988E-002    -2.2230497620512324E-007
  -3.5299999999999984E-002    -2.4799805942166131E-007
  -3.4199999999999994E-002    -2.3905244006527937E-007
  -3.3099999999999991E-002    -2.4092483386084496E-007
  -3.1999999999999987E-002    -2.9333139650589146E-007
  -3.0899999999999997E-002    -3.5265833275843761E-007
  -2.9799999999999993E-002    -3.4704220297498978E-007
  -2.8699999999999989E-002    -2.9030539394625521E-007
  -2.7599999999999986E-002    -2.7538075642041804E-007
  -2.6499999999999996E-002    -3.4227500123051868E-007
  -2.5399999999999992E-002    -4.1535869854669727E-007
  -2.4299999999999988E-002    -4.0568372128291230E-007
  -2.3199999999999985E-002    -3.3609487104513391E-007
  -2.2099999999999995E-002    -3.0279736051852524E-007
  -2.0999999999999991E-002    -3.3613125083320483E-007
  -1.9899999999999987E-002    -3.6668606639977952E-007
  -1.8799999999999983E-002    -3.3409000366191322E-007
  -1.7699999999999994E-002    -2.7583018891164102E-007
  -1.6599999999999990E-002    -2.5712844831105031E-007
  -1.5499999999999986E-002    -2.6044691026072542E-007
  -1.4399999999999996E-002    -2.1625507429234858E-007
  -1.3299999999999992E-002    -1.2172175445357425E-007
  -1.2199999999999989E-002    -5.4133874272110916E-008
  -1.1099999999999985E-002    -5.2661956573274438E-008
  -9.9999999999999950E-003    -4.7405556813373551E-008
  -8.8999999999999913E-003     4.2232372265971208E-008
  -7.7999999999999875E-003     1.8400649537397840E-007
  -6.6999999999999837E-003     2.7566824201130657E-007
  -5.5999999999999939E-003     2.9009027002757648E-007
  -4.4999999999999901E-003     3.1604255923411984E-007
  -3.3999999999999864E-003     4.1695136587804882E-007
  -2.2999999999999826E-003     5.4732799981138669E-007
  -1.1999999999999927E-003     6.2483434248861158E-007
  -9.9999999999988987E-005     6.5687635242284159E-007
   1.0000000000000148E-003     7.1332488005282357E-007
   2.1000000000000185E-003     8.1519317518541357E-007
   3.2000000000000084E-003     8.9913083911596914E-007
   4.3000000000000121E-003     9.2019541853005649E-007
   5.4000000000000159E-003     9.2671649554176838E-007
   6.5000000000000058E-003     9.8217458344151964E-007
   7.6000000000000234E-003     1.0634729505909490E-006
   8.7000000000000133E-003     1.0883763934543822E-006
   9.8000000000000032E-003     1.0401322469988372E-006
   1.0900000000000021E-002     9.9881094683951233E-007
   1.2000000000000011E-002     1.0145719215870486E-006
   1.3100000000000001E-002     1.0381606898590690E-006
   1.4200000000000018E-002     9.9297096767259063E-007
   1.5300000000000008E-002     8.8967146893992322E-007
   1.6400000000000026E-002     8.0781245515026967E-007
   1.7500000000000016E-002     7.7342502891042386E-007
   1.8600000000000005E-002     7.2441548581991810E-007
   1.9700000000000023E-002     6.1101536630303599E-007
   2.0800000000000013E-002     4.7282935611292487E-007
   2.1900000000000003E-002     3.7432451449603832E-007
   2.3000000000000020E-002     3.0662653216495528E-007
   2.4100000000000010E-002     2.0659179256199423E-007
   2.5200000000000000E-002     6.0644708810286829E-008
   2.6300000000000018E-002    -7.4627216406497610E-008
   2.7400000000000008E-002    -1.5863558644468867E-007
   2.8500000000000025E-002    -2.3318816033679468E-007
   2.9600000000000015E-002    -3.4754756939037179E-007
   3.0700000000000005E-002    -4.8176076461459161E-007
   3.1800000000000023E-002    -5.7467474334771396E-007
   3.2900000000000013E-002    -6.1601673451150418E-007
   3.4000000000000002E-002    -6.5993833686661674E-007
   3.5100000000000020E-002    -7.4228512403351488E-007
   3.6200000000000010E-002    -8.2692361047520535E-007
   3.7300000000000028E-002    -8.5595053178622038E-007
   3.8400000000000017E-002    -8.4474112327370676E-007
   3.9500000000000007E-002    -8.4432645053311717E-007
   4.0600000000000025E-002    -8.7054257846830296E-007
   4.1700000000000015E-002    -8.8011199750326341E-007
   4.2800000000000005E-002    -8.4155402646501898E-007
   4.3900000000000022E-002    -7.9176390954671660E-007
   4.5000000000000012E-002    -7.6889676847713417E-007
   4.6100000000000002E-002    -7.4420512419237639E-007
   4.7200000000000020E-002    -6.8161307353875600E-007
   4.8300000000000010E-002    -5.9466469792823773E-007
   4.9400000000000027E-002    -5.2931909522158094E-007
   5.0500000000000017E-002    -4.9010600378096569E-007
   5.1600000000000007E-002    -4.3609597355498408E-007
   5.2700000000000025E-002    -3.4813902516361850E-007
   5.3800000000000014E-002    -2.6191918323092978E-007
   5.4900000000000004E-002    -2.0626235652798641E-007
   5.6000000000000022E-002    -1.6405932967700210E-007
   5.7100000000000012E-002    -9.6466500565384194E-008
   5.8200000000000002E-002    -1.7468972046685849E-008
   5.9300000000000019E-002     3.5135773401862025E-008
   6.0400000000000009E-002     5.6729565045543495E-008
   6.1500000000000027E-002     8.8303671930134442E-008
   6.2600000000000017E-002     1.4934714442915720E-007
   6.3700000000000007E-002     2.0271244238756481E-007
   6.4800000000000024E-002     2.1336968814011925E-007
   6.5900000000000014E-002     2.0351107821170444E-007
   6.7000000000000004E-002     2.1650029680131411E-007
   6.8100000000000022E-002     2.4931304665187781E-007
   6.9200000000000012E-002     2.6023488430837460E-007
   7.0300000000000029E-002     2.4026300593504857E-007
   7.1400000000000019E-002     2.2788255193972873E-007
   7.2500000000000009E-002     2.4264306830446003E-007
   7.3600000000000027E-002     2.4785103391877783E-007
   7.4700000000000016E-002     2.0901345010315708E-007
   7.5800000000000006E-002     1.5914764617264154E-007
   7.6900000000000024E-002     1.5430812538852479E-007
   7.8000000000000014E-002     1.8493102516004001E-007
   7.9100000000000004E-002     1.8304407944924606E-007
   8.0200000000000021E-002     1.2329826404311461E-007
   8.1300000000000011E-002     6.5850294106439833E-008
   8.2400000000000029E-002     6.6444876267723885E-008
   8.3500000000000019E-002     9.2704752319150430E-008
   8.4600000000000009E-002     7.8146705106973968E-008
   8.5700000000000026E-002     2.6426391741551924E-008
   8.6800000000000016E-002     3.7665826013721926E-009
   8.7900000000000006E-002     2.7502819577307491E-008
   8.9000000000000024E-002     3.6699294270192695E-008
   9.0100000000000013E-002    -9.7476968718979151E-009
   9.1200000000000003E-002    -5.8105150912979298E-008
   9.2300000000000021E-002    -4.0863966432880261E-008
   9.3400000000000011E-002     1.5312840773162861E-008
   9.4500000000000028E-002     1.9429165831752471E-008
   9.5600000000000018E-002    -4.4452971081909709E-008
   9.6700000000000008E-002    -8.9714298212584254E-008
   9.7800000000000026E-002    -5.5343996052670263E-008
   9.8900000000000016E-002     6.9176298023165828E-010
  0.10000000000000001         -7.9152062681941970E-009
  0.10110000000000002         -6.2267503153634607E-008
  0.10220000000000001         -7.1179336202931154E-008
  0.10330000000000003         -1.6332345253999847E-008
  0.10440000000000002          1.5690496013576194E-008
  0.10550000000000001         -2.9464150230751329E-008
  0.10660000000000003         -8.1340182589428878E-008
  0.10770000000000002         -5.1207454276891440E-008
  0.10880000000000001          2.5013465076995089E-008
  0.10990000000000003          3.4996894271444035E-008
  0.11100000000000002         -3.8466499319156355E-008
  0.11210000000000001         -8.6520437037052034E-008
  0.11320000000000002         -3.5996151837025536E-008
  0.11430000000000001          3.9924980654859610E-008
  0.11540000000000003          3.2965267848794610E-008
  0.11650000000000002         -3.6309220519115115E-008
  0.11760000000000001         -5.4176940267325335E-008
  0.11870000000000003          7.0365637760971822E-009
  0.11980000000000002          4.7135770842032798E-008
  0.12090000000000001         -1.0970857555747671E-009
  0.12200000000000003         -6.2129956290846167E-008
  0.12310000000000001         -3.4335830179088589E-008
  0.12420000000000003          4.7302030736773304E-008
  0.12530000000000002          5.8959876980679837E-008
  0.12640000000000001         -2.0347959761579659E-008
  0.12750000000000003         -7.1924354472230334E-008
  0.12860000000000002         -1.6841440242387762E-008
  0.12970000000000001          6.3214955048351840E-008
  0.13080000000000003          4.8727329726716562E-008
  0.13190000000000002         -3.4503770507399167E-008
  0.13300000000000001         -5.7494482064157637E-008
  0.13410000000000000          1.2097235213559543E-008
  0.13520000000000004          6.1822781560749718E-008
  0.13630000000000003          1.1338884498002244E-008
  0.13740000000000002         -6.0633986720404209E-008
  0.13850000000000001         -3.8097375920642662E-008
  0.13960000000000000          4.9600647145098264E-008
  0.14070000000000005          6.9561579607579915E-008
  0.14180000000000004         -1.0916902049018518E-008
  0.14290000000000003         -7.2414962914990610E-008
  0.14400000000000002         -2.4719138735918023E-008
  0.14510000000000001          5.6755133925889822E-008
  0.14620000000000000          4.8331461499628858E-008
  0.14730000000000004         -3.2859954757213927E-008
  0.14840000000000003         -5.9623914694384439E-008
  0.14950000000000002          7.1179426797129963E-009
  0.15060000000000001          5.9902887983298569E-008
  0.15170000000000000          1.5427634281195424E-008
  0.15280000000000005         -5.4820638695218804E-008
  0.15390000000000004         -3.7155981402747784E-008
  0.15500000000000003          4.4694697720615295E-008
  0.15610000000000002          6.3673880390524573E-008
  0.15720000000000001         -1.3898181272509191E-008
  0.15830000000000000         -7.3652479670727189E-008
  0.15940000000000004         -2.6121670160250687E-008
  0.16050000000000003          5.7222713678584114E-008
  0.16160000000000002          5.3309445746663187E-008
  0.16270000000000001         -2.6825150101217332E-008
  0.16380000000000000         -5.9513897809893024E-008
  0.16490000000000005          1.0101998126899048E-009
  0.16600000000000004          5.6703264306179335E-008
  0.16710000000000003          2.1305066155719032E-008
  0.16820000000000002         -4.7053049456735607E-008
  0.16930000000000001         -3.9522731754004781E-008
  0.17040000000000000          3.2980583597463919E-008
  0.17150000000000004          5.7289799570980904E-008
  0.17260000000000003         -5.9690563602998736E-009
  0.17370000000000002         -6.1148732299898256E-008
  0.17480000000000001         -2.4996479552896744E-008
  0.17590000000000000          4.6856335700340424E-008
  0.17700000000000005          4.6491603455933728E-008
  0.17810000000000004         -2.2091040108307425E-008
  0.17920000000000003         -5.3250055032094679E-008
  0.18030000000000002         -2.9514044541656403E-009
  0.18140000000000001          4.7441620409927054E-008
  0.18250000000000000          2.0717521920232684E-008
  0.18360000000000004         -3.8008284519719382E-008
  0.18470000000000003         -3.5295386169309495E-008
  0.18580000000000002          2.4303146162196754E-008
  0.18690000000000001          4.6834379929805436E-008
  0.18800000000000000         -4.0121777011847826E-009
  0.18910000000000005         -5.0909047644154271E-008
  0.19020000000000004         -2.2520982412288504E-008
  0.19130000000000003          3.7865426349981135E-008
  0.19240000000000002          3.9963055087355315E-008
  0.19350000000000001         -1.6362088572918765E-008
  0.19460000000000005         -4.4400152887646982E-008
  0.19570000000000004         -4.0474330553763593E-009
  0.19680000000000003          4.0576196624897420E-008
  0.19790000000000002          2.2657454579189107E-008
  0.19900000000000001         -2.7030578664266613E-008
  0.20010000000000000         -3.2009097594709601E-008
  0.20120000000000005          1.2152941764043135E-008
  0.20230000000000004          3.5331865433363419E-008
  0.20340000000000003          3.3930629417255886E-009
  0.20450000000000002         -3.1921700838211109E-008
  0.20560000000000000         -1.6317411422051009E-008
  0.20670000000000005          2.4098181228282556E-008
  0.20780000000000004          2.6491868254652218E-008
  0.20890000000000003         -1.1089883678039314E-008
