 -0.12000000000000000          0.0000000000000000
 -0.11889999999999999          0.0000000000000000
 -0.11780000000000000          0.0000000000000000
 -0.11670000000000000          0.0000000000000000
 -0.11559999999999999          0.0000000000000000
 -0.11449999999999999          0.0000000000000000
 -0.11340000000000000          0.0000000000000000
 -0.11230000000000000          0.0000000000000000
 -0.11119999999999999          0.0000000000000000
 -0.11009999999999999          0.0000000000000000
 -0.10900000000000000          3.7337474201100635E-029
 -0.10790000000000000         -1.5412331116230077E-029
 -0.10679999999999999         -4.7066073388754569E-028
 -0.10569999999999999          3.4943684715707592E-029
 -0.10460000000000000          2.2726597345071365E-027
 -0.10349999999999999         -2.3659194253901885E-027
 -0.10239999999999999         -5.7739541510844659E-027
 -0.10130000000000000          4.9473427078375310E-026
 -0.10020000000000000          7.3761459029535005E-026
  -9.9099999999999994E-002    -3.5826201827083431E-025
  -9.7999999999999990E-002    -9.5600889533899220E-025
  -9.6899999999999986E-002     7.2430289532043986E-025
  -9.5799999999999996E-002     5.5817573065686072E-024
  -9.4699999999999993E-002     4.8780886459460334E-024
  -9.3599999999999989E-002    -1.3090443847076139E-023
  -9.2499999999999999E-002    -3.3913120849120435E-023
  -9.1399999999999995E-002    -1.4169992896122947E-023
  -9.0299999999999991E-002     5.5987124517767035E-023
  -8.9200000000000002E-002     1.2020276247458582E-022
  -8.8099999999999984E-002     1.4259945758512212E-022
  -8.6999999999999994E-002     8.8054408667422549E-023
  -8.5899999999999990E-002    -3.6373934577633931E-022
  -8.4799999999999986E-002    -1.5562613606973526E-021
  -8.3699999999999997E-002    -2.2292366047010293E-021
  -8.2599999999999993E-002     1.1398425652461762E-021
  -8.1499999999999989E-002     9.5910453036594165E-021
  -8.0399999999999999E-002     1.4230807180426619E-020
  -7.9299999999999995E-002    -2.0212031292681927E-022
  -7.8199999999999992E-002    -3.4533249303963172E-020
  -7.7100000000000002E-002    -5.9679594855537766E-020
  -7.5999999999999984E-002    -3.5590592921959079E-020
  -7.4899999999999994E-002     5.0935878959371719E-020
  -7.3799999999999991E-002     1.7517766056358062E-019
  -7.2699999999999987E-002     2.7621093522218231E-019
  -7.1599999999999997E-002     2.1148608146734807E-019
  -7.0499999999999993E-002    -2.4874869398178665E-019
  -6.9399999999999989E-002    -1.1344284758821477E-018
  -6.8300000000000000E-002    -1.7642916673579745E-018
  -6.7199999999999996E-002    -7.9612116962379203E-019
  -6.6099999999999992E-002     2.4487958251596400E-018
  -6.5000000000000002E-002     6.2714451763606406E-018
  -6.3899999999999985E-002     6.7751030436349908E-018
  -6.2799999999999995E-002     7.9459496969484341E-019
  -6.1699999999999991E-002    -1.0857177328038241E-017
  -6.0599999999999994E-002    -2.2700522691084652E-017
  -5.9499999999999990E-002    -2.5839881565237755E-017
  -5.8399999999999994E-002    -9.5859066056626442E-018
  -5.7299999999999990E-002     3.2789313750148909E-017
  -5.6199999999999986E-002     8.9371028599952466E-017
  -5.5099999999999996E-002     1.1655930389915781E-016
  -5.3999999999999992E-002     5.5178492276113501E-017
  -5.2899999999999989E-002    -1.1382575652480077E-016
  -5.1799999999999985E-002    -3.1578526474163190E-016
  -5.0699999999999995E-002    -3.9751602968757097E-016
  -4.9599999999999991E-002    -2.2280119063538661E-016
  -4.8499999999999988E-002     2.2402870019463570E-016
  -4.7399999999999998E-002     7.9938369114166091E-016
  -4.6299999999999994E-002     1.2179053702975301E-015
  -4.5199999999999990E-002     1.0986554133018598E-015
  -4.4099999999999986E-002     1.1228346834652830E-016
  -4.2999999999999997E-002    -1.6862922496351743E-015
  -4.1899999999999993E-002    -3.5227653466426674E-015
  -4.0799999999999989E-002    -4.0350853897346689E-015
  -3.9699999999999985E-002    -2.1037183446133293E-015
  -3.8599999999999995E-002     2.1420565381137166E-015
  -3.7499999999999992E-002     7.0666633182863824E-015
  -3.6399999999999988E-002     1.0296900966155331E-014
  -3.5299999999999984E-002     9.7682168817970864E-015
  -3.4199999999999994E-002     4.2955200689281069E-015
  -3.3099999999999991E-002    -6.0232203712227549E-015
  -3.1999999999999987E-002    -1.8899691992088803E-014
  -3.0899999999999997E-002    -2.9128483885988363E-014
  -2.9799999999999993E-002    -2.9913727473806356E-014
  -2.8699999999999989E-002    -1.6592381020031667E-014
  -2.7599999999999986E-002     1.0003700511463254E-014
  -2.6499999999999996E-002     4.3557056561820823E-014
  -2.5399999999999992E-002     7.4719249613507815E-014
  -2.4299999999999988E-002     9.2169924036794582E-014
  -2.3199999999999985E-002     8.1799665782242292E-014
  -2.2099999999999995E-002     2.9473663364521646E-014
  -2.0999999999999991E-002    -6.8365147256384956E-014
  -1.9899999999999987E-002    -1.9201579616687919E-013
  -1.8799999999999983E-002    -2.9645410475412359E-013
  -1.7699999999999994E-002    -3.2548006716030808E-013
  -1.6599999999999990E-002    -2.3350895869689303E-013
  -1.5499999999999986E-002    -3.0124625125145521E-015
  -1.4399999999999996E-002     3.4366316758495385E-013
  -1.3299999999999992E-002     7.3275467724759347E-013
  -1.2199999999999989E-002     1.0337131541374167E-012
  -1.1099999999999985E-002     1.0800302709459975E-012
  -9.9999999999999950E-003     7.2678343378262955E-013
  -8.8999999999999913E-003    -7.5428887040453890E-014
  -7.7999999999999875E-003    -1.2279980634785637E-012
  -6.6999999999999837E-003    -2.4742831481600058E-012
  -5.5999999999999939E-003    -3.4267844638280476E-012
  -4.4999999999999901E-003    -3.6274633470612105E-012
  -3.3999999999999864E-003    -2.6573730195489365E-012
  -2.2999999999999826E-003    -3.0402183591807241E-013
  -1.1999999999999927E-003     3.2564892622766184E-012
  -9.9999999999988987E-005     7.3510546608201999E-012
   1.0000000000000148E-003     1.0849147101532619E-011
   2.1000000000000185E-003     1.2364882555349066E-011
   3.2000000000000084E-003     1.0590570954926992E-011
   4.3000000000000121E-003     4.7172044916055089E-012
   5.4000000000000159E-003    -5.1288829953921589E-012
   6.5000000000000058E-003    -1.7563455897984248E-011
   7.6000000000000234E-003    -2.9900609765931563E-011
   8.7000000000000133E-003    -3.8495134163651912E-011
   9.8000000000000032E-003    -3.9456316686115045E-011
   1.0900000000000021E-002    -2.9622755637337406E-011
   1.2000000000000011E-002    -7.6443131338810311E-012
   1.3100000000000001E-002     2.5038818241007732E-011
   1.4200000000000018E-002     6.3623710466753636E-011
   1.5300000000000008E-002     1.0011132201004358E-010
   1.6400000000000026E-002     1.2439621555060398E-010
   1.7500000000000016E-002     1.2618853184598322E-010
   1.8600000000000005E-002     9.7445475299995366E-011
   1.9700000000000023E-002     3.4873874621421663E-011
   2.0800000000000013E-002    -5.8033931826795282E-011
   2.1900000000000003E-002    -1.7009535446810276E-010
   2.3000000000000020E-002    -2.8332453050339268E-010
   2.4100000000000010E-002    -3.7591590951180365E-010
   2.5200000000000000E-002    -4.2700742941548242E-010
   2.6300000000000018E-002    -4.2232492503124774E-010
   2.7400000000000008E-002    -3.5951852606075363E-010
   2.8500000000000025E-002    -2.5193197528139422E-010
   2.9600000000000015E-002    -1.2955836403705234E-010
   3.0700000000000005E-002    -3.6096289152132144E-011
   3.1800000000000023E-002    -2.1662335120131715E-011
   3.2900000000000013E-002    -1.3177980928702482E-010
   3.4000000000000002E-002    -3.9438596832752637E-010
   3.5100000000000020E-002    -8.0729495310905008E-010
   3.6200000000000010E-002    -1.3287222433433499E-009
   3.7300000000000028E-002    -1.8733312678875791E-009
   3.8400000000000017E-002    -2.3153829964428496E-009
   3.9500000000000007E-002    -2.4992052871652959E-009
   4.0600000000000025E-002    -2.2556365664172517E-009
   4.1700000000000015E-002    -1.4214709409543502E-009
   4.2800000000000005E-002     1.4199068310016827E-010
   4.3900000000000022E-002     2.5352258070654443E-009
   4.5000000000000012E-002     5.8151066184564115E-009
   4.6100000000000002E-002     1.0000547057131826E-008
   4.7200000000000020E-002     1.5089971938664348E-008
   4.8300000000000010E-002     2.1089643809091285E-008
   4.9400000000000027E-002     2.8050020972614220E-008
   5.0500000000000017E-002     3.6104623291066673E-008
   5.1600000000000007E-002     4.5506723722610332E-008
   5.2700000000000025E-002     5.6659501979083871E-008
   5.3800000000000014E-002     7.0135364182988269E-008
   5.4900000000000004E-002     8.6684636357858835E-008
   5.6000000000000022E-002     1.0723429255676820E-007
   5.7100000000000012E-002     1.3287902334013779E-007
   5.8200000000000002E-002     1.6487341270021716E-007
   5.9300000000000019E-002     2.0462920247155125E-007
   6.0400000000000009E-002     2.5372395384692936E-007
   6.1500000000000027E-002     3.1393065569318424E-007
   6.2600000000000017E-002     3.8726105344721873E-007
   6.3700000000000007E-002     4.7603023745068640E-007
   6.4800000000000024E-002     5.8293517213314772E-007
   6.5900000000000014E-002     7.1113305466496968E-007
   6.7000000000000004E-002     8.6432453372253804E-007
   6.8100000000000022E-002     1.0468215805303771E-006
   6.9200000000000012E-002     1.2636036217372748E-006
   7.0300000000000029E-002     1.5203688690235140E-006
   7.1400000000000019E-002     1.8235648440168006E-006
   7.2500000000000009E-002     2.1804203242936637E-006
   7.3600000000000027E-002     2.5989838832174428E-006
   7.4700000000000016E-002     3.0881701604812406E-006
   7.5800000000000006E-002     3.6578201161319157E-006
   7.6900000000000024E-002     4.3187415030843113E-006
   7.8000000000000014E-002     5.0827816266973969E-006
   7.9100000000000004E-002     5.9628705457726028E-006
   8.0200000000000021E-002     6.9730367613374256E-006
   8.1300000000000011E-002     8.1283851613989100E-006
   8.2400000000000029E-002     9.4450633696396835E-006
   8.3500000000000019E-002     1.0940140782622620E-005
   8.4600000000000009E-002     1.2631560821318999E-005
   8.5700000000000026E-002     1.4537902643496636E-005
   8.6800000000000016E-002     1.6678086467436515E-005
   8.7900000000000006E-002     1.9071379938395694E-005
   8.9000000000000024E-002     2.1737063434557058E-005
   9.0100000000000013E-002     2.4694036255823448E-005
   9.1200000000000003E-002     2.7960415536654182E-005
   9.2300000000000021E-002     3.1553150620311499E-005
   9.3400000000000011E-002     3.5487664717948064E-005
   9.4500000000000028E-002     3.9777438360033557E-005
   9.5600000000000018E-002     4.4433058064896613E-005
   9.6700000000000008E-002     4.9461657908977941E-005
   9.7800000000000026E-002     5.4866250138729811E-005
   9.8900000000000016E-002     6.0645113990176469E-005
  0.10000000000000001          6.6791159042622894E-005
  0.10110000000000002          7.3290895670652390E-005
  0.10220000000000001          8.0123361840378493E-005
  0.10330000000000003          8.7260144937317818E-005
  0.10440000000000002          9.4663955678697675E-005
  0.10550000000000001          1.0228862083749846E-004
  0.10660000000000003          1.1007820285158232E-004
  0.10770000000000002          1.1796608305303380E-004
  0.10880000000000001          1.2587552191689610E-004
  0.10990000000000003          1.3371942623052746E-004
  0.11100000000000002          1.4140021812636405E-004
  0.11210000000000001          1.4880977687425911E-004
  0.11320000000000002          1.5582967898808420E-004
  0.11430000000000001          1.6233191126957536E-004
  0.11540000000000003          1.6818143194541335E-004
  0.11650000000000002          1.7323513748124242E-004
  0.11760000000000001          1.7734459834173322E-004
  0.11870000000000003          1.8035630637314171E-004
  0.11980000000000002          1.8211467249784619E-004
  0.12090000000000001          1.8246500985696912E-004
  0.12200000000000003          1.8125670612789690E-004
  0.12310000000000001          1.7834556638263166E-004
  0.12420000000000003          1.7359408957418054E-004
  0.12530000000000002          1.6687501920387149E-004
  0.12640000000000001          1.5808019088581204E-004
  0.12750000000000003          1.4711708354298025E-004
  0.12860000000000002          1.3391650281846523E-004
  0.12970000000000001          1.1843061656691134E-004
  0.13080000000000003          1.0063983063446358E-004
  0.13190000000000002          8.0553880252409726E-005
  0.13300000000000001          5.8214667660649866E-005
  0.13410000000000000          3.3698681363603100E-005
  0.13520000000000004          7.1166064117278438E-006
  0.13630000000000003         -2.1385001673479564E-005
  0.13740000000000002         -5.1622835599118844E-005
  0.13850000000000001         -8.3377250120975077E-005
  0.13960000000000000         -1.1639724834822118E-004
  0.14070000000000005         -1.5039507707115263E-004
  0.14180000000000004         -1.8505341722629964E-004
  0.14290000000000003         -2.2002845071256161E-004
  0.14400000000000002         -2.5495537556707859E-004
  0.14510000000000001         -2.8944993391633034E-004
  0.14620000000000000         -3.2311349059455097E-004
  0.14730000000000004         -3.5553926136344671E-004
  0.14840000000000003         -3.8631857023574412E-004
  0.14950000000000002         -4.1504926048219204E-004
  0.15060000000000001         -4.4134052586741745E-004
  0.15170000000000000         -4.6481782919727266E-004
  0.15280000000000005         -4.8513046931475401E-004
  0.15390000000000004         -5.0195894436910748E-004
  0.15500000000000003         -5.1502138376235962E-004
  0.15610000000000002         -5.2407861221581697E-004
  0.15720000000000001         -5.2893627434968948E-004
  0.15830000000000000         -5.2945018978789449E-004
  0.15940000000000004         -5.2553281420841813E-004
  0.16050000000000003         -5.1715387962758541E-004
  0.16160000000000002         -5.0433946307748556E-004
  0.16270000000000001         -4.8717705067247152E-004
  0.16380000000000000         -4.6580936759710312E-004
  0.16490000000000005         -4.4043431989848614E-004
  0.16600000000000004         -4.1130543104372919E-004
  0.16710000000000003         -3.7872718530707061E-004
  0.16820000000000002         -3.4304952714592218E-004
  0.16930000000000001         -3.0466055613942444E-004
  0.17040000000000000         -2.6398259797133505E-004
  0.17150000000000004         -2.2146342962514609E-004
  0.17260000000000003         -1.7757382011041045E-004
  0.17370000000000002         -1.3279959966894239E-004
  0.17480000000000001         -8.7631902715656906E-005
  0.17590000000000000         -4.2554383981041610E-005
  0.17700000000000005          1.9596102447394514E-006
  0.17810000000000004          4.5452794438460842E-005
  0.17920000000000003          8.7491003796458244E-005
  0.18030000000000002          1.2766483996529132E-004
  0.18140000000000001          1.6559853975195438E-004
  0.18250000000000000          2.0096292428206652E-004
  0.18360000000000004          2.3347532260231674E-004
  0.18470000000000003          2.6289792731404305E-004
  0.18580000000000002          2.8903581551276147E-004
  0.18690000000000001          3.1173985917121172E-004
  0.18800000000000000          3.3091590739786625E-004
  0.18910000000000005          3.4652193426154554E-004
  0.19020000000000004          3.5856492468155921E-004
  0.19130000000000003          3.6709444248117507E-004
  0.19240000000000002          3.7220056401565671E-004
  0.19350000000000001          3.7401178269647062E-004
  0.19460000000000005          3.7269151653163135E-004
  0.19570000000000004          3.6843449925072491E-004
  0.19680000000000003          3.6146343336440623E-004
  0.19790000000000002          3.5202247090637684E-004
  0.19900000000000001          3.4036918077617884E-004
  0.20010000000000000          3.2676974660716951E-004
  0.20120000000000005          3.1149614369496703E-004
  0.20230000000000004          2.9482506215572357E-004
  0.20340000000000003          2.7703499654307961E-004
  0.20450000000000002          2.5839766021817923E-004
  0.20560000000000000          2.3917044745758176E-004
  0.20670000000000005          2.1959384321235120E-004
  0.20780000000000004          1.9989469728898257E-004
  0.20890000000000003          1.8028717022389174E-004
