 -0.12000000000000000          0.0000000000000000
 -0.11889999999999999          0.0000000000000000
 -0.11780000000000000          0.0000000000000000
 -0.11670000000000000          1.2546758770826116E-011
 -0.11559999999999999          1.3697731317263706E-011
 -0.11449999999999999         -3.8519867850972389E-011
 -0.11340000000000000         -6.0436995685808625E-011
 -0.11230000000000000          8.1728110390422160E-011
 -0.11119999999999999          2.1664800509135773E-010
 -0.11009999999999999         -3.4040520402456309E-011
 -0.10900000000000000         -4.8208020908546700E-010
 -0.10790000000000000         -2.7206739638963029E-010
 -0.10679999999999999          7.1667333179092907E-010
 -0.10569999999999999          1.0246075099473728E-009
 -0.10460000000000000         -4.2161327207246302E-010
 -0.10349999999999999         -1.8818469005310590E-009
 -0.10239999999999999         -6.0493304809838833E-010
 -0.10130000000000000          2.4258632880247433E-009
 -0.10020000000000000          2.5024633476533609E-009
  -9.9099999999999994E-002    -1.8537349433245254E-009
  -9.7999999999999990E-002    -4.8300936583700604E-009
  -9.6899999999999986E-002    -6.5601452048369424E-010
  -9.5799999999999996E-002     6.4043979008943097E-009
  -9.4699999999999993E-002     5.8165903205065206E-009
  -9.3599999999999989E-002    -3.7803542518588529E-009
  -9.2499999999999999E-002    -9.8755226218827374E-009
  -9.1399999999999995E-002    -2.5646764711950709E-009
  -9.0299999999999991E-002     9.5434833369267835E-009
  -8.9200000000000002E-002     9.3253555988326298E-009
  -8.8099999999999984E-002    -4.2170933411966871E-009
  -8.6999999999999994E-002    -1.2694451712036425E-008
  -8.5899999999999990E-002    -3.9121137440645271E-009
  -8.4799999999999986E-002     9.9854693402789962E-009
  -8.3699999999999997E-002     9.7387582442820531E-009
  -8.2599999999999993E-002    -2.9504489962306479E-009
  -8.1499999999999989E-002    -8.7991152142308238E-009
  -8.0399999999999999E-002    -8.1158801901182187E-010
  -7.9299999999999995E-002     5.8462172880524577E-009
  -7.8199999999999992E-002    -3.1192631810839089E-010
  -7.7100000000000002E-002    -7.3376624776244626E-009
  -7.5999999999999984E-002     2.8308616301792044E-012
  -7.4899999999999994E-002     1.1607000693913960E-008
  -7.3799999999999991E-002     4.7745229991846827E-009
  -7.2699999999999987E-002    -1.6707840444496469E-008
  -7.1599999999999997E-002    -2.0920076337915816E-008
  -7.0499999999999993E-002     5.0188337930023863E-009
  -6.9399999999999989E-002     2.8315882971696738E-008
  -6.8300000000000000E-002     1.2549780770143570E-008
  -6.7199999999999996E-002    -2.6888091753107801E-008
  -6.6099999999999992E-002    -3.8675427305179255E-008
  -6.5000000000000002E-002    -6.8517880258411878E-009
  -6.3899999999999985E-002     2.4598872272463268E-008
  -6.2799999999999995E-002     1.2649416625265530E-008
  -6.1699999999999991E-002    -2.5253019231286089E-008
  -6.0599999999999994E-002    -3.9295365183988906E-008
  -5.9499999999999990E-002    -1.9401529272045082E-008
  -5.8399999999999994E-002    -3.7846548117670409E-009
  -5.7299999999999990E-002    -1.5916727491571692E-008
  -5.6199999999999986E-002    -3.1367484609745588E-008
  -5.5099999999999996E-002    -2.4943410892319662E-008
  -5.3999999999999992E-002    -1.7685550801616046E-008
  -5.2899999999999989E-002    -4.2288782253763202E-008
  -5.1799999999999985E-002    -8.0341955310814228E-008
  -5.0699999999999995E-002    -7.9854267198697926E-008
  -4.9599999999999991E-002    -3.7847271983082464E-008
  -4.8499999999999988E-002    -1.9369270631841573E-008
  -4.7399999999999998E-002    -6.9010319236895157E-008
  -4.6299999999999994E-002    -1.3945280841198837E-007
  -4.5199999999999990E-002    -1.5015815790775378E-007
  -4.4099999999999986E-002    -1.0029148711510061E-007
  -4.2999999999999997E-002    -7.1687829006350512E-008
  -4.1899999999999993E-002    -1.1476137018462396E-007
  -4.0799999999999989E-002    -1.8229856380003184E-007
  -3.9699999999999985E-002    -2.0372576159388700E-007
  -3.8599999999999995E-002    -1.8460244177731511E-007
  -3.7499999999999992E-002    -1.8543616420174658E-007
  -3.6399999999999988E-002    -2.2230497620512324E-007
  -3.5299999999999984E-002    -2.4799805942166131E-007
  -3.4199999999999994E-002    -2.3905244006527937E-007
  -3.3099999999999991E-002    -2.4092483386084496E-007
  -3.1999999999999987E-002    -2.9333139650589146E-007
  -3.0899999999999997E-002    -3.5265833275843761E-007
  -2.9799999999999993E-002    -3.4704220297498978E-007
  -2.8699999999999989E-002    -2.9030539394625521E-007
  -2.7599999999999986E-002    -2.7538075642041804E-007
  -2.6499999999999996E-002    -3.4227500123051868E-007
  -2.5399999999999992E-002    -4.1535869854669727E-007
  -2.4299999999999988E-002    -4.0568372128291230E-007
  -2.3199999999999985E-002    -3.3609487104513391E-007
  -2.2099999999999995E-002    -3.0279736051852524E-007
  -2.0999999999999991E-002    -3.3613125083320483E-007
  -1.9899999999999987E-002    -3.6668606639977952E-007
  -1.8799999999999983E-002    -3.3409000366191322E-007
  -1.7699999999999994E-002    -2.7583018891164102E-007
  -1.6599999999999990E-002    -2.5712844831105031E-007
  -1.5499999999999986E-002    -2.6044691026072542E-007
  -1.4399999999999996E-002    -2.1625507429234858E-007
  -1.3299999999999992E-002    -1.2172175445357425E-007
  -1.2199999999999989E-002    -5.4133874272110916E-008
  -1.1099999999999985E-002    -5.2661956573274438E-008
  -9.9999999999999950E-003    -4.7405556813373551E-008
  -8.8999999999999913E-003     4.2232372265971208E-008
  -7.7999999999999875E-003     1.8400649537397840E-007
  -6.6999999999999837E-003     2.7566824201130657E-007
  -5.5999999999999939E-003     2.9009027002757648E-007
  -4.4999999999999901E-003     3.1604255923411984E-007
  -3.3999999999999864E-003     4.1695136587804882E-007
  -2.2999999999999826E-003     5.4732799981138669E-007
  -1.1999999999999927E-003     6.2483434248861158E-007
  -9.9999999999988987E-005     6.5687635242284159E-007
   1.0000000000000148E-003     7.1332488005282357E-007
   2.1000000000000185E-003     8.1519317518541357E-007
   3.2000000000000084E-003     8.9913083911596914E-007
   4.3000000000000121E-003     9.2019541853005649E-007
   5.4000000000000159E-003     9.2671649554176838E-007
   6.5000000000000058E-003     9.8217458344151964E-007
   7.6000000000000234E-003     1.0634164482326014E-006
   8.7000000000000133E-003     1.0883198910960346E-006
   9.8000000000000032E-003     1.0400757446404896E-006
   1.0900000000000021E-002     9.9881094683951233E-007
   1.2000000000000011E-002     1.0146284239453962E-006
   1.3100000000000001E-002     1.0377085573054501E-006
   1.4200000000000018E-002     9.9195369784865761E-007
   1.5300000000000008E-002     8.9032715777648264E-007
   1.6400000000000026E-002     8.0973029525921447E-007
   1.7500000000000016E-002     7.7403547038557008E-007
   1.8600000000000005E-002     7.2325912015003269E-007
   1.9700000000000023E-002     6.0951725799895939E-007
   2.0800000000000013E-002     4.7243312906175561E-007
   2.1900000000000003E-002     3.7498600136132154E-007
   2.3000000000000020E-002     3.0710074838680157E-007
   2.4100000000000010E-002     2.0706561087990849E-007
   2.5200000000000000E-002     6.0997557227437937E-008
   2.6300000000000018E-002    -7.4753302214958239E-008
   2.7400000000000008E-002    -1.6103058442240581E-007
   2.8500000000000025E-002    -2.3542193616776785E-007
   2.9600000000000015E-002    -3.4586011565806984E-007
   3.0700000000000005E-002    -4.7872708819340914E-007
   3.1800000000000023E-002    -5.7341407000421896E-007
   3.2900000000000013E-002    -6.1683982721660868E-007
   3.4000000000000002E-002    -6.6288873767916812E-007
   3.5100000000000020E-002    -7.4406307248864323E-007
   3.6200000000000010E-002    -8.2298925008217338E-007
   3.7300000000000028E-002    -8.5090476886762190E-007
   3.8400000000000017E-002    -8.4146182643962675E-007
   3.9500000000000007E-002    -8.4890996276953956E-007
   4.0600000000000025E-002    -8.7646361635052017E-007
   4.1700000000000015E-002    -8.7706024487488321E-007
   4.2800000000000005E-002    -8.3604743394971592E-007
   4.3900000000000022E-002    -7.9023362786756479E-007
   4.5000000000000012E-002    -7.6806787774330587E-007
   4.6100000000000002E-002    -7.4423428486625198E-007
   4.7200000000000020E-002    -6.8440988343354547E-007
   4.8300000000000010E-002    -6.0240569155212143E-007
   4.9400000000000027E-002    -5.3611228167937952E-007
   5.0500000000000017E-002    -4.8493262738702470E-007
   5.1600000000000007E-002    -4.2553065782158228E-007
   5.2700000000000025E-002    -3.4711601415438054E-007
   5.3800000000000014E-002    -2.6991386903318926E-007
   5.4900000000000004E-002    -2.1360342827847489E-007
   5.6000000000000022E-002    -1.5836585021133942E-007
   5.7100000000000012E-002    -8.4282582690775598E-008
   5.8200000000000002E-002    -1.2459532072739421E-008
   5.9300000000000019E-002     2.8025025855527019E-008
   6.0400000000000009E-002     4.7779906253708759E-008
   6.1500000000000027E-002     8.5639499047829304E-008
   6.2600000000000017E-002     1.5112019013940881E-007
   6.3700000000000007E-002     2.0502824327195412E-007
   6.4800000000000024E-002     2.1597092825231812E-007
   6.5900000000000014E-002     2.0886326979052683E-007
   6.7000000000000004E-002     2.2172049796154170E-007
   6.8100000000000022E-002     2.4669711251590343E-007
   6.9200000000000012E-002     2.4927197728175088E-007
   7.0300000000000029E-002     2.3170390761606541E-007
   7.1400000000000019E-002     2.3217529587782337E-007
   7.2500000000000009E-002     2.5546560777911509E-007
   7.3600000000000027E-002     2.5405745418538572E-007
   7.4700000000000016E-002     2.0259113853171584E-007
   7.5800000000000006E-002     1.4907298861999152E-007
   7.6900000000000024E-002     1.5171909240052628E-007
   7.8000000000000014E-002     1.8890123953951843E-007
   7.9100000000000004E-002     1.8620578146055777E-007
   8.0200000000000021E-002     1.2414587047260284E-007
   8.1300000000000011E-002     6.7545975923621882E-008
   8.2400000000000029E-002     6.8784395068632875E-008
   8.3500000000000019E-002     9.0469612246124598E-008
   8.4600000000000009E-002     7.0735488577611250E-008
   8.5700000000000026E-002     2.3232683332707893E-008
   8.6800000000000016E-002     1.1768395147271349E-008
   8.7900000000000006E-002     4.0410096602272461E-008
   8.9000000000000024E-002     3.9081566427512371E-008
   9.0100000000000013E-002    -2.1769587021935877E-008
   9.1200000000000003E-002    -7.0817499420172680E-008
   9.2300000000000021E-002    -3.8621141840167184E-008
   9.3400000000000011E-002     2.7446990458201981E-008
   9.4500000000000028E-002     2.4967071965420473E-008
   9.5600000000000018E-002    -5.2087141710899232E-008
   9.6700000000000008E-002    -9.9155748500834306E-008
   9.7800000000000026E-002    -5.5011025068552044E-008
   9.8900000000000016E-002     7.8835409311750482E-009
  0.10000000000000001         -4.4834824741712964E-009
  0.10110000000000002         -6.4861403359373071E-008
  0.10220000000000001         -7.1927779288216698E-008
  0.10330000000000003         -1.3385230701601358E-008
  0.10440000000000002          1.4918539292807509E-008
  0.10550000000000001         -3.6534917313701953E-008
  0.10660000000000003         -8.6318493686121656E-008
  0.10770000000000002         -4.5941497717194579E-008
  0.10880000000000001          3.4646234325919067E-008
  0.10990000000000003          3.6382587609296024E-008
  0.11100000000000002         -4.5444547680517644E-008
  0.11210000000000001         -8.8427448474703851E-008
  0.11320000000000002         -2.7219844156434192E-008
  0.11430000000000001          4.6416630539170001E-008
  0.11540000000000003          2.4174212853722565E-008
  0.11650000000000002         -5.2421182061834770E-008
  0.11760000000000001         -5.7797095109890506E-008
  0.11870000000000003          2.0357408203608429E-008
  0.11980000000000002          5.9924794015842053E-008
  0.12090000000000001         -4.2919321430190394E-009
  0.12200000000000003         -7.4862597898572858E-008
  0.12310000000000001         -3.8747465680444293E-008
  0.12420000000000003          5.5764541428970915E-008
  0.12530000000000002          6.8020263199741748E-008
  0.12640000000000001         -2.0171738057683797E-008
  0.12750000000000003         -7.5929804665975098E-008
  0.12860000000000002         -1.8135082768822031E-008
  0.12970000000000001          6.1124602268591843E-008
  0.13080000000000003          4.1614811152612674E-008
  0.13190000000000002         -3.9663415662971602E-008
  0.13300000000000001         -5.0326651290788504E-008
  0.13410000000000000          2.7329820184718301E-008
  0.13520000000000004          6.6946242327503569E-008
  0.13630000000000003         -1.4575692874885249E-009
  0.13740000000000002         -7.6004248228400684E-008
  0.13850000000000001         -3.7048401679840026E-008
  0.13960000000000000          6.4482492234674282E-008
  0.14070000000000005          7.8210717902038596E-008
  0.14180000000000004         -1.8334059603830610E-008
  0.14290000000000003         -8.4295493252284359E-008
  0.14400000000000002         -2.6642526407272271E-008
  0.14510000000000001          6.2968602776436455E-008
  0.14620000000000000          5.2231964531301855E-008
  0.14730000000000004         -3.2726678256267405E-008
  0.14840000000000003         -5.6223630195972873E-008
  0.14950000000000002          1.3301761470074780E-008
  0.15060000000000001          5.8248435408359001E-008
  0.15170000000000000          2.2352912854017859E-009
  0.15280000000000005         -6.6481916860539059E-008
  0.15390000000000004         -3.3136533517108546E-008
  0.15500000000000003          5.9645259398166672E-008
  0.15610000000000002          7.1274904200890887E-008
  0.15720000000000001         -2.1301882924262827E-008
  0.15830000000000000         -8.4283186652100994E-008
  0.15940000000000004         -2.6636387318035304E-008
  0.16050000000000003          6.4494678042592568E-008
  0.16160000000000002          5.7383218177164963E-008
  0.16270000000000001         -2.8405727547919923E-008
  0.16380000000000000         -5.9979704758461594E-008
  0.16490000000000005          3.4782179358927579E-009
  0.16600000000000004          5.5160935374942710E-008
  0.16710000000000003          1.3339740867479577E-008
  0.16820000000000002         -5.2000096673054941E-008
  0.16930000000000001         -3.2684361883639212E-008
  0.17040000000000000          4.4880156480076039E-008
  0.17150000000000004          5.9335150126571534E-008
  0.17260000000000003         -1.6360468535481232E-008
  0.17370000000000002         -7.0603093149657070E-008
  0.17480000000000001         -2.2454971215779551E-008
  0.17590000000000000          5.5789801223227187E-008
  0.17700000000000005          4.9576069471868323E-008
  0.17810000000000004         -2.6349793458280146E-008
  0.17920000000000003         -5.5932456888285742E-008
  0.18030000000000002         -3.9506539706302135E-010
  0.18140000000000001          4.8691795484501199E-008
  0.18250000000000000          1.6228971944087789E-008
  0.18360000000000004         -4.2166739433469047E-008
  0.18470000000000003         -3.1734792571569415E-008
  0.18580000000000002          3.1943073963702773E-008
  0.18690000000000001          4.8331639135312798E-008
  0.18800000000000000         -1.0588041554626670E-008
  0.18910000000000005         -5.6499260381315253E-008
  0.19020000000000004         -2.0300369385495287E-008
  0.19130000000000003          4.3691446904858822E-008
  0.19240000000000002          4.1995701138830555E-008
  0.19350000000000001         -1.8055649420034570E-008
  0.19460000000000005         -4.4968164303327285E-008
  0.19570000000000004         -3.6335805475573579E-009
  0.19680000000000003          3.7251556506134875E-008
  0.19790000000000002          1.6482317732879892E-008
  0.19900000000000001         -2.7763244148104604E-008
  0.20010000000000000         -2.3399039150717726E-008
  0.20120000000000005          2.1623542068027746E-008
  0.20230000000000004          3.4535769799504124E-008
  0.20340000000000003         -6.6645426954892173E-009
  0.20450000000000002         -3.9311778721184965E-008
  0.20560000000000000         -1.3886556793352156E-008
  0.20670000000000005          3.0801839301375367E-008
  0.20780000000000004          2.8624187464743045E-008
  0.20890000000000003         -1.4126187330987250E-008
