 -0.12000000000000000          0.0000000000000000
 -0.11889999999999999          0.0000000000000000
 -0.11780000000000000          0.0000000000000000
 -0.11670000000000000          0.0000000000000000
 -0.11559999999999999          0.0000000000000000
 -0.11449999999999999          0.0000000000000000
 -0.11340000000000000          0.0000000000000000
 -0.11230000000000000          0.0000000000000000
 -0.11119999999999999          0.0000000000000000
 -0.11009999999999999          2.4000243043723909E-024
 -0.10900000000000000         -1.4065609243422292E-023
 -0.10790000000000000         -2.0158553149739546E-023
 -0.10679999999999999          2.3609309374847976E-022
 -0.10569999999999999          1.4395345844284347E-022
 -0.10460000000000000         -2.2927548265087603E-021
 -0.10349999999999999         -1.7718398552374085E-021
 -0.10239999999999999          1.5905074054609365E-020
 -0.10130000000000000          2.0831317496513377E-020
 -0.10020000000000000         -7.9272530886592629E-020
  -9.9099999999999994E-002    -1.7510790597348767E-019
  -9.7999999999999990E-002     2.4450934164366410E-019
  -9.6899999999999986E-002     1.0396057637354736E-018
  -9.5799999999999996E-002    -4.3666153678335418E-020
  -9.4699999999999993E-002    -4.2844899297883450E-018
  -9.3599999999999989E-002    -4.3870235162076618E-018
  -9.2499999999999999E-002     1.0761626386759790E-017
  -9.1399999999999995E-002     2.7231454127180614E-017
  -9.0299999999999991E-002    -3.8410239277379472E-018
  -8.9200000000000002E-002    -8.9253820415876152E-017
  -8.8099999999999984E-002    -9.5308808969543917E-017
  -8.6999999999999994E-002     1.3636484003009468E-016
  -8.5899999999999990E-002     4.2458881733837411E-016
  -8.4799999999999986E-002     1.7978667381699610E-016
  -8.3699999999999997E-002    -8.1178134181370768E-016
  -8.2599999999999993E-002    -1.4590202867552815E-015
  -8.1499999999999989E-002    -9.5568953963469394E-017
  -8.0399999999999999E-002     2.9471615662371659E-015
  -7.9299999999999995E-002     4.1579653064257975E-015
  -7.8199999999999992E-002     1.5542355779934926E-016
  -7.7100000000000002E-002    -7.2640385121391059E-015
  -7.5999999999999984E-002    -1.1160692460271057E-014
  -7.4899999999999994E-002    -5.5982376835639076E-015
  -7.3799999999999991E-002     9.6390672272303815E-015
  -7.2699999999999987E-002     2.9311097413152812E-014
  -7.1599999999999997E-002     4.0210707214025782E-014
  -7.0499999999999993E-002     1.6085592737359947E-014
  -6.9399999999999989E-002    -6.4578320447226945E-014
  -6.8300000000000000E-002    -1.6458464094631226E-013
  -6.7199999999999996E-002    -1.5898697289240538E-013
  -6.6099999999999992E-002     6.9542082595935861E-014
  -6.5000000000000002E-002     4.3670809698505286E-013
  -6.3899999999999985E-002     5.9355802608032637E-013
  -6.2799999999999995E-002     1.9792633786271108E-013
  -6.1699999999999991E-002    -6.5364776308599049E-013
  -6.0599999999999994E-002    -1.3335565290928386E-012
  -5.9499999999999990E-002    -1.1716837352779286E-012
  -5.8399999999999994E-002    -7.9708165252618396E-014
  -5.7299999999999990E-002     1.3725822778712371E-012
  -5.6199999999999986E-002     2.4587810086573736E-012
  -5.5099999999999996E-002     2.6846101296856828E-012
  -5.3999999999999992E-002     1.6823699551526961E-012
  -5.2899999999999989E-002    -8.1627743843751266E-013
  -5.1799999999999985E-002    -4.3534754794183339E-012
  -5.0699999999999995E-002    -7.1745396082456558E-012
  -4.9599999999999991E-002    -7.0335443198843439E-012
  -4.8499999999999988E-002    -3.1000946167786259E-012
  -4.7399999999999998E-002     3.2307218966048934E-012
  -4.6299999999999994E-002     9.8256238215133074E-012
  -4.5199999999999990E-002     1.5510905060356350E-011
  -4.4099999999999986E-002     1.9168108073008838E-011
  -4.2999999999999997E-002     1.7401288743279508E-011
  -4.1899999999999993E-002     5.4186052346472113E-012
  -4.0799999999999989E-002    -1.7505816241047967E-011
  -3.9699999999999985E-002    -4.3707096969436421E-011
  -3.8599999999999995E-002    -6.0405819235498370E-011
  -3.7499999999999992E-002    -5.8461235852291793E-011
  -3.6399999999999988E-002    -3.7237435357440063E-011
  -3.5299999999999984E-002    -1.0056752522760726E-012
  -3.4199999999999994E-002     4.6556772326233897E-011
  -3.3099999999999991E-002     1.0134673655848303E-010
  -3.1999999999999987E-002     1.5312381917986784E-010
  -3.0899999999999997E-002     1.8410419022618640E-010
  -2.9799999999999993E-002     1.7434073629196689E-010
  -2.8699999999999989E-002     1.0730412391968258E-010
  -2.7599999999999986E-002    -2.7167332619648654E-011
  -2.6499999999999996E-002    -2.2586359171850034E-010
  -2.5399999999999992E-002    -4.5923567726369185E-010
  -2.4299999999999988E-002    -6.6683514265974964E-010
  -2.3199999999999985E-002    -7.7470468928808600E-010
  -2.2099999999999995E-002    -7.2147610108430626E-010
  -2.0999999999999991E-002    -4.6298065381478182E-010
  -1.9899999999999987E-002     4.8684781900343310E-011
  -1.8799999999999983E-002     8.7559315353757938E-010
  -1.7699999999999994E-002     2.0656925059370224E-009
  -1.6599999999999990E-002     3.6150309412619208E-009
  -1.5499999999999986E-002     5.4777915536874389E-009
  -1.4399999999999996E-002     7.6281549965528939E-009
  -1.3299999999999992E-002     1.0106928627351408E-008
  -1.2199999999999989E-002     1.3000432730336797E-008
  -1.1099999999999985E-002     1.6389734014410351E-008
  -9.9999999999999950E-003     2.0351528462470014E-008
  -8.8999999999999913E-003     2.5020890248583783E-008
  -7.7999999999999875E-003     3.0640418202665387E-008
  -6.6999999999999837E-003     3.7540733188734521E-008
  -5.5999999999999939E-003     4.6092239358586085E-008
  -4.4999999999999901E-003     5.6697935235661134E-008
  -3.3999999999999864E-003     6.9819876102883427E-008
  -2.2999999999999826E-003     8.5982726716338220E-008
  -1.1999999999999927E-003     1.0575489994835152E-007
  -9.9999999999988987E-005     1.2977064045571751E-007
   1.0000000000000148E-003     1.5879979287092283E-007
   2.1000000000000185E-003     1.9377668536435522E-007
   3.2000000000000084E-003     2.3574872898279864E-007
   4.3000000000000121E-003     2.8586345024450566E-007
   5.4000000000000159E-003     3.4549316296761390E-007
   6.5000000000000058E-003     4.1639918890723493E-007
   7.6000000000000234E-003     5.0070860879714019E-007
   8.7000000000000133E-003     6.0067475260439096E-007
   9.8000000000000032E-003     7.1852929295346257E-007
   1.0900000000000021E-002     8.5670683347416343E-007
   1.2000000000000011E-002     1.0182328651353600E-006
   1.3100000000000001E-002     1.2068127261954942E-006
   1.4200000000000018E-002     1.4265550589698250E-006
   1.5300000000000008E-002     1.6816615016068681E-006
   1.6400000000000026E-002     1.9765027445828309E-006
   1.7500000000000016E-002     2.3160071123129455E-006
   1.8600000000000005E-002     2.7058670184487710E-006
   1.9700000000000023E-002     3.1522995413979515E-006
   2.0800000000000013E-002     3.6617627756641014E-006
   2.1900000000000003E-002     4.2409192246850580E-006
   2.3000000000000020E-002     4.8967040129355155E-006
   2.4100000000000010E-002     5.6363710427831393E-006
   2.5200000000000000E-002     6.4675718931539450E-006
   2.6300000000000018E-002     7.3983442234748509E-006
   2.7400000000000008E-002     8.4371549746720120E-006
   2.8500000000000025E-002     9.5923705885070376E-006
   2.9600000000000015E-002     1.0871343874896411E-005
   3.0700000000000005E-002     1.2280692317290232E-005
   3.1800000000000023E-002     1.3826818758388981E-005
   3.2900000000000013E-002     1.5516558050876483E-005
   3.4000000000000002E-002     1.7356380340061150E-005
   3.5100000000000020E-002     1.9350605725776404E-005
   3.6200000000000010E-002     2.1500638467841782E-005
   3.7300000000000028E-002     2.3805761884432286E-005
   3.8400000000000017E-002     2.6264600819558837E-005
   3.9500000000000007E-002     2.8874552299384959E-005
   4.0600000000000025E-002     3.1630137527827173E-005
   4.1700000000000015E-002     3.4521202906034887E-005
   4.2800000000000005E-002     3.7533631257247180E-005
   4.3900000000000022E-002     4.0650338632985950E-005
   4.5000000000000012E-002     4.3851694499608129E-005
   4.6100000000000002E-002     4.7113684559008107E-005
   4.7200000000000020E-002     5.0408489187248051E-005
   4.8300000000000010E-002     5.3703523008152843E-005
   4.9400000000000027E-002     5.6960641813930124E-005
   5.0500000000000017E-002     6.0137019318062812E-005
   5.1600000000000007E-002     6.3184685132000595E-005
   5.2700000000000025E-002     6.6053675254806876E-005
   5.3800000000000014E-002     6.8693305365741253E-005
   5.4900000000000004E-002     7.1048285462893546E-005
   5.6000000000000022E-002     7.3058159614447504E-005
   5.7100000000000012E-002     7.4656287324614823E-005
   5.8200000000000002E-002     7.5777883466798812E-005
   5.9300000000000019E-002     7.6362375693861395E-005
   6.0400000000000009E-002     7.6350472227204591E-005
   6.1500000000000027E-002     7.5680894951801747E-005
   6.2600000000000017E-002     7.4291965574957430E-005
   6.3700000000000007E-002     7.2125825681723654E-005
   6.4800000000000024E-002     6.9133304350543767E-005
   6.5900000000000014E-002     6.5274187363684177E-005
   6.7000000000000004E-002     6.0517046222230420E-005
   6.8100000000000022E-002     5.4835316404933110E-005
   6.9200000000000012E-002     4.8214282287517563E-005
   7.0300000000000029E-002     4.0647453715791926E-005
   7.1400000000000019E-002     3.2141775591298938E-005
   7.2500000000000009E-002     2.2719861590303481E-005
   7.3600000000000027E-002     1.2421322026057169E-005
   7.4700000000000016E-002     1.3006134622628451E-006
   7.5800000000000006E-002    -1.0574851330602542E-005
   7.6900000000000024E-002    -2.3127908207243308E-005
   7.8000000000000014E-002    -3.6271623685024679E-005
   7.9100000000000004E-002    -4.9897887947736308E-005
   8.0200000000000021E-002    -6.3879087974783033E-005
   8.1300000000000011E-002    -7.8071898315101862E-005
   8.2400000000000029E-002    -9.2332185886334628E-005
   8.3500000000000019E-002    -1.0651832417352125E-004
   8.4600000000000009E-002    -1.2048000644426793E-004
   8.5700000000000026E-002    -1.3405147183220834E-004
   8.6800000000000016E-002    -1.4705683861393481E-004
   8.7900000000000006E-002    -1.5932391397655010E-004
   8.9000000000000024E-002    -1.7069521709345281E-004
   9.0100000000000013E-002    -1.8102279864251614E-004
   9.1200000000000003E-002    -1.9016301666852087E-004
   9.2300000000000021E-002    -1.9797771528828889E-004
   9.3400000000000011E-002    -2.0434088946785778E-004
   9.4500000000000028E-002    -2.0914144988637418E-004
   9.5600000000000018E-002    -2.1228636614978313E-004
   9.6700000000000008E-002    -2.1370676404330879E-004
   9.7800000000000026E-002    -2.1336412464734167E-004
   9.8900000000000016E-002    -2.1124254271853715E-004
  0.10000000000000001         -2.0733685232698917E-004
  0.10110000000000002         -2.0165414025541395E-004
  0.10220000000000001         -1.9422873447183520E-004
  0.10330000000000003         -1.8513496615923941E-004
  0.10440000000000002         -1.7447963182348758E-004
  0.10550000000000001         -1.6238368698395789E-004
  0.10660000000000003         -1.4896564243827015E-004
  0.10770000000000002         -1.3435920118354261E-004
  0.10880000000000001         -1.1872317554662004E-004
  0.10990000000000003         -1.0224073048448190E-004
  0.11100000000000002         -8.5105886682868004E-005
  0.11210000000000001         -6.7509135988075286E-005
  0.11320000000000002         -4.9641563236946240E-005
  0.11430000000000001         -3.1695424695499241E-005
  0.11540000000000003         -1.3859930731996428E-005
  0.11650000000000002          3.6819815250055399E-006
  0.11760000000000001          2.0751667761942372E-005
  0.11870000000000003          3.7174482713453472E-005
  0.11980000000000002          5.2780960686504841E-005
  0.12090000000000001          6.7433305957820266E-005
  0.12200000000000003          8.1025122199207544E-005
  0.12310000000000001          9.3463197117671371E-005
  0.12420000000000003          1.0465284867677838E-004
  0.12530000000000002          1.1451003956608474E-004
  0.12640000000000001          1.2297699868213385E-004
  0.12750000000000003          1.3003889762330800E-004
  0.12860000000000002          1.3570158625952899E-004
  0.12970000000000001          1.3997487258166075E-004
  0.13080000000000003          1.4287758676800877E-004
  0.13190000000000002          1.4444929547607899E-004
  0.13300000000000001          1.4475095667876303E-004
  0.13410000000000000          1.4385026588570327E-004
  0.13520000000000004          1.4182647282723337E-004
  0.13630000000000003          1.3877535820938647E-004
  0.13740000000000002          1.3480713823810220E-004
  0.13850000000000001          1.3002898776903749E-004
  0.13960000000000000          1.2453374802134931E-004
  0.14070000000000005          1.1841266677947715E-004
  0.14180000000000004          1.1177827400388196E-004
  0.14290000000000003          1.0475924500497058E-004
  0.14400000000000002          9.7471202025189996E-005
  0.14510000000000001          9.0000023192260414E-005
  0.14620000000000000          8.2419828686397523E-005
  0.14730000000000004          7.4815230618696660E-005
  0.14840000000000003          6.7278982896823436E-005
  0.14950000000000002          5.9890491684200242E-005
  0.15060000000000001          5.2708666771650314E-005
  0.15170000000000000          4.5784727262798697E-005
  0.15280000000000005          3.9170248783193529E-005
  0.15390000000000004          3.2905329135246575E-005
  0.15500000000000003          2.7009140467271209E-005
  0.15610000000000002          2.1494575776159763E-005
  0.15720000000000001          1.6386518836952746E-005
  0.15830000000000000          1.1714348147506826E-005
  0.15940000000000004          7.4826552918239031E-006
  0.16050000000000003          3.6673202430392848E-006
  0.16160000000000002          2.4239662366198900E-007
  0.16270000000000001         -2.7942830911342753E-006
  0.16380000000000000         -5.4348533922166098E-006
  0.16490000000000005         -7.6912465374334715E-006
  0.16600000000000004         -9.6018684416776523E-006
  0.16710000000000003         -1.1204029760847334E-005
  0.16820000000000002         -1.2512885405158158E-005
  0.16930000000000001         -1.3539459359890316E-005
  0.17040000000000000         -1.4311161976365838E-005
  0.17150000000000004         -1.4864146578474902E-005
  0.17260000000000003         -1.5220014574879315E-005
  0.17370000000000002         -1.5387695384561084E-005
  0.17480000000000001         -1.5387013263534755E-005
  0.17590000000000000         -1.5256454389600549E-005
  0.17700000000000005         -1.5028492271085270E-005
  0.17810000000000004         -1.4707987247675192E-005
  0.17920000000000003         -1.4289432328951079E-005
  0.18030000000000002         -1.3788493561150972E-005
  0.18140000000000001         -1.3241624401416630E-005
  0.18250000000000000         -1.2673229321080726E-005
  0.18360000000000004         -1.2079153748345561E-005
  0.18470000000000003         -1.1451164937170688E-005
  0.18580000000000002         -1.0803462828334887E-005
  0.18690000000000001         -1.0162576472794171E-005
  0.18800000000000000         -9.5369168775505386E-006
  0.18910000000000005         -8.9143741206498817E-006
  0.19020000000000004         -8.2906717580044642E-006
  0.19130000000000003         -7.6841661211801693E-006
  0.19240000000000002         -7.1119693529908545E-006
  0.19350000000000001         -6.5664694375300314E-006
  0.19460000000000005         -6.0303013924567495E-006
  0.19570000000000004         -5.5061368584574666E-006
  0.19680000000000003         -5.0167659537692089E-006
  0.19790000000000002         -4.5724787014478352E-006
  0.19900000000000001         -4.1570438042981550E-006
  0.20010000000000000         -3.7532504393311683E-006
  0.20120000000000005         -3.3695837373670656E-006
  0.20230000000000004         -3.0274813980213366E-006
  0.20340000000000003         -2.7290784601063933E-006
  0.20450000000000002         -2.4545299766032258E-006
  0.20560000000000000         -2.1926516637904570E-006
  0.20670000000000005         -1.9570607037167065E-006
  0.20780000000000004         -1.7640264786678017E-006
  0.20890000000000003         -1.6068618151621195E-006
