  -1.3200000000000002E-002     0.0000000000000000
  -1.2100000000000001E-002     0.0000000000000000
  -1.1000000000000001E-002     0.0000000000000000
  -9.9000000000000025E-003     0.0000000000000000
  -8.8000000000000023E-003     0.0000000000000000
  -7.7000000000000011E-003     0.0000000000000000
  -6.6000000000000017E-003     0.0000000000000000
  -5.5000000000000014E-003     0.0000000000000000
  -4.4000000000000011E-003     1.5833982193229128E-026
  -3.3000000000000008E-003     8.1601473017388344E-026
  -2.2000000000000006E-003     4.1897359170135517E-025
  -1.1000000000000003E-003     2.2694875460809439E-024
  -1.7347234759768071E-018     7.2054894293076463E-024
   1.0999999999999985E-003     5.7344448846482075E-024
   2.1999999999999988E-003    -5.1370685256864706E-023
   3.2999999999999991E-003    -2.2991806728725245E-022
   4.3999999999999994E-003    -2.4613800675345720E-022
   5.4999999999999997E-003     1.2665066160272759E-021
   6.6000000000000000E-003     5.0830575797778164E-021
   7.7000000000000002E-003     2.0858166939091539E-021
   8.8000000000000005E-003    -3.0425612553692619E-020
   9.9000000000000008E-003    -7.1731933035513622E-020
   1.1000000000000001E-002     4.6867194014899317E-020
   1.2100000000000001E-002     4.6063113713421540E-019
   1.3199999999999998E-002     5.0893843320852393E-019
   1.4299999999999998E-002    -1.2825714571091431E-018
   1.5399999999999999E-002    -3.8859667183694846E-018
   1.6500000000000001E-002    -3.8382036037406594E-019
   1.7599999999999998E-002     1.2635467579697603E-017
   1.8700000000000001E-002     1.5062578451508860E-017
   1.9799999999999998E-002    -2.0764825759120736E-017
   2.0900000000000002E-002    -5.4341167120528123E-017
   2.1999999999999999E-002     2.1706283027659189E-017
   2.3099999999999996E-002     1.4585171491846125E-016
   2.4199999999999999E-002    -4.6107904302820368E-017
   2.5299999999999996E-002    -5.6330226797296815E-016
   2.6400000000000000E-002    -2.1205504245224891E-016
   2.7499999999999997E-002     1.9674881298822888E-015
   2.8600000000000000E-002     3.0232304188565224E-015
   2.9699999999999997E-002    -2.7346990215279489E-015
   3.0800000000000001E-002    -1.2434475005912177E-014
   3.1899999999999998E-002    -7.8948391945524339E-015
   3.3000000000000002E-002     2.1660890651129840E-014
   3.4099999999999998E-002     4.3621478499657196E-014
   3.5200000000000002E-002     3.4360753361394525E-015
   3.6299999999999999E-002    -7.9417172165786865E-014
   3.7400000000000003E-002    -8.1665346685598494E-014
   3.8500000000000000E-002     5.2314238824149178E-014
   3.9599999999999996E-002     1.3606069125104286E-013
   4.0700000000000000E-002    -3.3498533536912428E-014
   4.1799999999999997E-002    -1.9843054608302546E-013
   4.2900000000000001E-002     1.8033243355617540E-013
   4.3999999999999997E-002     8.1602709615588576E-013
   4.5100000000000001E-002     2.5522100166770756E-013
   4.6199999999999998E-002    -1.9936777923001969E-012
   4.7300000000000002E-002    -3.1033392002000060E-012
   4.8399999999999999E-002     5.9887912771255936E-013
   4.9500000000000002E-002     6.8990780970057397E-012
   5.0600000000000006E-002     6.7894739309848351E-012
   5.1699999999999996E-002    -3.9618534147800588E-012
   5.2800000000000000E-002    -1.3882091656758355E-011
   5.3900000000000003E-002    -6.9599560489908008E-012
   5.5000000000000007E-002     1.0996577780308936E-011
   5.6099999999999997E-002     1.1968231961034803E-011
   5.7200000000000001E-002    -1.1750702841317739E-011
   5.8300000000000005E-002    -1.9211021662357552E-011
   5.9399999999999994E-002     2.6398406030581079E-011
   6.0499999999999998E-002     7.4036395070198324E-011
   6.1600000000000002E-002     1.7448332709224523E-011
   6.2700000000000006E-002    -1.3551064437233862E-010
   6.3799999999999996E-002    -1.8797662038050333E-010
   6.4899999999999999E-002     2.1617813442120770E-011
   6.6000000000000003E-002     3.1557739754717318E-010
   6.7100000000000007E-002     2.8648947103526723E-010
   6.8199999999999997E-002    -1.4817602700389898E-010
   6.9300000000000000E-002    -4.7437631600644181E-010
   7.0400000000000004E-002    -1.8122149614274718E-010
   7.1500000000000008E-002     4.0870912210166921E-010
   7.2599999999999998E-002     3.9090944370379077E-010
   7.3700000000000002E-002    -3.8013422964944255E-010
   7.4800000000000005E-002    -7.3479439199886087E-010
   7.5899999999999995E-002     2.7843249927883562E-010
   7.6999999999999999E-002     1.5459187263644480E-009
   7.8100000000000003E-002     8.2787576793919015E-010
   7.9200000000000007E-002    -1.8753527619708166E-009
   8.0299999999999996E-002    -3.1919853427098133E-009
   8.1400000000000000E-002    -3.4449643138145802E-010
   8.2500000000000004E-002     4.2019374646429242E-009
   8.3600000000000008E-002     4.5943906457068806E-009
   8.4699999999999998E-002    -7.4032990848849067E-010
   8.5800000000000001E-002    -5.6743263421310530E-009
   8.6900000000000005E-002    -3.6329983466032445E-009
   8.8000000000000009E-002     2.8158608778028338E-009
   8.9099999999999999E-002     4.1421652774431550E-009
   9.0200000000000002E-002    -2.7745510333687662E-009
   9.1300000000000006E-002    -8.1019981834629107E-009
   9.2399999999999996E-002    -1.0741197931096735E-009
   9.3500000000000000E-002     1.3379529484325303E-008
   9.4600000000000004E-002     1.7470537017061361E-008
   9.5700000000000007E-002     2.7078510544953360E-009
   9.6799999999999997E-002    -1.7069950786208210E-008
   9.7900000000000001E-002    -2.1352052570478008E-008
   9.9000000000000005E-002    -8.3565545594410651E-009
  0.10010000000000001          4.1769538938751793E-009
  0.10120000000000000          4.1938466033286659E-009
  0.10230000000000000          1.2355834133614962E-009
  0.10340000000000001          1.0099177494282685E-008
  0.10450000000000001          2.5772921574684915E-008
  0.10560000000000000          2.6838675282192526E-008
  0.10670000000000000          3.2669322802547640E-009
  0.10780000000000001         -2.9446230342955459E-008
  0.10890000000000001         -4.7651454337938048E-008
  0.11000000000000000         -4.1838799091920009E-008
  0.11110000000000000         -1.5088916782701745E-008
  0.11220000000000001          2.7007700964531978E-008
  0.11330000000000000          7.0358638026846165E-008
  0.11440000000000002          8.3914123649719841E-008
  0.11550000000000001          4.1672034711837114E-008
  0.11660000000000000         -3.8365694621234070E-008
  0.11770000000000001         -1.0149302198669830E-007
  0.11880000000000000         -1.1202944705246409E-007
  0.11989999999999999         -9.3759616959232517E-008
  0.12100000000000001         -7.7523040431515255E-008
  0.12210000000000000         -3.1085665597174739E-008
  0.12320000000000002          1.1015916356882371E-007
  0.12430000000000001          3.1846079195929633E-007
  0.12540000000000001          4.2912341768897022E-007
  0.12650000000000003          2.8288110343055450E-007
  0.12760000000000002         -8.8547466248201090E-008
  0.12870000000000001         -4.5619214006364928E-007
  0.12980000000000003         -6.0039587879145984E-007
  0.13090000000000002         -4.9630358489594073E-007
  0.13200000000000001         -2.5118526991718682E-007
  0.13310000000000002          5.7616471593746610E-008
  0.13420000000000001          4.1790823956944223E-007
  0.13530000000000003          7.8888712096158997E-007
  0.13640000000000002          9.7550559985393193E-007
  0.13750000000000001          7.4139228445346816E-007
  0.13860000000000003          3.2855520970542784E-008
  0.13970000000000002         -8.9553282123233657E-007
  0.14080000000000001         -1.6319263522746041E-006
  0.14190000000000003         -1.7823914504333516E-006
  0.14300000000000002         -1.1483192565719946E-006
  0.14410000000000003          1.5010351717137382E-007
  0.14520000000000002          1.6350310261259438E-006
  0.14630000000000001          2.6502900709601818E-006
  0.14740000000000003          2.6986474495060975E-006
  0.14850000000000002          1.7275804111704929E-006
  0.14960000000000001          4.8324981349878726E-008
  0.15070000000000003         -1.8895519815487205E-006
  0.15180000000000002         -3.5875784760719398E-006
  0.15290000000000001         -4.3955760702374391E-006
  0.15400000000000003         -3.6378946788317990E-006
  0.15510000000000002         -1.1188715234311530E-006
  0.15620000000000003          2.4264513740490656E-006
  0.15730000000000002          5.5436044021917041E-006
  0.15840000000000001          6.8507188188959844E-006
  0.15950000000000003          5.7247871154686436E-006
  0.16060000000000002          2.3967099878063891E-006
  0.16170000000000001         -2.2643332613370148E-006
  0.16280000000000003         -6.8944873419241048E-006
  0.16390000000000002         -9.7525844466872513E-006
  0.16500000000000001         -9.2914588094572537E-006
  0.16610000000000003         -5.1071228881482966E-006
  0.16720000000000002          1.5268655033651157E-006
  0.16830000000000003          8.1463967944728211E-006
  0.16940000000000002          1.2332204278209247E-005
  0.17050000000000001          1.2715590855805203E-005
  0.17160000000000003          9.1752635853481479E-006
  0.17270000000000002          2.4757637220318429E-006
  0.17380000000000001         -6.0048960222047754E-006
  0.17490000000000003         -1.4178640412865207E-005
  0.17600000000000002         -1.9142773453495465E-005
  0.17710000000000004         -1.7873377146315761E-005
  0.17820000000000003         -9.0156472651869990E-006
  0.17930000000000001          5.1828319556079805E-006
  0.18040000000000003          1.8813831047737040E-005
  0.18150000000000002          2.5291106794611551E-005
  0.18260000000000001          2.1714531612815335E-005
  0.18370000000000003          1.0831635336217005E-005
  0.18480000000000002         -1.5890822169239982E-006
  0.18590000000000001         -1.1592861483222805E-005
  0.18700000000000003         -1.9072460418101400E-005
  0.18810000000000002         -2.4870454581105150E-005
  0.18920000000000003         -2.6567726308712736E-005
  0.19030000000000002         -1.8750539311440662E-005
  0.19140000000000001          1.0497483344806824E-006
  0.19250000000000003          2.6420075300848112E-005
  0.19360000000000002          4.3388274207245559E-005
  0.19470000000000001          4.0052160329651088E-005
  0.19580000000000003          1.7053913325071335E-005
  0.19690000000000002         -1.1161302609252743E-005
  0.19800000000000001         -2.7281497750664130E-005
  0.19910000000000003         -2.5648065275163390E-005
  0.20020000000000002         -1.6531435903743841E-005
  0.20130000000000003         -1.4450331946136430E-005
  0.20240000000000002         -2.1031748474342749E-005
  0.20350000000000001         -2.1070967704872601E-005
  0.20460000000000003          9.6233668500644853E-007
  0.20570000000000002          3.9305639802478254E-005
  0.20680000000000001          6.5059997723437846E-005
  0.20790000000000003          5.1255676225991920E-005
  0.20900000000000002          2.1399050638137851E-006
  0.21010000000000004         -4.5141026930650696E-005
  0.21120000000000003         -5.2833063818980008E-005
  0.21230000000000002         -1.9236220396123827E-005
  0.21340000000000003          1.7939501049113460E-005
  0.21450000000000002          1.7987791579798795E-005
  0.21560000000000001         -2.0549467080854811E-005
  0.21670000000000003         -5.4573600209550932E-005
  0.21780000000000002         -3.7225850974209607E-005
  0.21890000000000001          3.1684197892900556E-005
  0.22000000000000003          9.6250449132639915E-005
  0.22110000000000002          9.2185095127206296E-005
  0.22220000000000004          1.1836638805107214E-005
  0.22330000000000003         -7.8316217695828527E-005
  0.22440000000000002         -9.4563889433629811E-005
  0.22550000000000003         -1.9984516256954521E-005
  0.22660000000000002          6.9630281359422952E-005
  0.22770000000000001          7.5246971391607076E-005
  0.22880000000000003         -2.1253828890621662E-005
  0.22990000000000002         -1.2643457739613950E-004
  0.23100000000000004         -1.2143860658397898E-004
  0.23210000000000003          1.3402838703768793E-005
  0.23320000000000002          1.6442898777313530E-004
  0.23430000000000004          1.8642250506673008E-004
  0.23540000000000003          4.6741941332584247E-005
  0.23650000000000002         -1.3252734788693488E-004
  0.23760000000000003         -1.8412098870612681E-004
  0.23870000000000002         -5.7268316595582291E-005
  0.23980000000000001          1.2501598394010216E-004
  0.24090000000000000          1.7630656657274812E-004
  0.24200000000000005          2.8965810997760855E-005
  0.24310000000000004         -1.8535040726419538E-004
  0.24420000000000003         -2.4741605739109218E-004
  0.24530000000000002         -6.4644933445379138E-005
  0.24640000000000001          2.1651253337040544E-004
  0.24750000000000005          3.2888882560655475E-004
  0.24860000000000004          1.4278145681601018E-004
  0.24970000000000003         -1.8570157408248633E-004
  0.25080000000000002         -3.4426437923684716E-004
  0.25190000000000001         -1.6817732830531895E-004
  0.25300000000000000          1.8079967412631959E-004
  0.25410000000000005          3.5678269341588020E-004
  0.25520000000000004          1.6978822532109916E-004
  0.25630000000000003         -2.1325958368834108E-004
  0.25740000000000002         -4.1769599192775786E-004
  0.25850000000000001         -2.2471765987575054E-004
  0.25960000000000005          2.0447395218070596E-004
  0.26070000000000004          4.6800632844679058E-004
  0.26180000000000003          3.0172642436809838E-004
  0.26290000000000002         -1.5873493975959718E-004
  0.26400000000000001         -4.8643286572769284E-004
  0.26510000000000000         -3.5682052839547396E-004
  0.26620000000000005          1.3163279800210148E-004
  0.26730000000000004          5.2309723105281591E-004
  0.26840000000000003          4.2430369649082422E-004
  0.26950000000000002         -1.0230309271719307E-004
  0.27060000000000001         -5.6573696201667190E-004
  0.27170000000000005         -5.0507398555055261E-004
  0.27280000000000004          4.7765341150807217E-005
  0.27390000000000003          5.7140295393764973E-004
  0.27500000000000002          5.5179261835291982E-004
  0.27610000000000001         -6.2517192418454215E-006
  0.27720000000000000         -5.6909135309979320E-004
  0.27830000000000005         -5.8813969371840358E-004
  0.27940000000000004         -3.3857766538858414E-005
  0.28050000000000003          5.7270802790299058E-004
  0.28160000000000002          6.5560231450945139E-004
  0.28270000000000001          1.2698277714662254E-004
  0.28380000000000005         -5.3060567006468773E-004
  0.28490000000000004         -7.0949364453554153E-004
  0.28600000000000003         -2.3723633785266429E-004
  0.28710000000000002          4.5664439676329494E-004
  0.28820000000000001          7.2537263622507453E-004
  0.28930000000000000          3.0510028591379523E-004
  0.29040000000000005         -4.1981250979006290E-004
  0.29150000000000004         -7.5847166590392590E-004
  0.29260000000000003         -3.7013844121247530E-004
  0.29370000000000002          3.8987799780443311E-004
  0.29480000000000001          7.9657457536086440E-004
  0.29590000000000005          4.5737862819805741E-004
  0.29700000000000004         -3.0274043092504144E-004
  0.29810000000000003         -7.6175609137862921E-004
  0.29920000000000002         -5.0289166392758489E-004
  0.30030000000000001          2.0149661577306688E-004
  0.30140000000000006          6.8039749749004841E-004
  0.30250000000000005          5.0813308916985989E-004
  0.30360000000000004         -1.2542789045255631E-004
  0.30470000000000003         -6.2749558128416538E-004
  0.30580000000000002         -5.5161362979561090E-004
  0.30690000000000001          2.0744997527799569E-005
  0.30800000000000005          5.7260697940364480E-004
  0.30910000000000004          6.1272183666005731E-004
  0.31020000000000003          1.0910983110079542E-004
  0.31130000000000002         -4.7849831753410399E-004
  0.31240000000000001         -6.1253417516127229E-004
  0.31350000000000006         -1.7928812303580344E-004
  0.31460000000000005          3.9858030504547060E-004
  0.31570000000000004          5.7026225840672851E-004
