  -1.3200000000000002E-002     0.0000000000000000
  -1.2100000000000001E-002     0.0000000000000000
  -1.1000000000000001E-002     0.0000000000000000
  -9.9000000000000025E-003    -7.5720409734635692E-016
  -8.8000000000000023E-003    -4.6425257504956706E-015
  -7.7000000000000011E-003    -2.9576618525194512E-014
  -6.6000000000000017E-003    -1.6370815835754782E-013
  -5.5000000000000014E-003    -6.5402587859364480E-013
  -4.4000000000000011E-003    -1.7320733606066008E-012
  -3.3000000000000008E-003    -2.1099554395331843E-012
  -2.2000000000000006E-003     3.8829881150725942E-012
  -1.1000000000000003E-003     1.9555629685030773E-011
  -1.7347234759768071E-018     1.5939774456949496E-012
   1.0999999999999985E-003    -1.9897627989706734E-010
   2.1999999999999988E-003    -6.7390709679315819E-010
   3.2999999999999991E-003    -7.6189443642959986E-010
   4.3999999999999994E-003     1.4946748283506395E-009
   5.4999999999999997E-003     7.2322801081270427E-009
   6.6000000000000000E-003     1.0980654607806173E-008
   7.7000000000000002E-003    -1.3456437075731742E-009
   8.8000000000000005E-003    -3.7695571108997683E-008
   9.9000000000000008E-003    -7.2872808232204989E-008
   1.1000000000000001E-002    -4.6562849576048393E-008
   1.2100000000000001E-002     8.2098964071519731E-008
   1.3199999999999998E-002     2.6174558342972887E-007
   1.4299999999999998E-002     3.4429928064128035E-007
   1.5399999999999999E-002     1.6649576650706877E-007
   1.6500000000000001E-002    -3.5626504768515588E-007
   1.7599999999999998E-002    -1.1316730024191202E-006
   1.8700000000000001E-002    -1.7052188923116773E-006
   1.9799999999999998E-002    -1.1620577424764633E-006
   2.0900000000000002E-002     1.3054790315436549E-006
   2.1999999999999999E-002     5.0210378503834363E-006
   2.3099999999999996E-002     6.9988827817724086E-006
   2.4199999999999999E-002     3.6723074572364567E-006
   2.5299999999999996E-002    -5.1694159992621280E-006
   2.6400000000000000E-002    -1.4214037037163507E-005
   2.7499999999999997E-002    -1.5966572391334921E-005
   2.8600000000000000E-002    -7.5039588409708813E-006
   2.9699999999999997E-002     6.4861133068916388E-006
   3.0800000000000001E-002     1.8132815966964699E-005
   3.1899999999999998E-002     2.3027532733976841E-005
   3.3000000000000002E-002     2.1191926862229593E-005
   3.4099999999999998E-002     1.2886517652077600E-005
   3.5200000000000002E-002    -2.4258054054371314E-006
   3.6299999999999999E-002    -2.1194864530116320E-005
   3.7400000000000003E-002    -3.4027551009785384E-005
   3.8500000000000000E-002    -3.4526394301792607E-005
   3.9599999999999996E-002    -2.9311791877262294E-005
   4.0700000000000000E-002    -3.2263185858028010E-005
   4.1799999999999997E-002    -4.4769720261683688E-005
   4.2900000000000001E-002    -4.7156605432974175E-005
   4.3999999999999997E-002    -1.8221116988570429E-005
   4.5100000000000001E-002     3.6508463381323963E-005
   4.6199999999999998E-002     8.3981933130417019E-005
   4.7300000000000002E-002     9.5556177257094532E-005
   4.8399999999999999E-002     7.5012692832387984E-005
   4.9500000000000002E-002     4.9785518058342859E-005
   5.0600000000000006E-002     3.8727601349819452E-005
   5.1699999999999996E-002     3.6403842386789620E-005
   5.2800000000000000E-002     2.7145142666995525E-005
   5.3900000000000003E-002     3.5768730413110461E-006
   5.5000000000000007E-002    -3.1705567380413413E-005
   5.6099999999999997E-002    -7.0814639911986887E-005
   5.7200000000000001E-002    -9.7189215011894703E-005
   5.8300000000000005E-002    -8.7662949226796627E-005
   5.9399999999999994E-002    -3.6777233617613092E-005
   6.0499999999999998E-002     2.0677694919868372E-005
   6.1600000000000002E-002     3.2765809010015801E-005
   6.2700000000000006E-002    -1.0127984751306940E-005
   6.3799999999999996E-002    -5.2800300181843340E-005
   6.4899999999999999E-002    -3.3620530302869156E-005
   6.6000000000000003E-002     3.8065521948738024E-005
   6.7100000000000007E-002     8.6831707449164242E-005
   6.8199999999999997E-002     6.1060345615260303E-005
   6.9300000000000000E-002    -4.2297401705582161E-006
   7.0400000000000004E-002    -3.3562242606421933E-005
   7.1500000000000008E-002    -5.2596533350879326E-006
   7.2599999999999998E-002     2.9018621717114002E-005
   7.3700000000000002E-002     1.8001303033088334E-005
   7.4800000000000005E-002    -2.6525687644607387E-005
   7.5899999999999995E-002    -5.4956824897089973E-005
   7.6999999999999999E-002    -4.3320273107383400E-005
   7.8100000000000003E-002    -6.8896911216143053E-006
   7.9200000000000007E-002     3.3104359317803755E-005
   8.0299999999999996E-002     6.1874838138464838E-005
   8.1400000000000000E-002     5.4608553909929469E-005
   8.2500000000000004E-002    -8.0674508353695273E-006
   8.3600000000000008E-002    -8.8473425421398133E-005
   8.4699999999999998E-002    -9.6283409220632166E-005
   8.5800000000000001E-002     8.2512106018839404E-006
   8.6900000000000005E-002     1.3129586295690387E-004
   8.8000000000000009E-002     1.2552915723063052E-004
   8.9099999999999999E-002    -2.7941721782553941E-005
   9.0200000000000002E-002    -1.6740558203309774E-004
   9.1300000000000006E-002    -1.2600858462974429E-004
   9.2399999999999996E-002     6.4342370023950934E-005
   9.3500000000000000E-002     1.9887222151737660E-004
   9.4600000000000004E-002     1.3182355905883014E-004
   9.5700000000000007E-002    -6.6682296164799482E-005
   9.6799999999999997E-002    -2.0356556342449039E-004
   9.7900000000000001E-002    -1.6740971477702260E-004
   9.9000000000000005E-002    -6.6130692175647710E-006
  0.10010000000000001          1.5384894504677504E-004
  0.10120000000000000          2.1052647207397968E-004
  0.10230000000000000          1.1629909568000585E-004
  0.10340000000000001         -9.2049718659836799E-005
  0.10450000000000001         -2.6554695796221495E-004
  0.10560000000000000         -2.2169679868966341E-004
  0.10670000000000000          5.8014589740196243E-005
  0.10780000000000001          3.3244077349081635E-004
  0.10890000000000001          3.0530354706570506E-004
  0.11000000000000000         -3.6564983020070940E-005
  0.11110000000000000         -3.6078595439903438E-004
  0.11220000000000001         -3.3159871236421168E-004
  0.11330000000000000          1.9351251467014663E-005
  0.11440000000000002          3.3226719824597239E-004
  0.11550000000000001          3.1443312764167786E-004
  0.11660000000000000          2.1761325115221553E-005
  0.11770000000000001         -2.5832027313299477E-004
  0.11880000000000000         -3.1261413823813200E-004
  0.11989999999999999         -1.4014057524036616E-004
  0.12100000000000001          1.2735881318803877E-004
  0.12210000000000000          3.2570929033681750E-004
  0.12320000000000002          3.0543497996404767E-004
  0.12430000000000001          2.6378997063147835E-005
  0.12540000000000001         -3.2559566898271441E-004
  0.12650000000000003         -4.2082997970283031E-004
  0.12760000000000002         -1.1461008398327976E-004
  0.12870000000000001          3.2721305615268648E-004
  0.12980000000000003          4.5530023635365069E-004
  0.13090000000000002          1.2789694301318377E-004
  0.13200000000000001         -3.1491601839661598E-004
  0.13310000000000002         -4.2810139711946249E-004
  0.13420000000000001         -1.4156286488287151E-004
  0.13530000000000003          2.1942640887573361E-004
  0.13640000000000002          3.3596050343476236E-004
  0.13750000000000001          1.8974643899127841E-004
  0.13860000000000003         -3.9294274756684899E-005
  0.13970000000000002         -2.1079136058688164E-004
  0.14080000000000001         -2.6612330111674964E-004
  0.14190000000000003         -1.5177961904555559E-004
  0.14300000000000002          1.2296444037929177E-004
  0.14410000000000003          3.6227330565452576E-004
  0.14520000000000002          2.9730610549449921E-004
  0.14630000000000001         -8.1832949945237488E-005
  0.14740000000000003         -4.1853377479128540E-004
  0.14850000000000002         -3.5099027445539832E-004
  0.14960000000000001          5.5498392612207681E-005
  0.15070000000000003          3.6986192571930587E-004
  0.15180000000000002          2.9570926562882960E-004
  0.15290000000000001         -2.0449975636438467E-005
  0.15400000000000003         -2.3085133580025285E-004
  0.15510000000000002         -2.0240727462805808E-004
  0.15620000000000003         -6.7719789512921125E-005
  0.15730000000000002          4.7604189603589475E-005
  0.15840000000000001          1.5209555567707866E-004
  0.15950000000000003          2.2679172980133444E-004
  0.16060000000000002          1.3836675498168916E-004
  0.16170000000000001         -1.4628870121669024E-004
  0.16280000000000003         -3.7683249684050679E-004
  0.16390000000000002         -2.5321764405816793E-004
  0.16500000000000001          1.5765197167638689E-004
  0.16610000000000003          4.2301852954551578E-004
  0.16720000000000002          2.4607780505903065E-004
  0.16830000000000003         -1.6483265790157020E-004
  0.16940000000000002         -3.5628402838483453E-004
  0.17050000000000001         -1.7506688891444355E-004
  0.17160000000000003          1.1053423804696649E-004
  0.17270000000000002          2.0964903524145484E-004
  0.17380000000000001          1.3259697880130261E-004
  0.17490000000000003          4.4192951463628560E-005
  0.17600000000000002         -2.5923931389115751E-005
  0.17710000000000004         -1.4474567433353513E-004
  0.17820000000000003         -2.3476756177842617E-004
  0.17930000000000001         -1.0968639981001616E-004
  0.18040000000000003          1.9977017655037344E-004
  0.18150000000000002          3.6061997525393963E-004
  0.18260000000000001          1.3326707994565368E-004
  0.18370000000000003         -2.6172416983172297E-004
  0.18480000000000002         -3.6970377550460398E-004
  0.18590000000000001         -7.3581351898610592E-005
  0.18700000000000003          2.5882472982630134E-004
  0.18810000000000002          2.5826942874118686E-004
  0.18920000000000003          4.3956874833384063E-006
  0.19030000000000002         -1.5065698244143277E-004
  0.19140000000000001         -8.1175516243092716E-005
  0.19250000000000003          1.0843718882824760E-005
  0.19360000000000002         -2.6447567506693304E-005
  0.19470000000000001         -6.1828497564420104E-005
  0.19580000000000003          5.7358771300641820E-005
  0.19690000000000002          1.9663164857774973E-004
  0.19800000000000001          1.0550210572546348E-004
  0.19910000000000003         -1.6843009507283568E-004
  0.20020000000000002         -2.8013763949275017E-004
  0.20130000000000003         -5.8884594182018191E-005
  0.20240000000000002          2.2665447613690048E-004
  0.20350000000000001          2.2256135707721114E-004
  0.20460000000000003         -2.9053857360850088E-005
  0.20570000000000002         -1.7250586824957281E-004
  0.20680000000000001         -5.3930554713588208E-005
  0.20790000000000003          8.9400047727394849E-005
  0.20900000000000002          2.4423346985713579E-005
  0.21010000000000004         -1.1586459731915966E-004
  0.21120000000000003         -5.7183107855962589E-005
  0.21230000000000002          1.5720758528914303E-004
  0.21340000000000003          1.9647447334136814E-004
  0.21450000000000002         -5.5950960813788697E-005
  0.21560000000000001         -2.8434363775886595E-004
  0.21670000000000003         -1.6640230023767799E-004
  0.21780000000000002          1.5955074923112988E-004
  0.21890000000000001          2.7505695470608771E-004
  0.22000000000000003          5.8789057220565155E-005
  0.22110000000000002         -1.6979726206045598E-004
  0.22220000000000004         -1.2853254156652838E-004
  0.22330000000000003          4.6394139644689858E-005
  0.22440000000000002          6.0411377489799634E-005
  0.22550000000000003         -6.9780988269485533E-005
  0.22660000000000002         -6.6724009229801595E-005
  0.22770000000000001          1.2801041884813458E-004
  0.22880000000000003          2.1389128232840449E-004
  0.22990000000000002         -1.4062314221519046E-005
  0.23100000000000004         -2.9833009466528893E-004
  0.23210000000000003         -2.3751318803988397E-004
  0.23320000000000002          1.3238079554866999E-004
  0.23430000000000004          3.4949797554872930E-004
  0.23540000000000003          1.4709716197103262E-004
  0.23650000000000002         -1.9230355974286795E-004
  0.23760000000000003         -2.4631779524497688E-004
  0.23870000000000002         -2.1421652490971610E-005
  0.23980000000000001          1.2509757652878761E-004
  0.24090000000000000          4.0665145206730813E-005
  0.24200000000000005         -4.2118164856219664E-005
  0.24310000000000004          6.2362822063732892E-005
  0.24420000000000003          1.6185239655897021E-004
  0.24530000000000002         -7.6147739491716493E-007
  0.24640000000000001         -2.7606906951405108E-004
  0.24750000000000005         -2.5516294408589602E-004
  0.24860000000000004          1.2058188440278172E-004
  0.24970000000000003          3.9836694486439228E-004
  0.25080000000000002          2.0405999384820461E-004
  0.25190000000000001         -2.2941180213820189E-004
  0.25300000000000000         -3.6358030047267675E-004
  0.25410000000000005         -7.3281778895761818E-005
  0.25520000000000004          2.2581119264941663E-004
  0.25630000000000003          1.8596938753034920E-004
  0.25740000000000002         -2.9867171178921126E-005
  0.25850000000000001         -7.4924799264408648E-005
  0.25960000000000005          4.1132898331852630E-005
  0.26070000000000004          2.7550762752071023E-005
  0.26180000000000003         -1.5721225645393133E-004
  0.26290000000000002         -1.9336427794769406E-004
  0.26400000000000001          8.4246603364590555E-005
  0.26510000000000000          3.4743070136755705E-004
  0.26620000000000005          1.9793692626990378E-004
  0.26730000000000004         -2.2765017638448626E-004
  0.26840000000000003         -3.9020329131744802E-004
  0.26950000000000002         -8.0554986197967082E-005
  0.27060000000000001          2.8904457576572895E-004
  0.27170000000000005          2.6006699772551656E-004
  0.27280000000000004         -5.7334142184117809E-005
  0.27390000000000003         -1.9830958626698703E-004
  0.27500000000000002         -3.0654569854959846E-005
  0.27610000000000001          1.0793490946525708E-004
  0.27720000000000000         -1.7331496565020643E-005
  0.27830000000000005         -1.6630082973279059E-004
  0.27940000000000004         -2.6612289730110206E-005
  0.28050000000000003          2.4769792798906565E-004
  0.28160000000000002          2.2638823429588228E-004
  0.28270000000000001         -1.3304583262652159E-004
  0.28380000000000005         -3.6288818228058517E-004
  0.28490000000000004         -1.3550410221796483E-004
  0.28600000000000003          2.5358714628964663E-004
  0.28710000000000002          2.9368477407842875E-004
  0.28820000000000001         -2.6802539650816470E-005
  0.28930000000000000         -2.3661679006181657E-004
  0.29040000000000005         -8.1654434325173497E-005
  0.29150000000000004          1.3810768723487854E-004
  0.29260000000000003          6.9615125539712608E-005
  0.29370000000000002         -1.4529991312883794E-004
  0.29480000000000001         -1.1344206723151729E-004
  0.29590000000000005          1.6386351489927620E-004
  0.29700000000000004          2.5694051873870194E-004
  0.29810000000000003         -3.5747132642427459E-005
  0.29920000000000002         -3.3806837745942175E-004
  0.30030000000000001         -2.1547588403336704E-004
  0.30140000000000006          1.8565240316092968E-004
  0.30250000000000005          3.3300742506980896E-004
  0.30360000000000004          6.2565435655415058E-005
  0.30470000000000003         -2.1223889780230820E-004
  0.30580000000000002         -1.2588829849846661E-004
  0.30690000000000001          1.2433170923031867E-004
  0.30800000000000005          1.2524383782874793E-004
  0.30910000000000004         -1.0346101771574467E-004
  0.31020000000000003         -1.5827042807359248E-004
  0.31130000000000002          8.7992833869066089E-005
  0.31240000000000001          2.4950172519311309E-004
  0.31350000000000006          6.6409752434992697E-006
  0.31460000000000005         -3.6806103889830410E-004
  0.31570000000000004         -3.6054287920705974E-004
