  -1.3200000000000002E-002     0.0000000000000000
  -1.2100000000000001E-002     0.0000000000000000
  -1.1000000000000001E-002     0.0000000000000000
  -9.9000000000000025E-003     0.0000000000000000
  -8.8000000000000023E-003    -1.0994615706797051E-020
  -7.7000000000000011E-003    -9.8817464592725274E-020
  -6.6000000000000017E-003    -6.8267857018976103E-019
  -5.5000000000000014E-003    -4.0578048052309443E-018
  -4.4000000000000011E-003    -1.9216899517793104E-017
  -3.3000000000000008E-003    -6.8853223787158441E-017
  -2.2000000000000006E-003    -1.7367028860954220E-016
  -1.1000000000000003E-003    -2.4381239875740117E-016
  -1.7347234759768071E-018     9.9785053840982773E-017
   1.0999999999999985E-003     1.1146794767188982E-015
   2.1999999999999988E-003     4.3319194569517883E-016
   3.2999999999999991E-003    -1.0624243624885333E-014
   4.3999999999999994E-003    -4.0769064556592238E-014
   5.4999999999999997E-003    -6.3535263747187265E-014
   6.6000000000000000E-003     3.2740195103631020E-014
   7.7000000000000002E-003     4.0338243270827967E-013
   8.8000000000000005E-003     9.7111338068223141E-013
   9.9000000000000008E-003     1.0172372926636752E-012
   1.1000000000000001E-002    -7.5385617887002709E-013
   1.2100000000000001E-002    -4.9528228740491897E-012
   1.3199999999999998E-002    -9.3860526989564264E-012
   1.4299999999999998E-002    -8.2628053704736359E-012
   1.5399999999999999E-002     4.6005595166764834E-012
   1.6500000000000001E-002     2.8712390104379537E-011
   1.7599999999999998E-002     5.0945647006583883E-011
   1.8700000000000001E-002     4.7965582894438086E-011
   1.9799999999999998E-002     2.8685316925611271E-013
   2.0900000000000002E-002    -8.7922169544896178E-011
   2.1999999999999999E-002    -1.7714740785379490E-010
   2.3099999999999996E-002    -2.0266119338252508E-010
   2.4199999999999999E-002    -1.0884956824774861E-010
   2.5299999999999996E-002     1.0832651442527208E-010
   2.6400000000000000E-002     3.8009984049125478E-010
   2.7499999999999997E-002     5.8771332245299845E-010
   2.8600000000000000E-002     6.2274629897274281E-010
   2.9699999999999997E-002     4.4614598126990757E-010
   3.0800000000000001E-002     1.0337635608648199E-010
   3.1899999999999998E-002    -3.1172628367492905E-010
   3.3000000000000002E-002    -7.0739342161729724E-010
   3.4099999999999998E-002    -1.0133286432179034E-009
   3.5200000000000002E-002    -1.1626331009040314E-009
   3.6299999999999999E-002    -1.0758369750618613E-009
   3.7400000000000003E-002    -6.8965499977480249E-010
   3.8500000000000000E-002    -2.7581473563409453E-011
   3.9599999999999996E-002     7.4039768760414404E-010
   4.0700000000000000E-002     1.3092796846692067E-009
   4.1799999999999997E-002     1.3406273868810104E-009
   4.2900000000000001E-002     6.1334676226820761E-010
   4.3999999999999997E-002    -8.5691348461480743E-010
   4.5100000000000001E-002    -2.8030011645086006E-009
   4.6199999999999998E-002    -4.8109338735002893E-009
   4.7300000000000002E-002    -6.4804832611287111E-009
   4.8399999999999999E-002    -7.5398531862447271E-009
   4.9500000000000002E-002    -7.8556032789833807E-009
   5.0600000000000006E-002    -7.3723342985942963E-009
   5.1699999999999996E-002    -6.0735634299646790E-009
   5.2800000000000000E-002    -4.0195815564914028E-009
   5.3900000000000003E-002    -1.4278187521199470E-009
   5.5000000000000007E-002     1.2938097260217774E-009
   5.6099999999999997E-002     3.6232523648038750E-009
   5.7200000000000001E-002     5.0958908204279396E-009
   5.8300000000000005E-002     5.4889937040059067E-009
   5.9399999999999994E-002     4.9135038260317287E-009
   6.0499999999999998E-002     3.7433252053631350E-009
   6.1600000000000002E-002     2.4069883863830910E-009
   6.2700000000000006E-002     1.1755274531566329E-009
   6.3799999999999996E-002     1.0651569209985112E-010
   6.4899999999999999E-002    -8.1479595293032503E-010
   6.6000000000000003E-002    -1.4805537906781296E-009
   6.7100000000000007E-002    -1.6238131950174761E-009
   6.8199999999999997E-002    -1.0132095162873611E-009
   6.9300000000000000E-002     2.7650393086275926E-010
   7.0400000000000004E-002     1.7682511010974622E-009
   7.1500000000000008E-002     2.7805948654702206E-009
   7.2599999999999998E-002     2.8054578660174911E-009
   7.3700000000000002E-002     1.8110031252405179E-009
   7.4800000000000005E-002     2.6333760172470022E-010
   7.5899999999999995E-002    -1.1516020359536583E-009
   7.6999999999999999E-002    -1.9218409086363408E-009
   7.8100000000000003E-002    -1.9487367275417000E-009
   7.9200000000000007E-002    -1.4729696351523103E-009
   8.0299999999999996E-002    -7.8122736058006126E-010
   8.1400000000000000E-002     2.4052556821252402E-011
   8.2500000000000004E-002     9.8057739705836866E-010
   8.3600000000000008E-002     2.0215609186635675E-009
   8.4699999999999998E-002     2.8180582312131719E-009
   8.5800000000000001E-002     2.9098816689554496E-009
   8.6900000000000005E-002     2.0344776974212664E-009
   8.8000000000000009E-002     3.7321126744593869E-010
   8.9099999999999999E-002    -1.4819679927668972E-009
   9.0200000000000002E-002    -2.8094186976801439E-009
   9.1300000000000006E-002    -3.1058124960736677E-009
   9.2399999999999996E-002    -2.3213884148276520E-009
   9.3500000000000000E-002    -8.7346974098068131E-010
   9.4600000000000004E-002     5.7959143040520189E-010
   9.5700000000000007E-002     1.4972050266237602E-009
   9.6799999999999997E-002     1.7307931754473316E-009
   9.7900000000000001E-002     1.5254899565775304E-009
   9.9000000000000005E-002     1.2592675791012198E-009
  0.10010000000000001          1.1324204907126045E-009
  0.10120000000000000          1.0390184268516123E-009
  0.10230000000000000          6.9166716798463312E-010
  0.10340000000000001         -1.0400297290047433E-010
  0.10450000000000001         -1.2083467559875771E-009
  0.10560000000000000         -2.1182668952235417E-009
  0.10670000000000000         -2.2398365384646013E-009
  0.10780000000000001         -1.3465315529259669E-009
  0.10890000000000001          1.2609359389958996E-010
  0.11000000000000000          1.2875395194456019E-009
  0.11110000000000000          1.4480476817624321E-009
  0.11220000000000001          6.9822186921086882E-010
  0.11330000000000000         -1.4390190428148486E-010
  0.11440000000000002         -2.3476129373811716E-010
  0.11550000000000001          5.4439847074760905E-010
  0.11660000000000000          1.4602684617059936E-009
  0.11770000000000001          1.5450564161412217E-009
  0.11880000000000000          4.3894166079638808E-010
  0.11989999999999999         -1.2380054759120185E-009
  0.12100000000000001         -2.2985435776945451E-009
  0.12210000000000000         -1.8974430915363882E-009
  0.12320000000000002         -2.5072291465200180E-010
  0.12430000000000001          1.4386081215178592E-009
  0.12540000000000001          1.8798453904622647E-009
  0.12650000000000003          7.4910183611720527E-010
  0.12760000000000002         -1.0004470585300851E-009
  0.12870000000000001         -1.9035888421115033E-009
  0.12980000000000003         -1.2031575735704791E-009
  0.13090000000000002          5.3493853791053425E-010
  0.13200000000000001          1.9336736656327957E-009
  0.13310000000000002          1.9574399878763415E-009
  0.13420000000000001          7.0580769007122512E-010
  0.13530000000000003         -7.5402944998970156E-010
  0.13640000000000002         -1.2866356868812545E-009
  0.13750000000000001         -5.7218191296115606E-010
  0.13860000000000003          6.7160971228830135E-010
  0.13970000000000002          1.2657612735722523E-009
  0.14080000000000001          5.2382470583367535E-010
  0.14190000000000003         -1.1347571771125331E-009
  0.14300000000000002         -2.4382280638945986E-009
  0.14410000000000003         -2.2521831066768527E-009
  0.14520000000000002         -5.2022408603136228E-010
  0.14630000000000001          1.6496519705810897E-009
  0.14740000000000003          2.8348425828994550E-009
  0.14850000000000002          2.3573629714945810E-009
  0.14960000000000001          7.0299271959228804E-010
  0.15070000000000003         -9.3582153137816704E-010
  0.15180000000000002         -1.5385187568384140E-009
  0.15290000000000001         -9.0956592257995794E-010
  0.15400000000000003          2.6488622406617424E-010
  0.15510000000000002          9.3923990807098789E-010
  0.15620000000000003          4.8308729239110448E-010
  0.15730000000000002         -8.0503215205141032E-010
  0.15840000000000001         -1.8731021178552965E-009
  0.15950000000000003         -1.7314955025327095E-009
  0.16060000000000002         -2.8390176320947091E-010
  0.16170000000000001          1.5421807164628376E-009
  0.16280000000000003          2.4939839082804838E-009
  0.16390000000000002          1.9306993781498250E-009
  0.16500000000000001          2.5902499589669503E-010
  0.16610000000000003         -1.3904769557981922E-009
  0.16720000000000002         -1.9372570214670759E-009
  0.16830000000000003         -1.0594630728277821E-009
  0.16940000000000002          5.7007654152840814E-010
  0.17050000000000001          1.6983354722555077E-009
  0.17160000000000003          1.3858766356733554E-009
  0.17270000000000002         -2.0780346887683265E-010
  0.17380000000000001         -1.8361588915993821E-009
  0.17490000000000003         -2.1142738670931749E-009
  0.17600000000000002         -6.8763039706709606E-010
  0.17710000000000004          1.3998361358957823E-009
  0.17820000000000003          2.5038291440182547E-009
  0.17930000000000001          1.6919237122436925E-009
  0.18040000000000003         -4.9685183745040717E-010
  0.18150000000000002         -2.4204951376560757E-009
  0.18260000000000001         -2.5397532965598657E-009
  0.18370000000000003         -6.0164900839154711E-010
  0.18480000000000002          2.0545514178849089E-009
  0.18590000000000001          3.3910823038496574E-009
  0.18700000000000003          2.2369359697904656E-009
  0.18810000000000002         -6.6379873819855106E-010
  0.18920000000000003         -3.1042712844708831E-009
  0.19030000000000002         -3.1664937338860000E-009
  0.19140000000000001         -8.4117129928173995E-010
  0.19250000000000003          1.9333756817729864E-009
  0.19360000000000002          2.8941757879152874E-009
  0.19470000000000001          1.3319811920098346E-009
  0.19580000000000003         -1.3686051181238668E-009
  0.19690000000000002         -2.9090967412770397E-009
  0.19800000000000001         -1.9431791731250314E-009
  0.19910000000000003          8.5166024232918858E-010
  0.20020000000000002          3.2848286313225117E-009
  0.20130000000000003          3.3517431052842994E-009
  0.20240000000000002          8.5033852181837233E-010
  0.20350000000000001         -2.3677910743202801E-009
  0.20460000000000003         -3.8165128835032647E-009
  0.20570000000000002         -2.3920823100098687E-009
  0.20680000000000001          7.0685335362696833E-010
  0.20790000000000003          2.9877511575904236E-009
  0.20900000000000002          2.7351652054363740E-009
  0.21010000000000004          3.4463087938974013E-010
  0.21120000000000003         -2.1478270273433964E-009
  0.21230000000000002         -2.7871358554421022E-009
  0.21340000000000003         -1.1752441242407485E-009
  0.21450000000000002          1.3678460586419305E-009
  0.21560000000000001          2.8910764893197438E-009
  0.21670000000000003          2.2557953283097731E-009
  0.21780000000000002         -5.8348707809852129E-011
  0.21890000000000001         -2.3156945250235594E-009
  0.22000000000000003         -2.8231230686515119E-009
  0.22110000000000002         -1.2293415174724487E-009
  0.22220000000000004          1.2081587952295081E-009
  0.22330000000000003          2.6378796924575454E-009
  0.22440000000000002          2.0658073029977686E-009
  0.22550000000000003          3.9018774322663319E-011
  0.22660000000000002         -1.9025021558150002E-009
  0.22770000000000001         -2.4139277243762081E-009
  0.22880000000000003         -1.2240362057269749E-009
  0.22990000000000002          7.8855705298863654E-010
  0.23100000000000004          2.2124371223952721E-009
  0.23210000000000003          2.0204766748577185E-009
  0.23320000000000002          3.0217833790757709E-010
  0.23430000000000004         -1.6935657320971131E-009
  0.23540000000000003         -2.4051469704744477E-009
  0.23650000000000002         -1.1872866023665551E-009
  0.23760000000000003          1.0859856347522623E-009
  0.23870000000000002          2.6508635286859317E-009
  0.23980000000000001          2.2444937020082989E-009
  0.24090000000000000          9.8313378271708274E-011
  0.24200000000000005         -2.2425628021238708E-009
  0.24310000000000004         -3.0603333200929228E-009
  0.24420000000000003         -1.6959437187935578E-009
  0.24530000000000002          9.4728436206281685E-010
  0.24640000000000001          2.9627198472326199E-009
  0.24750000000000005          2.7827860016316208E-009
  0.24860000000000004          4.4086231887341398E-010
  0.24970000000000003         -2.2835369151152918E-009
  0.25080000000000002         -3.1791913546186379E-009
  0.25190000000000001         -1.4446641660725845E-009
  0.25300000000000000          1.5460382973842002E-009
  0.25410000000000005          3.3345421979191769E-009
  0.25520000000000004          2.4286264110884304E-009
  0.25630000000000003         -4.6808457110358859E-010
  0.25740000000000002         -3.0566704722900795E-009
  0.25850000000000001         -3.2903293423203195E-009
  0.25960000000000005         -9.5733787564000750E-010
  0.26070000000000004          2.1641206604527952E-009
  0.26180000000000003          3.6439431472246042E-009
  0.26290000000000002          2.2680333167102162E-009
  0.26400000000000001         -9.3932972511368007E-010
  0.26510000000000000         -3.4244125313165341E-009
  0.26620000000000005         -3.1433811109593535E-009
  0.26730000000000004         -3.0767727254854549E-010
  0.26840000000000003          2.7363975529937079E-009
  0.26950000000000002          3.4891391997859955E-009
  0.27060000000000001          1.4091685596184789E-009
  0.27170000000000005         -1.7086072556793397E-009
  0.27280000000000004         -3.3290199485946914E-009
  0.27390000000000003         -2.2512773867333635E-009
  0.27500000000000002          5.5906657081550293E-010
  0.27610000000000001          2.8677449304126412E-009
  0.27720000000000000          2.9228175435491721E-009
  0.27830000000000005          7.3069178485596353E-010
  0.27940000000000004         -1.9952979268822446E-009
  0.28050000000000003         -3.1513087694889919E-009
  0.28160000000000002         -1.8806216584010826E-009
  0.28270000000000001          7.4301131913756535E-010
  0.28380000000000005          2.6083706305968235E-009
  0.28490000000000004          2.3259549841725402E-009
  0.28600000000000003          3.1846461578943774E-010
  0.28710000000000002         -1.6832728544358133E-009
  0.28820000000000001         -2.1655515158869321E-009
  0.28930000000000000         -9.5995367210832683E-010
  0.29040000000000005          8.5831164398086912E-010
  0.29150000000000004          1.9379615689985030E-009
  0.29260000000000003          1.5829699773206585E-009
  0.29370000000000002          9.8988962859980489E-011
  0.29480000000000001         -1.4693921635000606E-009
  0.29590000000000005         -2.0133457123705512E-009
  0.29700000000000004         -1.1233217689365915E-009
  0.29810000000000003          5.6074317411614061E-010
  0.29920000000000002          1.7886200298633526E-009
  0.30030000000000001          1.6725003604278754E-009
  0.30140000000000006          3.7295530552761136E-010
  0.30250000000000005         -1.0952969642374910E-009
  0.30360000000000004         -1.6938934699339825E-009
  0.30470000000000003         -1.0730908384104509E-009
  0.30580000000000002          2.9976060522685088E-010
  0.30690000000000001          1.4959734562225435E-009
  0.30800000000000005          1.6743700870236466E-009
  0.30910000000000004          6.1942012630211707E-010
  0.31020000000000003         -9.9391228580714142E-010
  0.31130000000000002         -1.9508401560841548E-009
  0.31240000000000001         -1.4248913160486154E-009
  0.31350000000000006          2.3679944116672402E-010
  0.31460000000000005          1.6976693384407326E-009
  0.31570000000000004          1.7512075123349291E-009
