  -1.3200000000000002E-002     0.0000000000000000
  -1.2100000000000001E-002     0.0000000000000000
  -1.1000000000000001E-002     0.0000000000000000
  -9.9000000000000025E-003     0.0000000000000000
  -8.8000000000000023E-003     0.0000000000000000
  -7.7000000000000011E-003     0.0000000000000000
  -6.6000000000000017E-003     0.0000000000000000
  -5.5000000000000014E-003     0.0000000000000000
  -4.4000000000000011E-003     0.0000000000000000
  -3.3000000000000008E-003     0.0000000000000000
  -2.2000000000000006E-003     0.0000000000000000
  -1.1000000000000003E-003     0.0000000000000000
  -1.7347234759768071E-018     0.0000000000000000
   1.0999999999999985E-003     0.0000000000000000
   2.1999999999999988E-003     0.0000000000000000
   3.2999999999999991E-003     0.0000000000000000
   4.3999999999999994E-003     0.0000000000000000
   5.4999999999999997E-003     0.0000000000000000
   6.6000000000000000E-003     0.0000000000000000
   7.7000000000000002E-003     0.0000000000000000
   8.8000000000000005E-003     0.0000000000000000
   9.9000000000000008E-003     0.0000000000000000
   1.1000000000000001E-002     0.0000000000000000
   1.2100000000000001E-002     0.0000000000000000
   1.3199999999999998E-002     0.0000000000000000
   1.4299999999999998E-002     0.0000000000000000
   1.5399999999999999E-002     0.0000000000000000
   1.6500000000000001E-002     0.0000000000000000
   1.7599999999999998E-002     0.0000000000000000
   1.8700000000000001E-002     0.0000000000000000
   1.9799999999999998E-002     0.0000000000000000
   2.0900000000000002E-002     0.0000000000000000
   2.1999999999999999E-002     0.0000000000000000
   2.3099999999999996E-002     0.0000000000000000
   2.4199999999999999E-002     0.0000000000000000
   2.5299999999999996E-002     0.0000000000000000
   2.6400000000000000E-002     0.0000000000000000
   2.7499999999999997E-002     0.0000000000000000
   2.8600000000000000E-002     0.0000000000000000
   2.9699999999999997E-002     0.0000000000000000
   3.0800000000000001E-002     0.0000000000000000
   3.1899999999999998E-002     0.0000000000000000
   3.3000000000000002E-002     0.0000000000000000
   3.4099999999999998E-002     0.0000000000000000
   3.5200000000000002E-002     0.0000000000000000
   3.6299999999999999E-002     0.0000000000000000
   3.7400000000000003E-002     0.0000000000000000
   3.8500000000000000E-002     0.0000000000000000
   3.9599999999999996E-002     0.0000000000000000
   4.0700000000000000E-002     0.0000000000000000
   4.1799999999999997E-002     0.0000000000000000
   4.2900000000000001E-002     0.0000000000000000
   4.3999999999999997E-002    -2.3277871227110562E-038
   4.5100000000000001E-002     0.0000000000000000
   4.6199999999999998E-002     1.5681645249372306E-037
   4.7300000000000002E-002     1.3574243699261928E-037
   4.8399999999999999E-002    -7.1760144593977187E-037
   4.9500000000000002E-002    -1.6786542183561909E-036
   5.0600000000000006E-002     1.7017752394435926E-036
   5.1699999999999996E-002     1.1117039085148380E-035
   5.2800000000000000E-002     5.9429436469563548E-036
   5.3900000000000003E-002    -4.7847501709059750E-035
   5.5000000000000007E-002    -9.2718454275520728E-035
   5.6099999999999997E-002     1.0409737160500620E-034
   5.7200000000000001E-002     5.7000400654044290E-034
   5.8300000000000005E-002     2.9272105222878909E-034
   5.9399999999999994E-002    -2.1306885706730009E-033
   6.0499999999999998E-002    -4.1405142815623926E-033
   6.1600000000000002E-002     3.4181035753470015E-033
   6.2700000000000006E-002     2.1774991067114460E-032
   6.3799999999999996E-002     1.5746089191994218E-032
   6.4899999999999999E-002    -6.4931063575014892E-032
   6.6000000000000003E-002    -1.4988514527363138E-031
   6.7100000000000007E-002     4.2021445687552420E-032
   6.8199999999999997E-002     6.1720689761393756E-031
   6.9300000000000000E-002     6.9538484212723898E-031
   7.0400000000000004E-002    -1.2573549310576190E-030
   7.1500000000000008E-002    -4.1882600409063520E-030
   7.2599999999999998E-002    -1.4537553987184300E-030
   7.3700000000000002E-002     1.2202770368541517E-029
   7.4800000000000005E-002     2.1827057579288793E-029
   7.5899999999999995E-002    -9.5318327933036899E-030
   7.6999999999999999E-002    -8.3556524804019913E-029
   7.8100000000000003E-002    -8.6858014099999275E-029
   7.9200000000000007E-002     1.3781494866260837E-028
   8.0299999999999996E-002     4.5911738387636914E-028
   8.1400000000000000E-002     2.3281165983662753E-028
   8.2500000000000004E-002    -1.0274260400252531E-027
   8.3600000000000008E-002    -2.1292998650157671E-027
   8.4699999999999998E-002    -8.2047913785926010E-029
   8.5800000000000001E-002     5.8672773976556827E-027
   8.6900000000000005E-002     8.5735945406946154E-027
   8.8000000000000009E-002    -3.7369916491013838E-027
   8.9099999999999999E-002    -2.8280225880889908E-026
   9.0200000000000002E-002    -3.0633850939887107E-026
   9.1300000000000006E-002     2.9337484383160725E-026
   9.2399999999999996E-002     1.2026294201063957E-025
   9.3500000000000000E-002     9.9616868236219430E-026
   9.4600000000000004E-002    -1.5309714480082976E-025
   9.5700000000000007E-002    -4.6355764348173110E-025
   9.6799999999999997E-002    -3.0645520534606138E-025
   9.7900000000000001E-002     6.4486410912661821E-025
   9.9000000000000005E-002     1.6501535396452196E-024
  0.10010000000000001          9.4509707547513570E-025
  0.10120000000000000         -2.3124895373158991E-024
  0.10230000000000000         -5.4919439147873846E-024
  0.10340000000000001         -3.1005461988440381E-024
  0.10450000000000001          7.1323722785854264E-024
  0.10560000000000000          1.7166933850764557E-023
  0.10670000000000000          1.0982260409527298E-023
  0.10780000000000001         -1.8442870611027041E-023
  0.10890000000000001         -5.0088742109669870E-023
  0.11000000000000000         -4.0129152300201134E-023
  0.11110000000000000          3.5946671734148126E-023
  0.11220000000000001          1.3343979797709646E-022
  0.11330000000000000          1.4150627307532857E-022
  0.11440000000000002         -2.6722009987532252E-023
  0.11550000000000001         -3.0841583629559315E-022
  0.11660000000000000         -4.5476450363862832E-022
  0.11770000000000001         -1.8165615032923167E-022
  0.11880000000000000          5.3925456105722370E-022
  0.11989999999999999          1.2622841780786517E-021
  0.12100000000000001          1.1846723819084083E-021
  0.12210000000000000         -2.9142321703905528E-022
  0.12320000000000002         -2.7721504201294219E-021
  0.12430000000000001         -4.4481593011392881E-021
  0.12540000000000001         -2.7597287765020967E-021
  0.12650000000000003          3.5603582242515576E-021
  0.12760000000000002          1.1941180938402641E-020
  0.12870000000000001          1.5179252147662493E-020
  0.12980000000000003          4.9009195174770288E-021
  0.13090000000000002         -2.0496383665437560E-020
  0.13200000000000001         -4.7860944892130943E-020
  0.13310000000000002         -4.9760300212569013E-020
  0.13420000000000001         -4.7709747140979725E-022
  0.13530000000000003          9.5499287726605624E-020
  0.13640000000000002          1.8105304690636235E-019
  0.13750000000000001          1.5830530864251559E-019
  0.13860000000000003         -4.7828814095212086E-020
  0.13970000000000002         -3.9410193104476451E-019
  0.14080000000000001         -6.5915324337602321E-019
  0.14190000000000003         -5.0791810592293977E-019
  0.14300000000000002          2.7944952826608641E-019
  0.14410000000000003          1.4982242670417710E-018
  0.14520000000000002          2.3557882574696370E-018
  0.14630000000000001          1.7238636285097515E-018
  0.14740000000000003         -1.0928223250464961E-018
  0.14850000000000002         -5.3573572463400353E-018
  0.14960000000000001         -8.3847485391876546E-018
  0.15070000000000003         -6.3529725111241732E-018
  0.15180000000000002          3.2177940009917597E-018
  0.15290000000000001          1.8160288781819918E-017
  0.15400000000000003          2.9747942691358837E-017
  0.15510000000000002          2.4937412627691376E-017
  0.15620000000000003         -5.8619547907902458E-018
  0.15730000000000002         -5.7746894695535553E-017
  0.15840000000000001         -1.0377314965445204E-016
  0.15950000000000003         -9.9959231608206839E-017
  0.16060000000000002         -8.4200856949559199E-018
  0.16170000000000001          1.6643294794062584E-016
  0.16280000000000003          3.4810613618472467E-016
  0.16390000000000002          3.9351816652542868E-016
  0.16500000000000001          1.5599755497001206E-016
  0.16610000000000003         -4.0085236011790765E-016
  0.16720000000000002         -1.0894852228566479E-015
  0.16830000000000003         -1.4729639313747450E-015
  0.16940000000000002         -1.0121048455975865E-015
  0.17050000000000001          6.0006524488925850E-016
  0.17160000000000003          3.0312414447134168E-015
  0.17270000000000002          5.0799873510499419E-015
  0.17380000000000001          4.9194119271071552E-015
  0.17490000000000003          9.7502968410067377E-016
  0.17600000000000002         -6.7460147609385308E-015
  0.17710000000000004         -1.5504714482791893E-014
  0.17820000000000003         -1.9796566052025441E-014
  0.17930000000000001         -1.3233770870325120E-014
  0.18040000000000003          7.6374783979245818E-015
  0.18150000000000002          3.8872483248790501E-014
  0.18260000000000001          6.6598101003140925E-014
  0.18370000000000003          6.9412018992819069E-014
  0.18480000000000002          2.7413165934833152E-014
  0.18590000000000001         -6.3655413676689393E-014
  0.18700000000000003         -1.7893858324322803E-013
  0.18810000000000002         -2.6071714774068833E-013
  0.18920000000000003         -2.3299843499892392E-013
  0.19030000000000002         -3.7058779032679914E-014
  0.19140000000000001          3.2070594552409404E-013
  0.19250000000000003          7.3002617406031645E-013
  0.19360000000000002          9.7601549238490737E-013
  0.19470000000000001          8.0019763601738014E-013
  0.19580000000000003          2.5056484800412351E-014
  0.19690000000000002         -1.2917076262775051E-012
  0.19800000000000001         -2.7434755855981763E-012
  0.19910000000000003         -3.5891819030742234E-012
  0.20020000000000002         -2.9620626697951513E-012
  0.20130000000000003         -2.6963991477980953E-013
  0.20240000000000002          4.3223987757079474E-012
  0.20350000000000001          9.5319446780095518E-012
  0.20460000000000003          1.2983087695206397E-011
  0.20570000000000002          1.1802823475515201E-011
  0.20680000000000001          3.7948116871078241E-012
  0.20790000000000003         -1.1091234701499086E-011
  0.20900000000000002         -2.9558491071446369E-011
  0.21010000000000004         -4.4738313748071690E-011
  0.21120000000000003         -4.7525153951122334E-011
  0.21230000000000002         -2.9604950435579980E-011
  0.21340000000000003          1.2395078886895394E-011
  0.21450000000000002          7.2952921481572730E-011
  0.21560000000000001          1.3568494938720477E-010
  0.21670000000000003          1.7504497851206224E-010
  0.21780000000000002          1.6250886747393167E-010
  0.21890000000000001          7.6553027805736917E-011
  0.22000000000000003         -8.6022099166083166E-011
  0.22110000000000002         -3.0123753491650973E-010
  0.22220000000000004         -5.1566956260629127E-010
  0.22330000000000003         -6.5370553414823007E-010
  0.22440000000000002         -6.3462324284557781E-010
  0.22550000000000003         -3.9634590054404839E-010
  0.22660000000000002          8.0439037375423794E-011
  0.22770000000000001          7.5572231805765000E-010
  0.22880000000000003          1.5282349830059161E-009
  0.22990000000000002          2.2516422060192554E-009
  0.23100000000000004          2.7669306845723440E-009
  0.23210000000000003          2.9433631087982803E-009
  0.23320000000000002          2.7164130944612452E-009
  0.23430000000000004          2.1105945879895671E-009
  0.23540000000000003          1.2386450753965050E-009
  0.23650000000000002          2.7543189951018121E-010
  0.23760000000000003         -5.8698518268229805E-010
  0.23870000000000002         -1.1900844754109130E-009
  0.23980000000000001         -1.4498704459242617E-009
  0.24090000000000000         -1.3751598748612537E-009
  0.24200000000000005         -1.0575684772362592E-009
  0.24310000000000004         -6.3703298192052671E-010
  0.24420000000000003         -2.5501062372867978E-010
  0.24530000000000002         -1.1569440717951185E-011
  0.24640000000000001          5.9250757078466165E-011
  0.24750000000000005         -1.1450920940625497E-011
  0.24860000000000004         -1.5138922060398130E-010
  0.24970000000000003         -2.8296945342454194E-010
  0.25080000000000002         -3.5588970659361507E-010
  0.25190000000000001         -3.6336161857164484E-010
  0.25300000000000000         -3.3636068930142926E-010
  0.25410000000000005         -3.1996971738834645E-010
  0.25520000000000004         -3.4382383051756449E-010
  0.25630000000000003         -4.0130562761753197E-010
  0.25740000000000002         -4.4823106337688046E-010
  0.25850000000000001         -4.2293610280630389E-010
  0.25960000000000005         -2.7944030422943911E-010
  0.26070000000000004         -1.8456456848947589E-011
  0.26180000000000003          2.9940988577337180E-010
  0.26290000000000002          5.6721027874573338E-010
  0.26400000000000001          6.6954763955351382E-010
  0.26510000000000000          5.3115617459909004E-010
  0.26620000000000005          1.5622582394403395E-010
  0.26730000000000004         -3.5961558730868148E-010
  0.26840000000000003         -8.5300988494907415E-010
  0.26950000000000002         -1.1465246529951401E-009
  0.27060000000000001         -1.1138062694371342E-009
  0.27170000000000005         -7.3161759983619845E-010
  0.27280000000000004         -9.7598124026987421E-011
  0.27390000000000003          5.9544558173030282E-010
  0.27500000000000002          1.1216876316666458E-009
  0.27610000000000001          1.2996818066213223E-009
  0.27720000000000000          1.0572690500865178E-009
  0.27830000000000005          4.6006326526182306E-010
  0.27940000000000004         -3.0752275725909328E-010
  0.28050000000000003         -1.0025716923323102E-009
  0.28160000000000002         -1.4042794704849371E-009
  0.28270000000000001         -1.3867217374397001E-009
  0.28380000000000005         -9.5891095064359888E-010
  0.28490000000000004         -2.5929777769384543E-010
  0.28600000000000003          4.9196180462729444E-010
  0.28710000000000002          1.0654859217140711E-009
  0.28820000000000001          1.2950278627243961E-009
  0.28930000000000000          1.1263288079987888E-009
  0.29040000000000005          6.2821098323340152E-010
  0.29150000000000004         -3.5236133455462948E-011
  0.29260000000000003         -6.6006661247897114E-010
  0.29370000000000002         -1.0663495642049270E-009
  0.29480000000000001         -1.1502684360564785E-009
  0.29590000000000005         -9.0951690623342074E-010
  0.29700000000000004         -4.3654868608911102E-010
  0.29810000000000003          1.1560991053372049E-010
  0.29920000000000002          5.8262039637213547E-010
  0.30030000000000001          8.3761914071445176E-010
  0.30140000000000006          8.2555312586052310E-010
  0.30250000000000005          5.7428711786045028E-010
  0.30360000000000004          1.8066581564113449E-010
  0.30470000000000003         -2.2335347460433752E-010
  0.30580000000000002         -5.1385434796102913E-010
  0.30690000000000001         -6.1394789252489090E-010
  0.30800000000000005         -5.1602749850943042E-010
  0.30910000000000004         -2.7975910477096022E-010
  0.31020000000000003         -6.5103634289132017E-012
  0.31130000000000002          2.0038944115174928E-010
  0.31240000000000001          2.7453883610917273E-010
  0.31350000000000006          2.0960656821333856E-010
  0.31460000000000005          5.7944444381563542E-011
  0.31570000000000004         -9.4387768434511798E-011
