  -1.3200000000000002E-002     0.0000000000000000
  -1.2100000000000001E-002     0.0000000000000000
  -1.1000000000000001E-002     0.0000000000000000
  -9.9000000000000025E-003    -5.5528299512536664E-018
  -8.8000000000000023E-003    -5.0578626916489820E-017
  -7.7000000000000011E-003    -3.5647805101670857E-016
  -6.6000000000000017E-003    -2.1653160628453197E-015
  -5.5000000000000014E-003    -1.0518050257255114E-014
  -4.4000000000000011E-003    -3.9432477059011053E-014
  -3.3000000000000008E-003    -1.0956025583291895E-013
  -2.2000000000000006E-003    -2.0230822225797418E-013
  -1.1000000000000003E-003    -1.4588897039209681E-013
  -1.7347234759768071E-018     3.8759983720867974E-013
   1.0999999999999985E-003     1.2795428779022178E-012
   2.1999999999999988E-003     8.5546223967461477E-013
   3.2999999999999991E-003    -3.2141255802697888E-012
   4.3999999999999994E-003    -8.0152802797717193E-012
   5.4999999999999997E-003    -8.8420687872209358E-013
   6.6000000000000000E-003     2.5352119709109999E-011
   7.7000000000000002E-003     3.9469209150988505E-011
   8.8000000000000005E-003    -1.8555053327151683E-011
   9.9000000000000008E-003    -1.3321192759985223E-010
   1.1000000000000001E-002    -1.3112569363649129E-010
   1.2100000000000001E-002     1.4038761819712420E-010
   1.3199999999999998E-002     4.5018538896712812E-010
   1.4299999999999998E-002     2.4586924163294555E-010
   1.5399999999999999E-002    -5.3206394845517480E-010
   1.6500000000000001E-002    -8.9725976648580286E-010
   1.7599999999999998E-002     5.9571993171747550E-011
   1.8700000000000001E-002     1.2875928101507839E-009
   1.9799999999999998E-002     4.4848796898477872E-010
   2.0900000000000002E-002    -2.1886663592596278E-009
   2.1999999999999999E-002    -2.1543207218144289E-009
   2.3099999999999996E-002     3.3977385349714950E-009
   2.4199999999999999E-002     8.4409359502046755E-009
   2.5299999999999996E-002     2.5994730812328726E-009
   2.6400000000000000E-002    -1.2802822801916136E-008
   2.7499999999999997E-002    -1.9084083646703220E-008
   2.8600000000000000E-002    -1.3012086963470892E-009
   2.9699999999999997E-002     2.5515188184499493E-008
   3.0800000000000001E-002     2.6419671783628473E-008
   3.1899999999999998E-002    -7.3124719612849276E-009
   3.3000000000000002E-002    -3.5679114773756737E-008
   3.4099999999999998E-002    -1.5617226623021452E-008
   3.5200000000000002E-002     3.3883644334764540E-008
   3.6299999999999999E-002     4.2839406688699455E-008
   3.7400000000000003E-002    -1.7017308451272584E-008
   3.8500000000000000E-002    -7.7548875765387493E-008
   3.9599999999999996E-002    -5.0372914728313845E-008
   4.0700000000000000E-002     4.9177554473089913E-008
   4.1799999999999997E-002     1.0276131945374800E-007
   4.2900000000000001E-002     3.6242116863149931E-008
   4.3999999999999997E-002    -7.3779368392479228E-008
   4.5100000000000001E-002    -8.8522916996680578E-008
   4.6199999999999998E-002     1.3484087624249241E-008
   4.7300000000000002E-002     1.0435814346010375E-007
   4.8399999999999999E-002     6.9063716523487528E-008
   4.9500000000000002E-002    -5.2713172493668026E-008
   5.0600000000000006E-002    -1.2532349558114220E-007
   5.1699999999999996E-002    -8.0980704808553128E-008
   5.2800000000000000E-002     2.7605535635188971E-008
   5.3900000000000003E-002     1.1541273181592260E-007
   5.5000000000000007E-002     1.3700062595489726E-007
   5.6099999999999997E-002     7.2243757642809214E-008
   5.7200000000000001E-002    -7.1063844586660707E-008
   5.8300000000000005E-002    -1.9774319071075297E-007
   5.9399999999999994E-002    -1.5637827743830712E-007
   6.0499999999999998E-002     6.8248674267579190E-008
   6.1600000000000002E-002     2.4152066657734395E-007
   6.2700000000000006E-002     1.0623191570857671E-007
   6.3799999999999996E-002    -2.4504453222107259E-007
   6.4899999999999999E-002    -3.7749549619547906E-007
   6.6000000000000003E-002    -2.2950695566237300E-008
   6.7100000000000007E-002     5.0663862793953740E-007
   6.8199999999999997E-002     6.0371735344233457E-007
   6.9300000000000000E-002     8.5173951447359286E-008
   7.0400000000000004E-002    -5.4234726576396497E-007
   7.1500000000000008E-002    -6.4172542124651955E-007
   7.2599999999999998E-002    -1.5862435986946366E-007
   7.3700000000000002E-002     3.6448349760576093E-007
   7.4800000000000005E-002     4.2651382159419882E-007
   7.5899999999999995E-002     5.4906770685647643E-008
   7.6999999999999999E-002    -3.3729887150002469E-007
   7.8100000000000003E-002    -3.9424227793460886E-007
   7.9200000000000007E-002    -5.2702038288998665E-008
   8.0299999999999996E-002     4.7203013764374191E-007
   8.1400000000000000E-002     7.6961578088230453E-007
   8.2500000000000004E-002     4.5527454517468868E-007
   8.3600000000000008E-002    -4.0725657868279086E-007
   8.4699999999999998E-002    -1.1117341500721523E-006
   8.5800000000000001E-002    -8.6818255340403994E-007
   8.6900000000000005E-002     2.5107550527536660E-007
   8.8000000000000009E-002     1.1510122703839443E-006
   8.9099999999999999E-002     8.2153542280138936E-007
   9.0200000000000002E-002    -4.4105689767093281E-007
   9.1300000000000006E-002    -1.2485170373111032E-006
   9.2399999999999996E-002    -6.6606497739485349E-007
   9.3500000000000000E-002     7.1500346621178323E-007
   9.4600000000000004E-002     1.4544830264640041E-006
   9.5700000000000007E-002     8.4014374124308233E-007
   9.6799999999999997E-002    -4.7096199295992847E-007
   9.7900000000000001E-002    -1.2874126014139620E-006
   9.9000000000000005E-002    -1.0330438726668945E-006
  0.10010000000000001         -4.6755531002418138E-008
  0.10120000000000000          8.8310849832851090E-007
  0.10230000000000000          1.0618114174576476E-006
  0.10340000000000001          2.8091471904190257E-007
  0.10450000000000001         -9.0383753104106290E-007
  0.10560000000000000         -1.3779033452010481E-006
  0.10670000000000000         -4.4710833435601671E-007
  0.10780000000000001          1.2032332961098291E-006
  0.10890000000000001          1.9126371171296341E-006
  0.11000000000000000          7.8332601560759940E-007
  0.11110000000000000         -1.1582033039303496E-006
  0.11220000000000001         -1.9490480553940870E-006
  0.11330000000000000         -8.4269288436189527E-007
  0.11440000000000002          9.0381416839591111E-007
  0.11550000000000001          1.5108256548046484E-006
  0.11660000000000000          5.7882664350472623E-007
  0.11770000000000001         -7.5221890938337310E-007
  0.11880000000000000         -1.2346679341135314E-006
  0.11989999999999999         -6.4879537831075140E-007
  0.12100000000000001          3.7734278635070950E-007
  0.12210000000000000          1.1136810371681349E-006
  0.12320000000000002          1.0995515822287416E-006
  0.12430000000000001          2.5721178076310025E-007
  0.12540000000000001         -8.9454971430313890E-007
  0.12650000000000003         -1.3585532769866404E-006
  0.12760000000000002         -5.5173808277686476E-007
  0.12870000000000001          8.4100906860840041E-007
  0.12980000000000003          1.3681047903446597E-006
  0.13090000000000002          4.2386335508126649E-007
  0.13200000000000001         -9.6089456746994983E-007
  0.13310000000000002         -1.2822055168726365E-006
  0.13420000000000001         -3.0556802244063874E-007
  0.13530000000000003          7.8259012070702738E-007
  0.13640000000000002          8.9526042756915558E-007
  0.13750000000000001          2.0813743617509317E-007
  0.13860000000000003         -3.6159875094199379E-007
  0.13970000000000002         -3.6767968936146644E-007
  0.14080000000000001         -1.0142398565449184E-007
  0.14190000000000003          9.4478245671325567E-008
  0.14300000000000002          2.1865565713596880E-007
  0.14410000000000003          2.8171385224595724E-007
  0.14520000000000002          9.5918004205941543E-008
  0.14630000000000001         -3.3343803806928918E-007
  0.14740000000000003         -5.5638287221881910E-007
  0.14850000000000002         -2.1354584589516890E-007
  0.14960000000000001          3.4555415595605155E-007
  0.15070000000000003          4.1715139786902000E-007
  0.15180000000000002         -8.2493919251191983E-008
  0.15290000000000001         -4.3291763063280086E-007
  0.15400000000000003         -8.1640493476697884E-008
  0.15510000000000002          5.5971980827962398E-007
  0.15620000000000003          6.3874188072077231E-007
  0.15730000000000002         -5.8068776453978899E-009
  0.15840000000000001         -6.4556417100902763E-007
  0.15950000000000003         -5.9998694723617518E-007
  0.16060000000000002         -5.4984052866302591E-009
  0.16170000000000001          4.8431627419631695E-007
  0.16280000000000003          4.6957967470007134E-007
  0.16390000000000002          5.5444036917151607E-008
  0.16500000000000001         -4.3513438185982523E-007
  0.16610000000000003         -6.8257315888331505E-007
  0.16720000000000002         -4.2269775235581619E-007
  0.16830000000000003          3.2782048720036983E-007
  0.16940000000000002          1.0225840014754795E-006
  0.17050000000000001          9.1675036628657836E-007
  0.17160000000000003         -9.2432841825029755E-008
  0.17270000000000002         -1.1326541198286577E-006
  0.17380000000000001         -1.1584373851292185E-006
  0.17490000000000003         -7.9331826441375597E-008
  0.17600000000000002          1.1051002957174205E-006
  0.17710000000000004          1.3089543244859669E-006
  0.17820000000000003          3.6306775541561365E-007
  0.17930000000000001         -9.3266464773478219E-007
  0.18040000000000003         -1.5317249335566885E-006
  0.18150000000000002         -9.1572559313135571E-007
  0.18260000000000001          5.1949581347798812E-007
  0.18370000000000003          1.6420231077063363E-006
  0.18480000000000002          1.4029578778718133E-006
  0.18590000000000001         -1.4081355459438782E-007
  0.18700000000000003         -1.6431431504315697E-006
  0.18810000000000002         -1.6500117681061965E-006
  0.18920000000000003         -1.0106074199711657E-007
  0.19030000000000002          1.5451382751052734E-006
  0.19140000000000001          1.7930311742020422E-006
  0.19250000000000003          5.4048587116994895E-007
  0.19360000000000002         -1.0393181355539127E-006
  0.19470000000000001         -1.7361533082294045E-006
  0.19580000000000003         -1.1794402325904230E-006
  0.19690000000000002          1.9179630328380881E-007
  0.19800000000000001          1.4811042774454108E-006
  0.19910000000000003          1.7006066173053114E-006
  0.20020000000000002          4.5365015921561280E-007
  0.20130000000000003         -1.3749920526606729E-006
  0.20240000000000002         -2.0600386960722972E-006
  0.20350000000000001         -7.5644049957190873E-007
  0.20460000000000003          1.3453711744659813E-006
  0.20570000000000002          2.1390158053691266E-006
  0.20680000000000001          9.2344095037333318E-007
  0.20790000000000003         -9.0507865024846978E-007
  0.20900000000000002         -1.6106788507386227E-006
  0.21010000000000004         -9.6831183782342123E-007
  0.21120000000000003          2.5483583243612884E-008
  0.21230000000000002          6.8070312408963218E-007
  0.21340000000000003          1.0273028010487906E-006
  0.21450000000000002          9.5562631940993015E-007
  0.21560000000000001          4.9001869228959549E-008
  0.21670000000000003         -1.3407309324975358E-006
  0.21780000000000002         -1.7767594044926227E-006
  0.21890000000000001         -3.8493436704811756E-007
  0.22000000000000003          1.6142338381541776E-006
  0.22110000000000002          2.0421241515578004E-006
  0.22220000000000004          4.4210588612259016E-007
  0.22330000000000003         -1.3288716900206055E-006
  0.22440000000000002         -1.4905623402228230E-006
  0.22550000000000003         -4.0160173853109882E-007
  0.22660000000000002          4.2548373357931268E-007
  0.22770000000000001          5.5101708085203427E-007
  0.22880000000000003          6.8057340740779182E-007
  0.22990000000000002          8.6622856088069966E-007
  0.23100000000000004          1.6487975074142014E-007
  0.23210000000000003         -1.4373124486155575E-006
  0.23320000000000002         -2.1191638097661780E-006
  0.23430000000000004         -4.6390039187826915E-007
  0.23540000000000003          2.1000971628382104E-006
  0.23650000000000002          2.6147683911403874E-006
  0.23760000000000003          3.6943279724255262E-007
  0.23870000000000002         -2.0563838916132227E-006
  0.23980000000000001         -2.0751333522639470E-006
  0.24090000000000000         -1.9106788329281699E-007
  0.24200000000000005          1.1915136610696209E-006
  0.24310000000000004          1.1001625352946576E-006
  0.24420000000000003          5.8405174740983057E-007
  0.24530000000000002          3.3081306582971592E-007
  0.24640000000000001         -3.7784022310916043E-007
  0.24750000000000005         -1.6974190657492727E-006
  0.24860000000000004         -1.9348622117831837E-006
  0.24970000000000003          1.7696663690003334E-007
  0.25080000000000002          2.8162303351564333E-006
  0.25190000000000001          2.7032542675442528E-006
  0.25300000000000000         -4.8590959522698540E-007
  0.25410000000000005         -3.1901406600809423E-006
  0.25520000000000004         -2.3338166101893876E-006
  0.25630000000000003          8.0608367625245592E-007
  0.25740000000000002          2.5092620035138680E-006
  0.25850000000000001          1.4334100342239253E-006
  0.25960000000000005         -3.5035151313422830E-007
  0.26070000000000004         -8.9324510099686449E-007
  0.26180000000000003         -7.4639859803937725E-007
  0.26290000000000002         -9.9481690085667651E-007
  0.26400000000000001         -8.7643394408587483E-007
  0.26510000000000000          7.4016315920744091E-007
  0.26620000000000005          2.5249366899515735E-006
  0.26730000000000004          1.7762820334610296E-006
  0.26840000000000003         -1.4308270692708902E-006
  0.26950000000000002         -3.4308500289625954E-006
  0.27060000000000001         -1.5513675180045539E-006
  0.27170000000000005          2.0769971342815552E-006
  0.27280000000000004          3.1405031677422812E-006
  0.27390000000000003          7.4599228128136019E-007
  0.27500000000000002         -1.7727454633131856E-006
  0.27610000000000001         -1.6667181625962257E-006
  0.27720000000000000         -8.9175678397168667E-008
  0.27830000000000005          4.4628794171330810E-007
  0.27940000000000004         -4.6166427125626797E-008
  0.28050000000000003          2.3354867551006464E-007
  0.28160000000000002          1.2478467397158965E-006
  0.28270000000000001          8.9604964159661904E-007
  0.28380000000000005         -1.2568438023663475E-006
  0.28490000000000004         -2.4856165055098245E-006
  0.28600000000000003         -6.4311990399801289E-007
  0.28710000000000002          2.2790427465224639E-006
  0.28820000000000001          2.5144684059341671E-006
  0.28930000000000000         -2.3203539001315221E-007
  0.29040000000000005         -2.3191512354969746E-006
  0.29150000000000004         -1.2695683153651771E-006
  0.29260000000000003          9.7925601494353032E-007
  0.29370000000000002          1.2476504025471513E-006
  0.29480000000000001         -2.7816139436254161E-007
  0.29590000000000005         -8.2807059698097873E-007
  0.29700000000000004          3.8460956375274691E-007
  0.29810000000000003          1.0518230055822642E-006
  0.29920000000000002         -2.9976962423461373E-007
  0.30030000000000001         -1.7093216229113750E-006
  0.30140000000000006         -7.5112592412551749E-007
  0.30250000000000005          1.5100911241461290E-006
  0.30360000000000004          1.8646976513991831E-006
  0.30470000000000003         -2.6237481165480858E-007
  0.30580000000000002         -1.8727291717368644E-006
  0.30690000000000001         -7.9917754192138091E-007
  0.30800000000000005          1.1780899740188033E-006
  0.30910000000000004          1.1483755315566668E-006
  0.31020000000000003         -5.6918452173704281E-007
  0.31130000000000002         -1.1365123100404162E-006
  0.31240000000000001          2.9181896366026194E-007
  0.31350000000000006          1.3040844351053238E-006
  0.31460000000000005          1.0842811093425553E-007
  0.31570000000000004         -1.5540355207122047E-006
