  -1.3200000000000002E-002     0.0000000000000000
  -1.2100000000000001E-002     0.0000000000000000
  -1.1000000000000001E-002     0.0000000000000000
  -9.9000000000000025E-003     0.0000000000000000
  -8.8000000000000023E-003     0.0000000000000000
  -7.7000000000000011E-003     0.0000000000000000
  -6.6000000000000017E-003     0.0000000000000000
  -5.5000000000000014E-003     0.0000000000000000
  -4.4000000000000011E-003     0.0000000000000000
  -3.3000000000000008E-003     0.0000000000000000
  -2.2000000000000006E-003     0.0000000000000000
  -1.1000000000000003E-003     0.0000000000000000
  -1.7347234759768071E-018     0.0000000000000000
   1.0999999999999985E-003     0.0000000000000000
   2.1999999999999988E-003     0.0000000000000000
   3.2999999999999991E-003     0.0000000000000000
   4.3999999999999994E-003     0.0000000000000000
   5.4999999999999997E-003     0.0000000000000000
   6.6000000000000000E-003     0.0000000000000000
   7.7000000000000002E-003     0.0000000000000000
   8.8000000000000005E-003     0.0000000000000000
   9.9000000000000008E-003     0.0000000000000000
   1.1000000000000001E-002     0.0000000000000000
   1.2100000000000001E-002     0.0000000000000000
   1.3199999999999998E-002     0.0000000000000000
   1.4299999999999998E-002     0.0000000000000000
   1.5399999999999999E-002     0.0000000000000000
   1.6500000000000001E-002     0.0000000000000000
   1.7599999999999998E-002     0.0000000000000000
   1.8700000000000001E-002     0.0000000000000000
   1.9799999999999998E-002     0.0000000000000000
   2.0900000000000002E-002     0.0000000000000000
   2.1999999999999999E-002     0.0000000000000000
   2.3099999999999996E-002     0.0000000000000000
   2.4199999999999999E-002     0.0000000000000000
   2.5299999999999996E-002     0.0000000000000000
   2.6400000000000000E-002     0.0000000000000000
   2.7499999999999997E-002     0.0000000000000000
   2.8600000000000000E-002     0.0000000000000000
   2.9699999999999997E-002     0.0000000000000000
   3.0800000000000001E-002     4.0639954940147714E-036
   3.1899999999999998E-002     1.5631568043877236E-035
   3.3000000000000002E-002     1.8681146494936395E-035
   3.4099999999999998E-002    -3.5084290548799779E-035
   3.5200000000000002E-002    -1.9094732530644642E-034
   3.6299999999999999E-002    -3.3386962228018193E-034
   3.7400000000000003E-002     4.9796672806842799E-035
   3.8500000000000000E-002     1.7163330568218832E-033
   3.9599999999999996E-002     4.1054628767307952E-033
   4.0700000000000000E-002     2.5255018582836826E-033
   4.1799999999999997E-002    -1.1451768086782453E-032
   4.2900000000000001E-002    -3.7865746957713281E-032
   4.3999999999999997E-002    -4.3942617818554703E-032
   4.5100000000000001E-002     4.3381466202830914E-032
   4.6199999999999998E-002     2.6738377549001760E-031
   4.7300000000000002E-002     4.6548744042562203E-031
   4.8399999999999999E-002     1.2095886240724073E-031
   4.9500000000000002E-002    -1.3768878482876513E-030
   5.0600000000000006E-002    -3.6465907394146728E-030
   5.1699999999999996E-002    -3.7228112977547590E-030
   5.2800000000000000E-002     3.8704390942067323E-030
   5.3900000000000003E-002     2.1553212910688464E-029
   5.5000000000000007E-002     3.6558086463793578E-029
   5.6099999999999997E-002     1.2677975526725839E-029
   5.7200000000000001E-002    -8.8769036142910739E-029
   5.8300000000000005E-002    -2.3911116001759943E-028
   5.9399999999999994E-002    -2.5920224453032833E-028
   6.0499999999999998E-002     1.4972036146626758E-028
   6.1600000000000002E-002     1.1052748246793074E-027
   6.2700000000000006E-002     2.0034676913552715E-027
   6.3799999999999996E-002     1.2159692852734165E-027
   6.4899999999999999E-002    -3.0659720416086105E-027
   6.6000000000000003E-002    -1.0206921030119010E-026
   6.7100000000000007E-002    -1.3832726817600974E-026
   6.8199999999999997E-002    -1.9665360587417019E-027
   6.9300000000000000E-002     3.3729932777653273E-026
   7.0400000000000004E-002     7.8806440222577147E-026
   7.1500000000000008E-002     8.0444337328945560E-026
   7.2599999999999998E-002    -3.4944960379480381E-026
   7.3700000000000002E-002    -2.8559631785353040E-025
   7.4800000000000005E-002    -5.2267847889687379E-025
   7.5899999999999995E-002    -3.9021127936273790E-025
   7.6999999999999999E-002     4.8473022644360387E-025
   7.8100000000000003E-002     2.0069232796024087E-024
   7.9200000000000007E-002     3.0739041967072352E-024
   8.0299999999999996E-002     1.6211518573256743E-024
   8.1400000000000000E-002    -4.0113872853327908E-024
   8.2500000000000004E-002    -1.2378574977343793E-023
   8.3600000000000008E-002    -1.6587938345324922E-023
   8.4699999999999998E-002    -5.7763010554183292E-024
   8.5800000000000001E-002     2.6521222799048158E-023
   8.6900000000000005E-002     6.8812040150728497E-023
   8.8000000000000009E-002     8.3098147061212735E-023
   8.9099999999999999E-002     1.7646072187377695E-023
   9.0200000000000002E-002    -1.4897711401390812E-022
   9.1300000000000006E-002    -3.4770015012073879E-022
   9.2399999999999996E-002    -3.9279166665511253E-022
   9.3500000000000000E-002    -5.6552693610599808E-023
   9.4600000000000004E-002     7.2767079496031803E-022
   9.5700000000000007E-002     1.6170259152095594E-021
   9.6799999999999997E-002     1.7838206455255728E-021
   9.7900000000000001E-002     2.7350453818866036E-022
   9.9000000000000005E-002    -3.1359933654307221E-021
  0.10010000000000001         -6.9600018793913109E-021
  0.10120000000000000         -7.7987064749703948E-021
  0.10230000000000000         -1.8368930867707292E-021
  0.10340000000000001          1.1830824220254270E-020
  0.10450000000000001          2.7602432198352064E-020
  0.10560000000000000          3.2672332032614676E-020
  0.10670000000000000          1.2417899504142443E-020
  0.10780000000000001         -3.7857949910929481E-020
  0.10890000000000001         -1.0006942183686989E-019
  0.11000000000000000         -1.2988445554505046E-019
  0.11110000000000000         -7.3356548070310446E-020
  0.11220000000000001          9.4625610516339166E-020
  0.11330000000000000          3.2571836696772872E-019
  0.11440000000000002          4.8010079740460572E-019
  0.11550000000000001          3.6999757780223957E-019
  0.11660000000000000         -1.2537855717922977E-019
  0.11770000000000001         -9.1395103162922772E-019
  0.11880000000000000         -1.6065763452873623E-018
  0.11989999999999999         -1.6016881214574802E-018
  0.12100000000000001         -3.8872512781619911E-019
  0.12210000000000000          2.0100598486469736E-018
  0.12320000000000002          4.6923019658958697E-018
  0.12430000000000001          5.9335857367051941E-018
  0.12540000000000001          3.8649538492688000E-018
  0.12650000000000003         -2.3214335854739315E-018
  0.12760000000000002         -1.1148516957224318E-017
  0.12870000000000001         -1.8427301029190810E-017
  0.12980000000000003         -1.8365138406157450E-017
  0.13090000000000002         -6.3490735953069045E-018
  0.13200000000000001          1.7444066176634753E-017
  0.13310000000000002          4.5402186891414626E-017
  0.13420000000000001          6.2899667428924379E-017
  0.13530000000000003          5.3111526744021095E-017
  0.13640000000000002          5.6522583016534591E-018
  0.13750000000000001         -7.3955419389173325E-017
  0.13860000000000003         -1.5883052283655307E-016
  0.13970000000000002         -2.0420341760811597E-016
  0.14080000000000001         -1.6222463679576026E-016
  0.14190000000000003         -5.8206056863299451E-018
  0.14300000000000002          2.4618014701255255E-016
  0.14410000000000003          5.1447394199775074E-016
  0.14520000000000002          6.6745518617281063E-016
  0.14630000000000001          5.5944535638720490E-016
  0.14740000000000003          9.5921154233404672E-017
  0.14850000000000002         -6.9142182459669345E-016
  0.14960000000000001         -1.5905318926954051E-015
  0.15070000000000003         -2.2131033323888024E-015
  0.15180000000000002         -2.0867173345707514E-015
  0.15290000000000001         -8.3891847749872255E-016
  0.15400000000000003          1.5648767470307300E-015
  0.15510000000000002          4.6145274999406533E-015
  0.15620000000000003          7.1958455836215567E-015
  0.15730000000000002          7.7879665064985171E-015
  0.15840000000000001          4.9627939900502051E-015
  0.15950000000000003         -1.8874128114224195E-015
  0.16060000000000002         -1.1814203790066168E-014
  0.16170000000000001         -2.1905696725413489E-014
  0.16280000000000003         -2.7564739092612520E-014
  0.16390000000000002         -2.3698264081358292E-014
  0.16500000000000001         -6.7507263817076328E-015
  0.16610000000000003          2.2887746724460124E-014
  0.16720000000000002          5.8960133867205777E-014
  0.16830000000000003          8.8984273779752626E-014
  0.16940000000000002          9.6399213752543927E-014
  0.17050000000000001          6.5566326781958673E-014
  0.17160000000000003         -1.1048800254971711E-014
  0.17270000000000002         -1.2542912672039441E-013
  0.17380000000000001         -2.4926604834038524E-013
  0.17490000000000003         -3.3525032793260690E-013
  0.17600000000000002         -3.2687952821949806E-013
  0.17710000000000004         -1.7701415149212057E-013
  0.17820000000000003          1.2801404088245288E-013
  0.17930000000000001          5.4571955678331396E-013
  0.18040000000000003          9.6597025083661192E-013
  0.18150000000000002          1.2206882640114491E-012
  0.18260000000000001          1.1211858264720265E-012
  0.18370000000000003          5.2188472727393576E-013
  0.18480000000000002         -6.0154122351677164E-013
  0.18590000000000001         -2.0826060060513685E-012
  0.18700000000000003         -3.5334055559915756E-012
  0.18810000000000002         -4.3827506727989185E-012
  0.18920000000000003         -4.0010451549110648E-012
  0.19030000000000002         -1.9063086612730595E-012
  0.19140000000000001          1.9862737756642934E-012
  0.19250000000000003          7.1415538413499569E-012
  0.19360000000000002          1.2300759369421321E-011
  0.19470000000000001          1.5588487098372461E-011
  0.19580000000000003          1.4888618116160046E-011
  0.19690000000000002          8.4793786575554364E-012
  0.19800000000000001         -4.1763632482871849E-012
  0.19910000000000003         -2.1688510362660729E-011
  0.20020000000000002         -4.0320233263280159E-011
  0.20130000000000003         -5.4177221736617653E-011
  0.20240000000000002         -5.6210761739672321E-011
  0.20350000000000001         -4.0057127753678756E-011
  0.20460000000000003         -2.4697151875668899E-012
  0.20570000000000002          5.4196168386422272E-011
  0.20680000000000001          1.2022986772830535E-010
  0.20790000000000003          1.7841918220629083E-010
  0.20900000000000002          2.0623974750222374E-010
  0.21010000000000004          1.8067135287846980E-010
  0.21120000000000003          8.5231738333746421E-011
  0.21230000000000002         -8.2031027803797230E-011
  0.21340000000000003         -3.0164679087896218E-010
  0.21450000000000002         -5.2947429773908539E-010
  0.21560000000000001         -6.9954553261197816E-010
  0.21670000000000003         -7.3460043603645886E-010
  0.21780000000000002         -5.6426197048153881E-010
  0.21890000000000001         -1.4855985885908751E-010
  0.22000000000000003          4.9789733447269668E-010
  0.22110000000000002          1.2877586774706629E-009
  0.22220000000000004          2.0561981006750329E-009
  0.22330000000000003          2.5760245048189745E-009
  0.22440000000000002          2.5958943883352958E-009
  0.22550000000000003          1.8997579065427317E-009
  0.22660000000000002          3.7928490903560430E-010
  0.22770000000000001         -1.8953478786443156E-009
  0.22880000000000003         -4.6255665964167747E-009
  0.22990000000000002         -7.2758101765657557E-009
  0.23100000000000004         -9.1228944398835665E-009
  0.23210000000000003         -9.3707859250002912E-009
  0.23320000000000002         -7.3242434339704232E-009
  0.23430000000000004         -2.5980004814130098E-009
  0.23540000000000003          4.6779264906149365E-009
  0.23650000000000002          1.3707651902450380E-008
  0.23760000000000003          2.2986947456615781E-008
  0.23870000000000002          3.0412799389978318E-008
  0.23980000000000001          3.3566411872243407E-008
  0.24090000000000000          3.0157444541600853E-008
  0.24200000000000005          1.8577235749717147E-008
  0.24310000000000004         -1.5299188582673651E-009
  0.24420000000000003         -2.8796620199500467E-008
  0.24530000000000002         -5.9891469561534905E-008
  0.24640000000000001         -8.9618218623854773E-008
  0.24750000000000005         -1.1142058298219126E-007
  0.24860000000000004         -1.1828839063809937E-007
  0.24970000000000003         -1.0397680938467602E-007
  0.25080000000000002         -6.4366908247848187E-008
  0.25190000000000001          1.2697145557183376E-009
  0.25300000000000000          8.9368420219670952E-008
  0.25410000000000005          1.9177602439413022E-007
  0.25520000000000004          2.9623316777360742E-007
  0.25630000000000003          3.8768544641243352E-007
  0.25740000000000002          4.5032160755908990E-007
  0.25850000000000001          4.7007898729134467E-007
  0.25960000000000005          4.3722843656723853E-007
  0.26070000000000004          3.4858089748013299E-007
  0.26180000000000003          2.0885990181795933E-007
  0.26290000000000002          3.0889008684198416E-008
  0.26400000000000001         -1.6558249171794159E-007
  0.26510000000000000         -3.5635773087960843E-007
  0.26620000000000005         -5.1625926289489144E-007
  0.26730000000000004         -6.2306173731485615E-007
  0.26840000000000003         -6.6123300257459050E-007
  0.26950000000000002         -6.2477619167111698E-007
  0.27060000000000001         -5.1861792371710180E-007
  0.27170000000000005         -3.5818447940982878E-007
  0.27280000000000004         -1.6714305672849150E-007
  0.27390000000000003          2.6363998983924830E-008
  0.27500000000000002          1.9437973719504953E-007
  0.27610000000000001          3.1385189913635259E-007
  0.27720000000000000          3.7052413404126128E-007
  0.27830000000000005          3.6123799418419367E-007
  0.27940000000000004          2.9421096314763417E-007
  0.28050000000000003          1.8718941419137991E-007
  0.28160000000000002          6.3799802774155978E-008
  0.28270000000000001         -5.1162558634132438E-008
  0.28380000000000005         -1.3655748887231312E-007
  0.28490000000000004         -1.7886856085169711E-007
  0.28600000000000003         -1.7450635425575456E-007
  0.28710000000000002         -1.2998488330140390E-007
  0.28820000000000001         -5.9957827147627540E-008
  0.28930000000000000          1.6442745831568573E-008
  0.29040000000000005          8.0139486158259388E-008
  0.29150000000000004          1.1649238729205535E-007
  0.29260000000000003          1.1854552894874359E-007
  0.29370000000000002          8.8411958643064281E-008
  0.29480000000000001          3.6488241761389872E-008
  0.29590000000000005         -2.1317001497322963E-008
  0.29700000000000004         -6.7697747851980239E-008
  0.29810000000000003         -8.8434568112916168E-008
  0.29920000000000002         -7.6159523132446338E-008
  0.30030000000000001         -3.2477871059199970E-008
  0.30140000000000006          3.2102384750487545E-008
  0.30250000000000005          1.0048751875046946E-007
  0.30360000000000004          1.5309598211388220E-007
  0.30470000000000003          1.7282071951285616E-007
  0.30580000000000002          1.4966785499836988E-007
  0.30690000000000001          8.3905369763215276E-008
  0.30800000000000005         -1.3134395793201747E-008
  0.30910000000000004         -1.2094190537936811E-007
  0.31020000000000003         -2.1413403317183111E-007
  0.31130000000000002         -2.6829937382899516E-007
  0.31240000000000001         -2.6607810355017136E-007
  0.31350000000000006         -2.0201670736241795E-007
  0.31460000000000005         -8.4921332188514498E-008
  0.31570000000000004          6.3054990562250168E-008
