  -1.3200000000000002E-002     0.0000000000000000
  -1.2100000000000001E-002     0.0000000000000000
  -1.1000000000000001E-002     0.0000000000000000
  -9.9000000000000025E-003     0.0000000000000000
  -8.8000000000000023E-003     0.0000000000000000
  -7.7000000000000011E-003     0.0000000000000000
  -6.6000000000000017E-003     0.0000000000000000
  -5.5000000000000014E-003     0.0000000000000000
  -4.4000000000000011E-003    -2.1375876282566660E-022
  -3.3000000000000008E-003    -1.4443699357459795E-021
  -2.2000000000000006E-003    -8.5564943889484661E-021
  -1.1000000000000003E-003    -4.7405662744277196E-020
  -1.7347234759768071E-018    -1.8421292854510320E-019
   1.0999999999999985E-003    -4.1464501325630723E-019
   2.1999999999999988E-003     1.4849644907367120E-020
   3.2999999999999991E-003     4.2736770248210518E-018
   4.3999999999999994E-003     1.7766519377381400E-017
   5.4999999999999997E-003     3.4394001125109930E-017
   6.6000000000000000E-003    -2.2476683067834433E-018
   7.7000000000000002E-003    -2.3432822378655397E-016
   8.8000000000000005E-003    -8.1984043679035872E-016
   9.9000000000000008E-003    -1.5034086248396695E-015
   1.1000000000000001E-002    -1.3269255515705326E-016
   1.2100000000000001E-002     9.8274897063471006E-015
   1.3199999999999998E-002     3.4605033004701455E-014
   1.4299999999999998E-002     4.6853058271231068E-014
   1.5399999999999999E-002    -6.6836849097785811E-014
   1.6500000000000001E-002    -4.3171968278944706E-013
   1.7599999999999998E-002    -7.6492642515219034E-013
   1.8700000000000001E-002     1.0032566547272734E-013
   1.9799999999999998E-002     3.3851287658398510E-012
   2.0900000000000002E-002     7.1679151329717694E-012
   2.1999999999999999E-002     3.6612709392036535E-012
   2.3099999999999996E-002    -1.5845094333832854E-011
   2.4199999999999999E-002    -4.5531477893545613E-011
   2.5299999999999996E-002    -5.1136303524934590E-011
   2.6400000000000000E-002     2.0471832562485304E-011
   2.7499999999999997E-002     1.9438090026469013E-010
   2.8600000000000000E-002     3.8571376648199873E-010
   2.9699999999999997E-002     3.1869581973431593E-010
   3.0800000000000001E-002    -4.0982175986137293E-010
   3.1899999999999998E-002    -1.8698624870694402E-009
   3.3000000000000002E-002    -2.9726476835634230E-009
   3.4099999999999998E-002    -1.2364660406660732E-009
   3.5200000000000002E-002     5.2962803032130523E-009
   3.6299999999999999E-002     1.4056511510318614E-008
   3.7400000000000003E-002     1.5682173781783604E-008
   3.8500000000000000E-002    -1.1384316822571350E-009
   3.9599999999999996E-002    -3.7482866588334218E-008
   4.0700000000000000E-002    -7.3215993268149759E-008
   4.1799999999999997E-002    -6.8699151256623736E-008
   4.2900000000000001E-002     1.5251924168069309E-008
   4.3999999999999997E-002     1.8063452955630055E-007
   4.5100000000000001E-002     3.4813376714737387E-007
   4.6199999999999998E-002     3.3979435443143302E-007
   4.7300000000000002E-002    -4.3512002889656287E-008
   4.8399999999999999E-002    -8.1100739635076025E-007
   4.9500000000000002E-002    -1.5521037539656390E-006
   5.0600000000000006E-002    -1.4720378658239497E-006
   5.1699999999999996E-002     1.0166217379037334E-007
   5.2800000000000000E-002     2.9558079859270947E-006
   5.3900000000000003E-002     5.5873288147267886E-006
   5.5000000000000007E-002     5.6656740525795612E-006
   5.6099999999999997E-002     1.2909064253108227E-006
   5.7200000000000001E-002    -7.4686709012894426E-006
   5.8300000000000005E-002    -1.7335538359475322E-005
   5.9399999999999994E-002    -2.1680505597032607E-005
   6.0499999999999998E-002    -1.2831746062147431E-005
   6.1600000000000002E-002     1.2406412679411005E-005
   6.2700000000000006E-002     4.6421606384683400E-005
   6.3799999999999996E-002     6.9618741690646857E-005
   6.4899999999999999E-002     5.9094967582495883E-005
   6.6000000000000003E-002     4.0580121094535571E-006
   6.7100000000000007E-002    -8.2586288044694811E-005
   6.8199999999999997E-002    -1.6519104246981442E-004
   6.9300000000000000E-002    -1.9775479449890554E-004
   7.0400000000000004E-002    -1.4082064444664866E-004
   7.1500000000000008E-002     1.9997007257188670E-005
   7.2599999999999998E-002     2.5411447859369218E-004
   7.3700000000000002E-002     4.7541249659843743E-004
   7.4800000000000005E-002     5.6260003475472331E-004
   7.5899999999999995E-002     4.1657386464066803E-004
   7.6999999999999999E-002     2.1904419554630294E-005
   7.8100000000000003E-002    -5.3608632879331708E-004
   7.9200000000000007E-002    -1.1062115663662553E-003
   8.0299999999999996E-002    -1.5100867021828890E-003
   8.1400000000000000E-002    -1.5460925642400980E-003
   8.2500000000000004E-002    -9.9803588818758726E-004
   8.3600000000000008E-002     2.7239264454692602E-004
   8.4699999999999998E-002     2.1532094106078148E-003
   8.5800000000000001E-002     4.1608591563999653E-003
   8.6900000000000005E-002     5.5056326091289520E-003
   8.8000000000000009E-002     5.3330720402300358E-003
   8.9099999999999999E-002     3.0101479496806860E-003
   9.0200000000000002E-002    -1.6227550804615021E-003
   9.1300000000000006E-002    -8.0041876062750816E-003
   9.2399999999999996E-002    -1.4638016000390053E-002
   9.3500000000000000E-002    -1.9142983481287956E-002
   9.4600000000000004E-002    -1.8812123686075211E-002
   9.5700000000000007E-002    -1.1596526950597763E-002
   9.6799999999999997E-002     2.9401616193354130E-003
   9.7900000000000001E-002     2.3106832057237625E-002
   9.9000000000000005E-002     4.5018758624792099E-002
  0.10010000000000001          6.2788307666778564E-002
  0.10120000000000000          6.9086395204067230E-002
  0.10230000000000000          5.6542694568634033E-002
  0.10340000000000001          2.0199818536639214E-002
  0.10450000000000001         -3.9574638009071350E-002
  0.10560000000000000        -0.11489219963550568
  0.10670000000000000        -0.18987159430980682
  0.10780000000000001        -0.24234786629676819
  0.10890000000000001        -0.24780668318271637
  0.11000000000000000        -0.18527893722057343
  0.11110000000000000         -4.4299501925706863E-002
  0.11220000000000001         0.16877856850624084
  0.11330000000000000         0.42702138423919678
  0.11440000000000002         0.68292504549026489
  0.11550000000000001         0.87265050411224365
  0.11660000000000000         0.92464894056320190
  0.11770000000000001         0.77255046367645264
  0.11880000000000000         0.37074062228202820
  0.11989999999999999        -0.29068562388420105
  0.12100000000000001         -1.1757071018218994
  0.12210000000000000         -2.1994738578796387
  0.12320000000000002         -3.2335228919982910
  0.12430000000000001         -4.1192703247070312
  0.12540000000000001         -4.6898384094238281
  0.12650000000000003         -4.7983260154724121
  0.12760000000000002         -4.3470945358276367
  0.12870000000000001         -3.3109931945800781
  0.12980000000000003         -1.7492260932922363
  0.13090000000000002         0.19525034725666046
  0.13200000000000001          2.3081955909729004
  0.13310000000000002          4.3286290168762207
  0.13420000000000001          5.9856996536254883
  0.13530000000000003          7.0431241989135742
  0.13640000000000002          7.3431620597839355
  0.13750000000000001          6.8383684158325195
  0.13860000000000003          5.6033763885498047
  0.13970000000000002          3.8235442638397217
  0.14080000000000001          1.7633736133575439
  0.14190000000000003        -0.28091955184936523
  0.14300000000000002         -2.0337986946105957
  0.14410000000000003         -3.2860617637634277
  0.14520000000000002         -3.9247846603393555
  0.14630000000000001         -3.9437665939331055
  0.14740000000000003         -3.4351549148559570
  0.14850000000000002         -2.5637772083282471
  0.14960000000000001         -1.5274307727813721
  0.15070000000000003        -0.51280456781387329
  0.15180000000000002         0.33969950675964355
  0.15290000000000001         0.95172113180160522
  0.15400000000000003          1.3030589818954468
  0.15510000000000002          1.4155224561691284
  0.15620000000000003          1.3330241441726685
  0.15730000000000002          1.1037533283233643
  0.15840000000000001         0.76954424381256104
  0.15950000000000003         0.36583453416824341
  0.16060000000000002         -6.9666065275669098E-002
  0.16170000000000001        -0.48907056450843811
  0.16280000000000003        -0.83643263578414917
  0.16390000000000002         -1.0609519481658936
  0.16500000000000001         -1.1322813034057617
  0.16610000000000003         -1.0488027334213257
  0.16720000000000002        -0.83718091249465942
  0.16830000000000003        -0.54603731632232666
  0.16940000000000002        -0.23543038964271545
  0.17050000000000001          3.8905464112758636E-002
  0.17160000000000003         0.24368235468864441
  0.17270000000000002         0.37945306301116943
  0.17380000000000001         0.47590109705924988
  0.17490000000000003         0.57106119394302368
  0.17600000000000002         0.68529969453811646
  0.17710000000000004         0.80495202541351318
  0.17820000000000003         0.88302975893020630
  0.17930000000000001         0.85328519344329834
  0.18040000000000003         0.64853143692016602
  0.18150000000000002         0.22063940763473511
  0.18260000000000001        -0.43213853240013123
  0.18370000000000003         -1.2296051979064941
  0.18480000000000002         -1.9864361286163330
  0.18590000000000001         -2.4388957023620605
  0.18700000000000003         -2.3400714397430420
  0.18810000000000002         -1.5888698101043701
  0.18920000000000003        -0.31317237019538879
  0.19030000000000002          1.1586236953735352
  0.19140000000000001          2.4293420314788818
  0.19250000000000003          3.1840496063232422
  0.19360000000000002          3.2680668830871582
  0.19470000000000001          2.6691198348999023
  0.19580000000000003          1.4656124114990234
  0.19690000000000002        -0.17698207497596741
  0.19800000000000001         -1.9528354406356812
  0.19910000000000003         -3.3970570564270020
  0.20020000000000002         -4.0089511871337891
  0.20130000000000003         -3.5071582794189453
  0.20240000000000002         -2.0439808368682861
  0.20350000000000001        -0.17297481000423431
  0.20460000000000003          1.4582691192626953
  0.20570000000000002          2.4659807682037354
  0.20680000000000001          2.8455188274383545
  0.20790000000000003          2.7704584598541260
  0.20900000000000002          2.3118267059326172
  0.21010000000000004          1.3893879652023315
  0.21120000000000003          8.6788488551974297E-003
  0.21230000000000002         -1.4928033351898193
  0.21340000000000003         -2.5138425827026367
  0.21450000000000002         -2.5892574787139893
  0.21560000000000001         -1.7792260646820068
  0.21670000000000003        -0.66190409660339355
  0.21780000000000002         0.11727274954319000
  0.21890000000000001         0.36240792274475098
  0.22000000000000003         0.42797201871871948
  0.22110000000000002         0.77573710680007935
  0.22220000000000004          1.3937379121780396
  0.22330000000000003          1.6878212690353394
  0.22440000000000002          1.0517846345901489
  0.22550000000000003        -0.38842487335205078
  0.22660000000000002         -1.6619035005569458
  0.22770000000000001         -1.7395008802413940
  0.22880000000000003        -0.54152381420135498
  0.22990000000000002         0.87654888629913330
  0.23100000000000004          1.2714716196060181
  0.23210000000000003         0.42647582292556763
  0.23320000000000002        -0.61169338226318359
  0.23430000000000004        -0.59605586528778076
  0.23540000000000003         0.57473069429397583
  0.23650000000000002          1.6152186393737793
  0.23760000000000003          1.0652898550033569
  0.23870000000000002         -1.1514686346054077
  0.23980000000000001         -3.3694956302642822
  0.24090000000000000         -3.5222432613372803
  0.24200000000000005         -1.0718274116516113
  0.24310000000000004          2.2745230197906494
  0.24420000000000003          3.9025104045867920
  0.24530000000000002          2.6340560913085938
  0.24640000000000001         -9.5788702368736267E-002
  0.24750000000000005         -1.5222780704498291
  0.24860000000000004        -0.26703938841819763
  0.24970000000000003          2.1426289081573486
  0.25080000000000002          2.6550970077514648
  0.25190000000000001        -0.16607049107551575
  0.25300000000000000         -4.3610563278198242
  0.25410000000000005         -6.1471309661865234
  0.25520000000000004         -3.5195558071136475
  0.25630000000000003          1.6266951560974121
  0.25740000000000002          5.0570979118347168
  0.25850000000000001          4.0657033920288086
  0.25960000000000005         -1.1917768977582455E-002
  0.26070000000000004         -3.0524988174438477
  0.26180000000000003         -2.0294809341430664
  0.26290000000000002          2.0808753967285156
  0.26400000000000001          5.1221790313720703
  0.26510000000000000          3.6652963161468506
  0.26620000000000005         -1.5588432550430298
  0.26730000000000004         -6.0333271026611328
  0.26840000000000003         -5.5732946395874023
  0.26950000000000002        -0.45840191841125488
  0.27060000000000001          4.5316014289855957
  0.27170000000000005          4.5682692527770996
  0.27280000000000004        -0.42826876044273376
  0.27390000000000003         -5.4891223907470703
  0.27500000000000002         -5.3604464530944824
  0.27610000000000001         0.26438361406326294
  0.27720000000000000          6.2980089187622070
  0.27830000000000005          7.1273083686828613
  0.27940000000000004          2.0144307613372803
  0.28050000000000003         -4.2303948402404785
  0.28160000000000002         -5.8613753318786621
  0.28270000000000001         -1.6046394109725952
  0.28380000000000005          4.2012534141540527
  0.28490000000000004          5.6924819946289062
  0.28600000000000003         0.99908465147018433
  0.28710000000000002         -5.8404178619384766
  0.28820000000000001         -8.4191141128540039
  0.28930000000000000         -3.9162831306457520
  0.29040000000000005          3.9941086769104004
  0.29150000000000004          8.2820739746093750
  0.29260000000000003          5.1443967819213867
  0.29370000000000002         -2.2126479148864746
  0.29480000000000001         -6.5283684730529785
  0.29590000000000005         -3.5485694408416748
  0.29700000000000004          3.7576093673706055
  0.29810000000000003          8.0942611694335938
  0.29920000000000002          4.9650187492370605
  0.30030000000000001         -3.0436949729919434
  0.30140000000000006         -8.8442659378051758
  0.30250000000000005         -7.4795031547546387
  0.30360000000000004        -0.42751777172088623
  0.30470000000000003          6.0587196350097656
  0.30580000000000002          6.5985364913940430
  0.30690000000000001          1.2126779556274414
  0.30800000000000005         -4.9270167350769043
  0.30910000000000004         -6.0976591110229492
  0.31020000000000003         -1.0841494798660278
  0.31130000000000002          5.6380910873413086
  0.31240000000000001          7.8442010879516602
  0.31350000000000006          3.3066844940185547
  0.31460000000000005         -4.0119051933288574
  0.31570000000000004         -7.6307358741760254
