  -1.3200000000000002E-002     0.0000000000000000
  -1.2100000000000001E-002     0.0000000000000000
  -1.1000000000000001E-002     0.0000000000000000
  -9.9000000000000025E-003     0.0000000000000000
  -8.8000000000000023E-003     0.0000000000000000
  -7.7000000000000011E-003     2.3706767144345152E-022
  -6.6000000000000017E-003     1.4771537327895164E-021
  -5.5000000000000014E-003     7.7629914979949973E-021
  -4.4000000000000011E-003     4.0967809740830747E-020
  -3.3000000000000008E-003     1.4616638145451163E-019
  -2.2000000000000006E-003     2.2555514414186503E-019
  -1.1000000000000003E-003    -5.5374794436386370E-019
  -1.7347234759768071E-018    -3.6500159301805711E-018
   1.0999999999999985E-003    -3.5730397431473052E-018
   2.1999999999999988E-003     3.4249830161786838E-017
   3.2999999999999991E-003     1.6026870537165207E-016
   4.3999999999999994E-003     2.1191571876731538E-016
   5.4999999999999997E-003    -6.1172491810600996E-016
   6.6000000000000000E-003    -3.0245814364073930E-015
   7.7000000000000002E-003    -3.4272242653571186E-015
   8.8000000000000005E-003     9.8456687274610724E-015
   9.9000000000000008E-003     4.0299669390410006E-014
   1.1000000000000001E-002     3.5857706642264051E-014
   1.2100000000000001E-002    -1.1616974201177077E-013
   1.3199999999999998E-002    -3.9122530085325402E-013
   1.4299999999999998E-002    -2.8496232066729799E-013
   1.5399999999999999E-002     9.8153408144285859E-013
   1.6500000000000001E-002     2.9114642554478598E-012
   1.7599999999999998E-002     2.0054702256494528E-012
   1.8700000000000001E-002    -5.9670792612598333E-012
   1.9799999999999998E-002    -1.7278935227071912E-011
   2.0900000000000002E-002    -1.3507596950679268E-011
   2.1999999999999999E-002     2.5099224781888196E-011
   2.3099999999999996E-002     8.2175849458465677E-011
   2.4199999999999999E-002     8.1919609984382191E-011
   2.5299999999999996E-002    -5.8524303458984406E-011
   2.6400000000000000E-002    -2.9994504102681674E-010
   2.7499999999999997E-002    -4.0083950048064310E-010
   2.8600000000000000E-002    -5.7215565618662367E-011
   2.9699999999999997E-002     7.4179978826194315E-010
   3.0800000000000001E-002     1.4475221021825746E-009
   3.1899999999999998E-002     1.1659566645505492E-009
   3.3000000000000002E-002    -6.1279659124835462E-010
   3.4099999999999998E-002    -3.2861873222600479E-009
   3.5200000000000002E-002    -5.0939621409895608E-009
   3.6299999999999999E-002    -3.9603254009534794E-009
   3.7400000000000003E-002     1.2442396002398937E-009
   3.8500000000000000E-002     9.6759400491919223E-009
   3.9599999999999996E-002     1.8029641779548911E-008
   4.0700000000000000E-002     2.0678010415053905E-008
   4.1799999999999997E-002     1.0886896717465788E-008
   4.2900000000000001E-002    -1.6107467359915972E-008
   4.3999999999999997E-002    -5.8153059256937922E-008
   4.5100000000000001E-002    -1.0136426453755121E-007
   4.6199999999999998E-002    -1.1915452802213622E-007
   4.7300000000000002E-002    -7.8348705301323207E-008
   4.8399999999999999E-002     4.7659465707283744E-008
   4.9500000000000002E-002     2.6319480639358517E-007
   5.0600000000000006E-002     5.3939362487653852E-007
   5.1699999999999996E-002     8.1457130818307633E-007
   5.2800000000000000E-002     1.0076696526084561E-006
   5.3900000000000003E-002     1.0407284207758494E-006
   5.5000000000000007E-002     8.6291470324795227E-007
   5.6099999999999997E-002     4.6936742137404508E-007
   5.7200000000000001E-002    -8.9169418515666621E-008
   5.8300000000000005E-002    -7.0888825121073751E-007
   5.9399999999999994E-002    -1.2513714864326175E-006
   6.0499999999999998E-002    -1.5795440049259923E-006
   6.1600000000000002E-002    -1.6036764236559975E-006
   6.2700000000000006E-002    -1.3184335330151953E-006
   6.3799999999999996E-002    -8.0946801972459070E-007
   6.4899999999999999E-002    -2.2186898718246084E-007
   6.6000000000000003E-002     2.9453374850163527E-007
   6.7100000000000007E-002     6.3423686924579670E-007
   6.8199999999999997E-002     7.5752018346975092E-007
   6.9300000000000000E-002     6.8329222813190427E-007
   7.0400000000000004E-002     4.6905023509680177E-007
   7.1500000000000008E-002     1.9325351274801505E-007
   7.2599999999999998E-002    -5.8076174980215001E-008
   7.3700000000000002E-002    -2.0929633137711789E-007
   7.4800000000000005E-002    -2.2184774195466161E-007
   7.5899999999999995E-002    -1.1760565143958956E-007
   7.6999999999999999E-002     2.4093225192700629E-008
   7.8100000000000003E-002     1.0770273206617276E-007
   7.9200000000000007E-002     8.2308439175449166E-008
   8.0299999999999996E-002    -2.1682962980662523E-008
   8.1400000000000000E-002    -1.1439860259088164E-007
   8.2500000000000004E-002    -1.1614623218747511E-007
   8.3600000000000008E-002    -1.9781323246093052E-008
   8.4699999999999998E-002     1.0793626614713503E-007
   8.5800000000000001E-002     1.8695584458328085E-007
   8.6900000000000005E-002     1.9014132135453110E-007
   8.8000000000000009E-002     1.5363015393177193E-007
   8.9099999999999999E-002     1.2485077149904100E-007
   9.0200000000000002E-002     1.0374422743097966E-007
   9.1300000000000006E-002     4.0136210799346372E-008
   9.2399999999999996E-002    -1.0550559181865538E-007
   9.3500000000000000E-002    -2.9627415187860606E-007
   9.4600000000000004E-002    -4.1847496845548449E-007
   9.5700000000000007E-002    -3.6156706073597888E-007
   9.6799999999999997E-002    -1.1717821024603836E-007
   9.7900000000000001E-002     1.9194453670934308E-007
   9.9000000000000005E-002     3.9078574332052085E-007
  0.10010000000000001          3.8280256831058068E-007
  0.10120000000000000          2.2224485007882322E-007
  0.10230000000000000          5.9948938258003182E-008
  0.10340000000000001          6.2257132782406188E-009
  0.10450000000000001          3.5444472246126679E-008
  0.10560000000000000          2.3704533447244103E-008
  0.10670000000000000         -1.1399857413607606E-007
  0.10780000000000001         -3.1959763191480306E-007
  0.10890000000000001         -4.2633718067008886E-007
  0.11000000000000000         -3.0663912298223295E-007
  0.11110000000000000          9.6249874736997754E-010
  0.11220000000000001          3.0447966992142028E-007
  0.11330000000000000          4.0539282508689212E-007
  0.11440000000000002          2.5672562742329319E-007
  0.11550000000000001         -7.8497075506334113E-010
  0.11660000000000000         -1.5567815125905327E-007
  0.11770000000000001         -1.0016665186185492E-007
  0.11880000000000000          8.3243961057632987E-008
  0.11989999999999999          1.9808814499810978E-007
  0.12100000000000001          1.1094505936171117E-007
  0.12210000000000000         -1.2470113119888993E-007
  0.12320000000000002         -3.1112546139411279E-007
  0.12430000000000001         -2.8193684897814819E-007
  0.12540000000000001         -5.3486402862290561E-008
  0.12650000000000003          1.8607485685606662E-007
  0.12760000000000002          2.4050692104538030E-007
  0.12870000000000001          7.4918958148373349E-008
  0.12980000000000003         -1.5623619731286453E-007
  0.13090000000000002         -2.4109797891469498E-007
  0.13200000000000001         -8.7062211662214395E-008
  0.13310000000000002          2.0085759899757250E-007
  0.13420000000000001          3.9852639588389138E-007
  0.13530000000000003          3.3680717592687870E-007
  0.13640000000000002          3.9447549227134004E-008
  0.13750000000000001         -2.8486201131272537E-007
  0.13860000000000003         -4.0043244098342257E-007
  0.13970000000000002         -2.3447991281955183E-007
  0.14080000000000001          5.9469805080425431E-008
  0.14190000000000003          2.2839468272195518E-007
  0.14300000000000002          1.3576220680988627E-007
  0.14410000000000003         -1.2056584353103972E-007
  0.14520000000000002         -2.9368379728111904E-007
  0.14630000000000001         -2.0189106919588085E-007
  0.14740000000000003          1.1302265789936428E-007
  0.14850000000000002          4.1440489439992234E-007
  0.14960000000000001          4.5879249910285580E-007
  0.15070000000000003          1.9191820399555581E-007
  0.15180000000000002         -2.0005774103992735E-007
  0.15290000000000001         -4.2775744191203557E-007
  0.15400000000000003         -3.2619203693684540E-007
  0.15510000000000002          5.0748685254120574E-009
  0.15620000000000003          2.7544314207261777E-007
  0.15730000000000002          2.4735945203246956E-007
  0.15840000000000001         -5.1898716435516690E-008
  0.15950000000000003         -3.4635010592865001E-007
  0.16060000000000002         -3.5390425523473823E-007
  0.16170000000000001         -4.0513569388167525E-008
  0.16280000000000003          3.4604448728714488E-007
  0.16390000000000002          4.9107052291219588E-007
  0.16500000000000001          2.7974547833764518E-007
  0.16610000000000003         -1.1471588834410795E-007
  0.16720000000000002         -3.8217859810174559E-007
  0.16830000000000003         -3.2661986892890127E-007
  0.16940000000000002         -1.4515483037769172E-008
  0.17050000000000001          2.8631541226786794E-007
  0.17160000000000003          3.2352687640013755E-007
  0.17270000000000002          6.4456393999989814E-008
  0.17380000000000001         -2.7553014092518424E-007
  0.17490000000000003         -4.1132449268843629E-007
  0.17600000000000002         -2.2938235133551643E-007
  0.17710000000000004          1.1778134023643361E-007
  0.17820000000000003          3.4959674621859449E-007
  0.17930000000000001          3.0012179763616587E-007
  0.18040000000000003          4.4386574415966606E-008
  0.18150000000000002         -1.9088537328570965E-007
  0.18260000000000001         -2.2729514626007585E-007
  0.18370000000000003         -6.2687917079529143E-008
  0.18480000000000002          1.5622994453678984E-007
  0.18590000000000001          2.5829697847257194E-007
  0.18700000000000003          1.6413176240348548E-007
  0.18810000000000002         -6.8407814524107380E-008
  0.18920000000000003         -2.8205624857946532E-007
  0.19030000000000002         -3.2322986953658983E-007
  0.19140000000000001         -1.5468428671283618E-007
  0.19250000000000003          1.0724348697976893E-007
  0.19360000000000002          2.7619535103440285E-007
  0.19470000000000001          2.4090056172099139E-007
  0.19580000000000003          4.7747260367714262E-008
  0.19690000000000002         -1.4661240754776372E-007
  0.19800000000000001         -2.0009915147056745E-007
  0.19910000000000003         -8.1168664678443747E-008
  0.20020000000000002          1.2071099320110079E-007
  0.20130000000000003          2.5573191919647797E-007
  0.20240000000000002          2.0783423337888962E-007
  0.20350000000000001         -1.7818614139741840E-008
  0.20460000000000003         -2.7237538802182826E-007
  0.20570000000000002         -3.5497814110385661E-007
  0.20680000000000001         -1.7840389432421944E-007
  0.20790000000000003          1.3333698234418989E-007
  0.20900000000000002          3.3080013395192509E-007
  0.21010000000000004          2.5261275027332886E-007
  0.21120000000000003         -2.9702414749976924E-008
  0.21230000000000002         -2.7456360385258449E-007
  0.21340000000000003         -2.7867133667314192E-007
  0.21450000000000002         -4.0048966809536068E-008
  0.21560000000000001          2.5199597075697966E-007
  0.21670000000000003          3.6882002518723311E-007
  0.21780000000000002          2.1101912750509655E-007
  0.21890000000000001         -1.1721179760115774E-007
  0.22000000000000003         -3.7389446561064688E-007
  0.22110000000000002         -3.5419358823673974E-007
  0.22220000000000004         -6.0967202841766266E-008
  0.22330000000000003          2.7491631726661581E-007
  0.22440000000000002          3.7373436612142541E-007
  0.22550000000000003          1.4990489205501945E-007
  0.22660000000000002         -2.0486469054503686E-007
  0.22770000000000001         -3.8704257576682721E-007
  0.22880000000000003         -2.4486931238243415E-007
  0.22990000000000002          1.0126295535428653E-007
  0.23100000000000004          3.7435478361658170E-007
  0.23210000000000003          3.6835353967035189E-007
  0.23320000000000002          9.5340922712239262E-008
  0.23430000000000004         -2.3840901519633917E-007
  0.23540000000000003         -3.8574719951611769E-007
  0.23650000000000002         -2.3561615591916052E-007
  0.23760000000000003          9.7435354007302521E-008
  0.23870000000000002          3.4591113262649742E-007
  0.23980000000000001          2.9782518140564207E-007
  0.24090000000000000         -1.5339562509097959E-008
  0.24200000000000005         -3.2982316611196438E-007
  0.24310000000000004         -3.7472631220225594E-007
  0.24420000000000003         -1.1209640149445477E-007
  0.24530000000000002          2.3478959576550551E-007
  0.24640000000000001          3.8547980807379645E-007
  0.24750000000000005          2.3821257855161093E-007
  0.24860000000000004         -6.8972454414506501E-008
  0.24970000000000003         -2.9293772740857094E-007
  0.25080000000000002         -2.7550910886020574E-007
  0.25190000000000001         -4.5634152456841548E-008
  0.25300000000000000          2.1383725368195883E-007
  0.25410000000000005          2.9946323820695397E-007
  0.25520000000000004          1.3911207474848197E-007
  0.25630000000000003         -1.4298593953299132E-007
  0.25740000000000002         -3.1710388270766998E-007
  0.25850000000000001         -2.4050177671597339E-007
  0.25960000000000005          1.6561093829636775E-008
  0.26070000000000004          2.3718054364962882E-007
  0.26180000000000003          2.5492013833172678E-007
  0.26290000000000002          8.7850537511258153E-008
  0.26400000000000001         -1.0749182877134444E-007
  0.26510000000000000         -1.8780265520490502E-007
  0.26620000000000005         -1.2307557994972740E-007
  0.26730000000000004          1.8012412894563568E-008
  0.26840000000000003          1.3737582094108802E-007
  0.26950000000000002          1.6138427838541247E-007
  0.27060000000000001          7.1812571889040555E-008
  0.27170000000000005         -7.7094703954116994E-008
  0.27280000000000004         -1.8017449576746003E-007
  0.27390000000000003         -1.5620102544744441E-007
  0.27500000000000002         -2.1142032124998877E-008
  0.27610000000000001          1.2010553973595961E-007
  0.27720000000000000          1.6405650171691377E-007
  0.27830000000000005          9.0619970194438793E-008
  0.27940000000000004         -3.7210519110431051E-008
  0.28050000000000003         -1.3345656668661832E-007
  0.28160000000000002         -1.4049636831714452E-007
  0.28270000000000001         -4.8766441551606476E-008
  0.28380000000000005          9.4505345771267457E-008
  0.28490000000000004          1.9260606620719045E-007
  0.28600000000000003          1.5577070655581338E-007
  0.28710000000000002         -1.1757695261849221E-008
  0.28820000000000001         -1.8602746365559142E-007
  0.28930000000000000         -2.1805173844313686E-007
  0.29040000000000005         -7.3983080994821648E-008
  0.29150000000000004          1.2501602952852409E-007
  0.29260000000000003          2.1169726949210599E-007
  0.29370000000000002          1.2107517477488727E-007
  0.29480000000000001         -6.3976827391343249E-008
  0.29590000000000005         -1.9486211044750235E-007
  0.29700000000000004         -1.7497220028417360E-007
  0.29810000000000003         -2.0110858756083871E-008
  0.29920000000000002          1.5958995902565221E-007
  0.30030000000000001          2.3169457108451752E-007
  0.30140000000000006          1.3306130597356969E-007
  0.30250000000000005         -7.1282485691881448E-008
  0.30360000000000004         -2.2246739206366328E-007
  0.30470000000000003         -1.9447654153736949E-007
  0.30580000000000002         -1.0494058955146102E-008
  0.30690000000000001          1.7078069447507005E-007
  0.30800000000000005          1.9745712620533595E-007
  0.30910000000000004          5.8144895120904039E-008
  0.31020000000000003         -1.2049001441027940E-007
  0.31130000000000002         -1.9529034034349024E-007
  0.31240000000000001         -1.2060282017500867E-007
  0.31350000000000006          3.6430773064921596E-008
  0.31460000000000005          1.6152810644598503E-007
  0.31570000000000004          1.7108557415212999E-007
