  -1.3200000000000002E-002     0.0000000000000000
  -1.2100000000000001E-002     0.0000000000000000
  -1.1000000000000001E-002     0.0000000000000000
  -9.9000000000000025E-003     0.0000000000000000
  -8.8000000000000023E-003    -9.1621703314059279E-022
  -7.7000000000000011E-003    -7.4498899036530382E-021
  -6.6000000000000017E-003    -4.9771270049208144E-020
  -5.5000000000000014E-003    -2.9017953422636529E-019
  -4.4000000000000011E-003    -1.3219590061443509E-018
  -3.3000000000000008E-003    -4.4495467899880950E-018
  -2.2000000000000006E-003    -1.0130181522555186E-017
  -1.1000000000000003E-003    -1.1112395634235352E-017
  -1.7347234759768071E-018     1.1567703140344753E-017
   1.0999999999999985E-003     3.6176505861990250E-017
   2.1999999999999988E-003    -1.7997599891559724E-016
   3.2999999999999991E-003    -1.2115559054457934E-015
   4.3999999999999994E-003    -3.1650281811498654E-015
   5.4999999999999997E-003    -3.3099440834802882E-015
   6.6000000000000000E-003     5.2961980165507593E-015
   7.7000000000000002E-003     2.7188927514574732E-014
   8.8000000000000005E-003     4.7453431836113127E-014
   9.9000000000000008E-003     2.2106301232377619E-014
   1.1000000000000001E-002    -9.1416932075476243E-014
   1.2100000000000001E-002    -2.6128123102597822E-013
   1.3199999999999998E-002    -3.3180581763062045E-013
   1.4299999999999998E-002    -8.5618219057472661E-014
   1.5399999999999999E-002     5.7717155707570633E-013
   1.6500000000000001E-002     1.4414210927279902E-012
   1.7599999999999998E-002     1.8745901098765616E-012
   1.8700000000000001E-002     9.3843476826199757E-013
   1.9799999999999998E-002    -2.0610355869893349E-012
   2.0900000000000002E-002    -6.4665954882525689E-012
   2.1999999999999999E-002    -9.2925259501108748E-012
   2.3099999999999996E-002    -6.0430020362711723E-012
   2.4199999999999999E-002     5.6751717041059191E-012
   2.5299999999999996E-002     2.1836837893474126E-011
   2.6400000000000000E-002     3.1743510597870284E-011
   2.7499999999999997E-002     2.4451196276031872E-011
   2.8600000000000000E-002    -2.1606666109064143E-012
   2.9699999999999997E-002    -3.7852318501840898E-011
   3.0800000000000001E-002    -6.5695761330974989E-011
   3.1899999999999998E-002    -7.1598504902681270E-011
   3.3000000000000002E-002    -4.9637939592006575E-011
   3.4099999999999998E-002    -2.0351498264403745E-012
   3.5200000000000002E-002     6.1160319864139723E-011
   3.6299999999999999E-002     1.2142058192221583E-010
   3.7400000000000003E-002     1.5603504599503992E-010
   3.8500000000000000E-002     1.4947618143246189E-010
   3.9599999999999996E-002     1.0114038773156864E-010
   4.0700000000000000E-002     1.7337326019273291E-011
   4.1799999999999997E-002    -1.0550418177990295E-010
   4.2900000000000001E-002    -2.8251700978643157E-010
   4.3999999999999997E-002    -5.1658938238219321E-010
   4.5100000000000001E-002    -7.7270934095707844E-010
   4.6199999999999998E-002    -9.8465402498248977E-010
   4.7300000000000002E-002    -1.0949806616977753E-009
   4.8399999999999999E-002    -1.0896842317364985E-009
   4.9500000000000002E-002    -9.9362262862001671E-010
   5.0600000000000006E-002    -8.3732071276543252E-010
   5.1699999999999996E-002    -6.3415828144286479E-010
   5.2800000000000000E-002    -3.8694686343987428E-010
   5.3900000000000003E-002    -1.0689013563158767E-010
   5.5000000000000007E-002     1.7749493541607819E-010
   5.6099999999999997E-002     4.2351624984782177E-010
   5.7200000000000001E-002     5.8385113410608369E-010
   5.8300000000000005E-002     6.2658739308218969E-010
   5.9399999999999994E-002     5.6325111241761761E-010
   6.0499999999999998E-002     4.5541476145771753E-010
   6.1600000000000002E-002     3.7259839658076999E-010
   6.2700000000000006E-002     3.2942865102469909E-010
   6.3799999999999996E-002     2.7400398616705957E-010
   6.4899999999999999E-002     1.5469112102373117E-010
   6.6000000000000003E-002    -5.3027664724536461E-012
   6.7100000000000007E-002    -1.1923738385544169E-010
   6.8199999999999997E-002    -1.2810567884269375E-010
   6.9300000000000000E-002    -6.3090532798071308E-011
   7.0400000000000004E-002    -3.1937094028405832E-012
   7.1500000000000008E-002     1.6092821519819722E-011
   7.2599999999999998E-002     2.9015338742777175E-011
   7.3700000000000002E-002     7.7050539559753162E-011
   7.4800000000000005E-002     1.4686683813547319E-010
   7.5899999999999995E-002     1.8458726214198862E-010
   7.6999999999999999E-002     1.5581015644361429E-010
   7.8100000000000003E-002     7.4615452705373286E-011
   7.9200000000000007E-002    -1.4916009399845720E-011
   8.0299999999999996E-002    -6.4391103560268448E-011
   8.1400000000000000E-002    -3.8997763351922288E-011
   8.2500000000000004E-002     5.2472103051481866E-011
   8.3600000000000008E-002     1.3418019473299125E-010
   8.4699999999999998E-002     1.0883547535422977E-010
   8.5800000000000001E-002    -3.3012169387003354E-011
   8.6900000000000005E-002    -1.6487576581791785E-010
   8.8000000000000009E-002    -1.3787122832287224E-010
   8.9099999999999999E-002     4.1023368729797838E-011
   9.0200000000000002E-002     1.8610842034139097E-010
   9.1300000000000006E-002     1.2863286824593700E-010
   9.2399999999999996E-002    -8.1313053512666045E-011
   9.3500000000000000E-002    -2.1340501588085203E-010
   9.4600000000000004E-002    -1.0486132795417547E-010
   9.5700000000000007E-002     1.6318878193199993E-010
   9.6799999999999997E-002     3.5055358615920795E-010
   9.7900000000000001E-002     2.9160379666492986E-010
   9.9000000000000005E-002     3.0088233987646262E-011
  0.10010000000000001         -2.3942908766727555E-010
  0.10120000000000000         -3.2278926753726012E-010
  0.10230000000000000         -1.5141238263183254E-010
  0.10340000000000001          1.6068656127909975E-010
  0.10450000000000001          3.6140529457995285E-010
  0.10560000000000000          2.4081217575577796E-010
  0.10670000000000000         -1.4803396009011038E-010
  0.10780000000000001         -4.6668258146809194E-010
  0.10890000000000001         -3.8307770844347999E-010
  0.11000000000000000          6.9944279534883691E-011
  0.11110000000000000          4.7872278363669807E-010
  0.11220000000000001          4.5095027711994362E-010
  0.11330000000000000          2.1943292669024395E-011
  0.11440000000000002         -3.8364869614504471E-010
  0.11550000000000001         -3.8719735750980533E-010
  0.11660000000000000         -1.0281926351995985E-011
  0.11770000000000001          3.9296460530025001E-010
  0.11880000000000000          4.8364362514874415E-010
  0.11989999999999999          1.9605941870004528E-010
  0.12100000000000001         -2.6109478468150371E-010
  0.12210000000000000         -5.6414473093013839E-010
  0.12320000000000002         -4.7308656991873477E-010
  0.12430000000000001         -1.2451931846735320E-011
  0.12540000000000001          4.8010118103292143E-010
  0.12650000000000003          5.7868349001566344E-010
  0.12760000000000002          1.6806160629823097E-010
  0.12870000000000001         -3.8123859624761280E-010
  0.12980000000000003         -5.3461102211826983E-010
  0.13090000000000002         -1.3707003587715150E-010
  0.13200000000000001          4.1522613125621888E-010
  0.13310000000000002          5.8647398049060939E-010
  0.13420000000000001          2.3971918894361011E-010
  0.13530000000000003         -2.7832677829131569E-010
  0.13640000000000002         -5.3086679496772149E-010
  0.13750000000000001         -3.7689465437473757E-010
  0.13860000000000003          6.6708210136323665E-012
  0.13970000000000002          3.4269001525366605E-010
  0.14080000000000001          4.2365172481240165E-010
  0.14190000000000003          1.8260438994222028E-010
  0.14300000000000002         -2.4209639848393749E-010
  0.14410000000000003         -5.1801024580910848E-010
  0.14520000000000002         -3.5557332078717252E-010
  0.14630000000000001          1.6660395285583718E-010
  0.14740000000000003          5.8976301620106142E-010
  0.14850000000000002          5.0649651139877960E-010
  0.14960000000000001         -1.4682575901620032E-012
  0.15070000000000003         -4.4227993489798223E-010
  0.15180000000000002         -4.3555881124035523E-010
  0.15290000000000001         -7.1029453152515742E-011
  0.15400000000000003          2.6875535130699291E-010
  0.15510000000000002          3.2921018688902848E-010
  0.15620000000000003          1.4475232124055992E-010
  0.15730000000000002         -1.2164662333002951E-010
  0.15840000000000001         -3.3044453284780673E-010
  0.15950000000000003         -3.5520675290001691E-010
  0.16060000000000002         -1.0555102625264823E-010
  0.16170000000000001          3.1152835866521400E-010
  0.16280000000000003          5.5159848910690812E-010
  0.16390000000000002          3.3570132784710438E-010
  0.16500000000000001         -1.8658928568893174E-010
  0.16610000000000003         -5.1812093504466361E-010
  0.16720000000000002         -3.3780017671958262E-010
  0.16830000000000003          1.4027469463773201E-010
  0.16940000000000002          4.1890216295747962E-010
  0.17050000000000001          2.6642596462345125E-010
  0.17160000000000003         -9.7881279470524163E-011
  0.17270000000000002         -3.2844210684501718E-010
  0.17380000000000001         -3.0532756878365319E-010
  0.17490000000000003         -1.2177062136409234E-010
  0.17600000000000002          1.1525957965830003E-010
  0.17710000000000004          3.2092187240984060E-010
  0.17820000000000003          3.5144201437908862E-010
  0.17930000000000001          9.7893269879190115E-011
  0.18040000000000003         -2.8837598975428591E-010
  0.18150000000000002         -4.3292336382450003E-010
  0.18260000000000001         -1.4112060131576953E-010
  0.18370000000000003          3.1193539418161720E-010
  0.18480000000000002          4.4830508749704734E-010
  0.18590000000000001          1.3733320036735108E-010
  0.18700000000000003         -2.6267205077701306E-010
  0.18810000000000002         -3.4949940164175075E-010
  0.18920000000000003         -1.2382075920136515E-010
  0.19030000000000002          1.0717668419424342E-010
  0.19140000000000001          1.5587918456017036E-010
  0.19250000000000003          1.0635926167568144E-010
  0.19360000000000002          6.9960377768740756E-011
  0.19470000000000001          1.5598482791881474E-012
  0.19580000000000003         -1.4165307815616757E-010
  0.19690000000000002         -2.1546196771193848E-010
  0.19800000000000001         -5.1346593643586402E-011
  0.19910000000000003          2.4042642876587195E-010
  0.20020000000000002          3.2839908570281295E-010
  0.20130000000000003          7.7405130916030629E-011
  0.20240000000000002         -2.4483923222184956E-010
  0.20350000000000001         -2.9283156455228720E-010
  0.20460000000000003         -7.1524661193755890E-011
  0.20570000000000002          1.1462707172338327E-010
  0.20680000000000001          9.2046710531423770E-011
  0.20790000000000003          4.2103529863946054E-012
  0.20900000000000002          2.4548089255782557E-011
  0.21010000000000004          7.4438066821613802E-011
  0.21120000000000003         -1.5868154012999014E-011
  0.21230000000000002         -1.7536597174405699E-010
  0.21340000000000003         -1.4464256181678792E-010
  0.21450000000000002          1.2381487501933464E-010
  0.21560000000000001          3.2457175835887142E-010
  0.21670000000000003          1.8127278844648487E-010
  0.21780000000000002         -1.6337289854284620E-010
  0.21890000000000001         -3.1496222296922838E-010
  0.22000000000000003         -1.3373270546512828E-010
  0.22110000000000002          1.1863157678426717E-010
  0.22220000000000004          1.6554131676560502E-010
  0.22330000000000003          5.6926661301526238E-011
  0.22440000000000002          4.4488965462996521E-012
  0.22550000000000003          2.5068799466843039E-011
  0.22660000000000002         -3.8746353347995921E-011
  0.22770000000000001         -1.8329757156543280E-010
  0.22880000000000003         -1.7295620491353247E-010
  0.22990000000000002          9.6193532306276808E-011
  0.23100000000000004          3.4832792206174190E-010
  0.23210000000000003          2.3948296123954549E-010
  0.23320000000000002         -1.5675287456939913E-010
  0.23430000000000004         -3.9280803609820225E-010
  0.23540000000000003         -2.0597061556326679E-010
  0.23650000000000002          1.5885441573271208E-010
  0.23760000000000003          2.9099214704508825E-010
  0.23870000000000002          1.2508524771526197E-010
  0.23980000000000001         -6.6741744075837772E-011
  0.24090000000000000         -1.0720063725599971E-010
  0.24200000000000005         -9.8454702723849152E-011
  0.24310000000000004         -1.4067175202470139E-010
  0.24420000000000003         -1.0742974565491892E-010
  0.24530000000000002          1.2165360385729684E-010
  0.24640000000000001          3.4981550989243715E-010
  0.24750000000000005          2.4393401187872144E-010
  0.24860000000000004         -1.7069465285679541E-010
  0.24970000000000003         -4.3941930649715744E-010
  0.25080000000000002         -2.2611998384824972E-010
  0.25190000000000001          2.3409191252099504E-010
  0.25300000000000000          4.1671557871048037E-010
  0.25410000000000005          1.5940709863215830E-010
  0.25520000000000004         -1.8657246581010867E-010
  0.25630000000000003         -2.5932042624354779E-010
  0.25740000000000002         -1.0704542113826321E-010
  0.25850000000000001          9.0903846949874634E-012
  0.25960000000000005          3.4567147755293348E-011
  0.26070000000000004          1.0981474063420649E-010
  0.26180000000000003          2.1839861863437449E-010
  0.26290000000000002          1.3675562071657765E-010
  0.26400000000000001         -1.7885805336792515E-010
  0.26510000000000000         -3.9253339467748560E-010
  0.26620000000000005         -1.8581759742009041E-010
  0.26730000000000004          2.6040186673625954E-010
  0.26840000000000003          4.3116457626446447E-010
  0.26950000000000002          1.2978143559827515E-010
  0.27060000000000001         -2.6907329142566994E-010
  0.27170000000000005         -3.1818417345341743E-010
  0.27280000000000004         -5.2613999962369817E-011
  0.27390000000000003          1.4358185473906104E-010
  0.27500000000000002          9.9823066479487466E-011
  0.27610000000000001          1.8972276874529292E-011
  0.27720000000000000          6.8722666446419112E-011
  0.27830000000000005          9.7502041163100017E-011
  0.27940000000000004         -7.4942586858472993E-011
  0.28050000000000003         -2.7958810266959233E-010
  0.28160000000000002         -1.8451912220385225E-010
  0.28270000000000001          1.8447958438638778E-010
  0.28380000000000005          3.9249284378151117E-010
  0.28490000000000004          1.6141148140302874E-010
  0.28600000000000003         -2.3362994872044851E-010
  0.28710000000000002         -3.2183092302240368E-010
  0.28820000000000001         -5.4673317956277501E-011
  0.28930000000000000          1.8005323620950975E-010
  0.29040000000000005          1.2847353736411549E-010
  0.29150000000000004         -2.1908102068590729E-011
  0.29260000000000003         -5.1795069969107210E-012
  0.29370000000000002          9.5783540821070545E-011
  0.29480000000000001          2.0933657585153753E-011
  0.29590000000000005         -1.9118109872984235E-010
  0.29700000000000004         -2.0502105568809270E-010
  0.29810000000000003          9.2036933629913165E-011
  0.29920000000000002          3.4584096697543032E-010
  0.30030000000000001          1.9058217504142050E-010
  0.30140000000000006         -2.2540232180734421E-010
  0.30250000000000005         -4.1674744211128711E-010
  0.30360000000000004         -2.0515358856165733E-010
  0.30470000000000003          8.2144471780232209E-011
  0.30580000000000002          1.1263345117695778E-010
  0.30690000000000001         -9.2024946690694165E-012
  0.30800000000000005          1.9402994835826526E-011
  0.30910000000000004          1.9955349872535777E-010
  0.31020000000000003          2.5451624141581419E-010
  0.31130000000000002          1.1797178511852024E-010
  0.31240000000000001          8.7898646694561933E-011
  0.31350000000000006          3.5972258505267973E-010
  0.31460000000000005          6.3958222051851976E-010
  0.31570000000000004          4.7408788006464420E-010
