  -1.3200000000000002E-002     0.0000000000000000
  -1.2100000000000001E-002     0.0000000000000000
  -1.1000000000000001E-002     0.0000000000000000
  -9.9000000000000025E-003     0.0000000000000000
  -8.8000000000000023E-003     0.0000000000000000
  -7.7000000000000011E-003     0.0000000000000000
  -6.6000000000000017E-003     0.0000000000000000
  -5.5000000000000014E-003     0.0000000000000000
  -4.4000000000000011E-003     0.0000000000000000
  -3.3000000000000008E-003     0.0000000000000000
  -2.2000000000000006E-003     0.0000000000000000
  -1.1000000000000003E-003     0.0000000000000000
  -1.7347234759768071E-018     0.0000000000000000
   1.0999999999999985E-003     0.0000000000000000
   2.1999999999999988E-003     0.0000000000000000
   3.2999999999999991E-003     0.0000000000000000
   4.3999999999999994E-003     0.0000000000000000
   5.4999999999999997E-003     0.0000000000000000
   6.6000000000000000E-003     0.0000000000000000
   7.7000000000000002E-003    -3.8355716586383804E-038
   8.8000000000000005E-003    -1.1763398382637225E-037
   9.9000000000000008E-003     9.7618677341035161E-038
   1.1000000000000001E-002     1.5039017620904345E-036
   1.2100000000000001E-002     3.2505206151037607E-036
   1.3199999999999998E-002    -5.1940800618461871E-036
   1.4299999999999998E-002    -4.0119071180587725E-035
   1.5399999999999999E-002    -5.1214865415136618E-035
   1.6500000000000001E-002     1.7377918439493883E-034
   1.7599999999999998E-002     6.7135379785364624E-034
   1.8700000000000001E-002     2.3529829094436458E-034
   1.9799999999999998E-002    -3.0908848863284477E-033
   2.0900000000000002E-002    -5.9897568112119056E-033
   2.1999999999999999E-002     4.1584681210612799E-033
   2.3099999999999996E-002     2.6801309402314557E-032
   2.4199999999999999E-002     1.4562651438096249E-032
   2.5299999999999996E-002    -5.8575377209101932E-032
   2.6400000000000000E-002    -3.1280224997591670E-032
   2.7499999999999997E-002     2.2906832553598199E-031
   2.8600000000000000E-002    -1.4460953544334859E-033
   2.9699999999999997E-002    -1.7932638400325286E-030
   3.0800000000000001E-002    -2.3978914904796727E-030
   3.1899999999999998E-002     6.2041425746004319E-030
   3.3000000000000002E-002     2.1332722520078737E-029
   3.4099999999999998E-002     7.2244949929220978E-030
   3.5200000000000002E-002    -7.0645264994249094E-029
   3.6299999999999999E-002    -1.3247993012366129E-028
   3.7400000000000003E-002     2.7481639053523865E-029
   3.8500000000000000E-002     4.2093823014132267E-028
   3.9599999999999996E-002     5.1774370249673740E-028
   4.0700000000000000E-002    -2.7097181908759747E-028
   4.1799999999999997E-002    -1.3836057906032786E-027
   4.2900000000000001E-002    -1.2811944658104873E-027
   4.3999999999999997E-002     3.1447742699186957E-029
   4.5100000000000001E-002     5.5011463670550084E-028
   4.6199999999999998E-002     1.9083182780107868E-027
   4.7300000000000002E-002     1.1034288978648100E-026
   4.8399999999999999E-002     2.1870456773545107E-026
   4.9500000000000002E-002    -2.7104247664243218E-027
   5.0600000000000006E-002    -8.7380107178237671E-026
   5.1699999999999996E-002    -1.4484982590387368E-025
   5.2800000000000000E-002     9.5038433557369385E-027
   5.3900000000000003E-002     3.8563879503704403E-025
   5.5000000000000007E-002     5.6246527029737444E-025
   5.6099999999999997E-002     1.7221895133560034E-026
   5.7200000000000001E-002    -1.0341669658531875E-024
   5.8300000000000005E-002    -1.4780378951918362E-024
   5.9399999999999994E-002    -5.8308924980347257E-025
   6.0499999999999998E-002     9.1919610955117477E-025
   6.1600000000000002E-002     2.1952535655321574E-024
   6.2700000000000006E-002     4.1303699923759182E-024
   6.3799999999999996E-002     6.4057836587921087E-024
   6.4899999999999999E-002     2.0028048340314761E-024
   6.6000000000000003E-002    -1.7244295862017771E-023
   6.7100000000000007E-002    -3.9679823439474487E-023
   6.8199999999999997E-002    -2.6329816744448953E-023
   6.9300000000000000E-002     4.7156372575564220E-023
   7.0400000000000004E-002     1.2768816894091937E-022
   7.1500000000000008E-002     1.0103623188987609E-022
   7.2599999999999998E-002    -7.4182927048722475E-023
   7.3700000000000002E-002    -2.5988036761919070E-022
   7.4800000000000005E-002    -2.4959162717474030E-022
   7.5899999999999995E-002    -1.6980350891739873E-023
   7.6999999999999999E-002     2.4647985489356929E-022
   7.8100000000000003E-002     4.0641573625038633E-022
   7.9200000000000007E-002     5.1475524240079855E-022
   8.0299999999999996E-002     4.4145110640049228E-022
   8.1400000000000000E-002    -3.4541098936975777E-022
   8.2500000000000004E-002    -1.8912149827155599E-021
   8.3600000000000008E-002    -2.5464730923637949E-021
   8.4699999999999998E-002    -1.2961619705809927E-023
   8.5800000000000001E-002     4.8938505159726816E-021
   8.6900000000000005E-002     6.4955314836103330E-021
   8.8000000000000009E-002    -3.0416376242048155E-022
   8.9099999999999999E-002    -1.1198869541373695E-020
   9.0200000000000002E-002    -1.2833483444942180E-020
   9.1300000000000006E-002     2.5000318285097007E-021
   9.2399999999999996E-002     2.3029866629451291E-020
   9.3500000000000000E-002     2.5580691305760226E-020
   9.4600000000000004E-002     1.3883879230468783E-021
   9.5700000000000007E-002    -3.2120990304953940E-020
   9.6799999999999997E-002    -5.0837053494391506E-020
   9.7900000000000001E-002    -4.6044230084765749E-020
   9.9000000000000005E-002    -1.4173578237382740E-020
  0.10010000000000001          6.1513984186147745E-020
  0.10120000000000000          1.7618280133010619E-019
  0.10230000000000000          2.3475918281774256E-019
  0.10340000000000001          7.9855027596543349E-020
  0.10450000000000001         -3.1652691694679847E-019
  0.10560000000000000         -6.8216318496935221E-019
  0.10670000000000000         -5.8925368988072501E-019
  0.10780000000000001          1.0152963472492180E-019
  0.10890000000000001          9.6510222634828185E-019
  0.11000000000000000          1.3188696933516185E-018
  0.11110000000000000          8.5747041562107101E-019
  0.11220000000000001         -1.1595912842666167E-019
  0.11330000000000000         -1.1157087582346133E-018
  0.11440000000000002         -1.9005154929459636E-018
  0.11550000000000001         -2.2439718434210970E-018
  0.11660000000000000         -1.5174058616638397E-018
  0.11770000000000001          8.2247385147002438E-019
  0.11880000000000000          3.9639305590541388E-018
  0.11989999999999999          5.4930752509834482E-018
  0.12100000000000001          3.3724114282707842E-018
  0.12210000000000000         -1.5858955892026178E-018
  0.12320000000000002         -5.9041687125809707E-018
  0.12430000000000001         -6.6506669553661886E-018
  0.12540000000000001         -4.0344696265605171E-018
  0.12650000000000003         -2.1981453654014116E-019
  0.12760000000000002          3.6961531696166350E-018
  0.12870000000000001          7.7591634224423755E-018
  0.12980000000000003          9.8815318576023582E-018
  0.13090000000000002          5.0806934555818744E-018
  0.13200000000000001         -8.7036597525513489E-018
  0.13310000000000002         -2.3812764631974479E-017
  0.13420000000000001         -2.5155834631519678E-017
  0.13530000000000003         -3.0788382046356611E-018
  0.13640000000000002          3.4991212292483415E-017
  0.13750000000000001          6.6473623688190393E-017
  0.13860000000000003          6.7497719608645344E-017
  0.13970000000000002          2.6217170223151767E-017
  0.14080000000000001         -5.1828258594041030E-017
  0.14190000000000003         -1.4216599663227197E-016
  0.14300000000000002         -2.0224419069644737E-016
  0.14410000000000003         -1.8097003178386956E-016
  0.14520000000000002         -4.6047374534316187E-017
  0.14630000000000001          1.8241475235453018E-016
  0.14740000000000003          4.1909263230187777E-016
  0.14850000000000002          5.4112244555131828E-016
  0.14960000000000001          4.4377869286555511E-016
  0.15070000000000003          9.9896412203767112E-017
  0.15180000000000002         -4.0975959977255626E-016
  0.15290000000000001         -9.0224890750344004E-016
  0.15400000000000003         -1.1434611268710073E-015
  0.15510000000000002         -9.4712958348841959E-016
  0.15620000000000003         -2.8708069458772295E-016
  0.15730000000000002          6.3989236349224128E-016
  0.15840000000000001          1.4651746163917945E-015
  0.15950000000000003          1.7925114517702845E-015
  0.16060000000000002          1.3922383033696212E-015
  0.16170000000000001          3.5355224039821461E-016
  0.16280000000000003         -8.8793172135423742E-016
  0.16390000000000002         -1.6881302052515978E-015
  0.16500000000000001         -1.4933663080961409E-015
  0.16610000000000003         -2.0521787191135100E-016
  0.16720000000000002          1.5880963553346937E-015
  0.16830000000000003          2.7674461623017474E-015
  0.16940000000000002          2.1703133454758832E-015
  0.17050000000000001         -8.0114610200710109E-016
  0.17160000000000003         -5.6129921504721302E-015
  0.17270000000000002         -1.0409481809240794E-014
  0.17380000000000001         -1.2403654865093382E-014
  0.17490000000000003         -9.0049715866522342E-015
  0.17600000000000002          7.7620410514445495E-016
  0.17710000000000004          1.5223951859897299E-014
  0.17820000000000003          2.9839720511138854E-014
  0.17930000000000001          3.8523590377816455E-014
  0.18040000000000003          3.5466285941074260E-014
  0.18150000000000002          1.8045845511806789E-014
  0.18260000000000001         -1.1053715587164628E-014
  0.18370000000000003         -4.4073621298769752E-014
  0.18480000000000002         -7.0105583122558046E-014
  0.18590000000000001         -7.8446126818790957E-014
  0.18700000000000003         -6.3823939351875109E-014
  0.18810000000000002         -2.9504759638081246E-014
  0.18920000000000003          1.1432534979198116E-014
  0.19030000000000002          4.1303779515534933E-014
  0.19140000000000001          4.5813857265167290E-014
  0.19250000000000003          1.9818583826456369E-014
  0.19360000000000002         -2.5979540648748620E-014
  0.19470000000000001         -6.8111416842969036E-014
  0.19580000000000003         -8.0335382985664838E-014
  0.19690000000000002         -3.9065532221865124E-014
  0.19800000000000001          5.8007364103079828E-014
  0.19910000000000003          1.8606532872604553E-013
  0.20020000000000002          2.9345783073529697E-013
  0.20130000000000003          3.2991816743821456E-013
  0.20240000000000002          2.5297618817463063E-013
  0.20350000000000001          5.2820744197816516E-014
  0.20460000000000003         -2.1988425078119100E-013
  0.20570000000000002         -4.7073862819921319E-013
  0.20680000000000001         -5.9017190006532827E-013
  0.20790000000000003         -5.0668719437166332E-013
  0.20900000000000002         -2.1718626788506945E-013
  0.21010000000000004          2.0849530327042565E-013
  0.21120000000000003          6.3149268800244407E-013
  0.21230000000000002          8.7512305345024965E-013
  0.21340000000000003          8.0084029685512093E-013
  0.21450000000000002          3.7401223611233103E-013
  0.21560000000000001         -2.9910958692508371E-013
  0.21670000000000003         -9.9172915973139153E-013
  0.21780000000000002         -1.4216072980258176E-012
  0.21890000000000001         -1.3501089352399576E-012
  0.22000000000000003         -6.9912814686795555E-013
  0.22110000000000002          3.7849936943348816E-013
  0.22220000000000004          1.5122882330090293E-012
  0.22330000000000003          2.2452090100294475E-012
  0.22440000000000002          2.2073230829949830E-012
  0.22550000000000003          1.2827597057479823E-012
  0.22660000000000002         -3.1784893727432317E-013
  0.22770000000000001         -2.0943108358650875E-012
  0.22880000000000003         -3.3939253317460949E-012
  0.22990000000000002         -3.6121500755770253E-012
  0.23100000000000004         -2.4337745360702989E-012
  0.23210000000000003         -3.8553927709855315E-014
  0.23320000000000002          2.8550516985303975E-012
  0.23430000000000004          5.1702340325698870E-012
  0.23540000000000003          5.8661018750849614E-012
  0.23650000000000002          4.3829562375308218E-012
  0.23760000000000003          9.4681619315639676E-013
  0.23870000000000002         -3.4211383725946121E-012
  0.23980000000000001         -7.2126458451615694E-012
  0.24090000000000000         -8.9393327809550449E-012
  0.24200000000000005         -7.6612900051786781E-012
  0.24310000000000004         -3.3730895680761375E-012
  0.24420000000000003          2.8576347017861270E-012
  0.24530000000000002          9.0792677195916660E-012
  0.24640000000000001          1.2985678504717768E-011
  0.24750000000000005          1.2710213957711769E-011
  0.24860000000000004          7.6632675899412916E-012
  0.24970000000000003         -9.7212298974524991E-013
  0.25080000000000002         -1.0422007007404588E-011
  0.25190000000000001         -1.7243359518026580E-011
  0.25300000000000000         -1.8628659378960855E-011
  0.25410000000000005         -1.3526578294953406E-011
  0.25520000000000004         -3.1013603143947854E-012
  0.25630000000000003          9.5835223437590322E-012
  0.25740000000000002          2.0447272347512424E-011
  0.25850000000000001          2.5558083427412726E-011
  0.25960000000000005          2.2375793926054932E-011
  0.26070000000000004          1.0839991231026413E-011
  0.26180000000000003         -6.0913873771439864E-012
  0.26290000000000002         -2.2951807121529555E-011
  0.26400000000000001         -3.3503044089000511E-011
  0.26510000000000000         -3.3178151198631767E-011
  0.26620000000000005         -2.1126572713470182E-011
  0.26730000000000004         -7.9497308258860699E-013
  0.26840000000000003          2.1283705700647637E-011
  0.26950000000000002          3.7840140743039541E-011
  0.27060000000000001          4.3258237270027422E-011
  0.27170000000000005          3.5175702628453820E-011
  0.27280000000000004          1.5111070381101932E-011
  0.27390000000000003         -1.1709909084056669E-011
  0.27500000000000002         -3.7305231820328189E-011
  0.27610000000000001         -5.2921955012719124E-011
  0.27720000000000000         -5.2020793922524788E-011
  0.27830000000000005         -3.3318632575163321E-011
  0.27940000000000004         -2.1629024526265139E-012
  0.28050000000000003          3.1056452548527957E-011
  0.28160000000000002          5.5019957340141090E-011
  0.28270000000000001          6.1958861652389174E-011
  0.28380000000000005          5.0111879923431246E-011
  0.28490000000000004          2.3345686495090945E-011
  0.28600000000000003         -1.0892799683082099E-011
  0.28710000000000002         -4.3589767212415254E-011
  0.28820000000000001         -6.5600719301173172E-011
  0.28930000000000000         -6.9359525067813621E-011
  0.29040000000000005         -5.1570470116502065E-011
  0.29150000000000004         -1.5901580399657611E-011
  0.29260000000000003          2.6700041483307402E-011
  0.29370000000000002          6.1626710678996943E-011
  0.29480000000000001          7.6900395773460417E-011
  0.29590000000000005          6.8413927301058663E-011
  0.29700000000000004          4.0797830391792189E-011
  0.29810000000000003          3.7752509451927097E-012
  0.29920000000000002         -3.2744557065811364E-011
  0.30030000000000001         -6.1196013534381422E-011
  0.30140000000000006         -7.5833943291581107E-011
  0.30250000000000005         -7.1868837270283592E-011
  0.30360000000000004         -4.7158658922352714E-011
  0.30470000000000003         -5.9082491503381629E-012
  0.30580000000000002          3.9706689325402778E-011
  0.30690000000000001          7.3505763975578731E-011
  0.30800000000000005          8.3497223024586731E-011
  0.30910000000000004          6.8343303238904696E-011
  0.31020000000000003          3.6806013098411583E-011
  0.31130000000000002          8.0027559015358185E-013
  0.31240000000000001         -3.1681390150195554E-011
  0.31350000000000006         -5.7787309659662611E-011
  0.31460000000000005         -7.5340247929212012E-011
  0.31570000000000004         -7.8773189360337170E-011
