  -1.3200000000000002E-002     0.0000000000000000
  -1.2100000000000001E-002     0.0000000000000000
  -1.1000000000000001E-002     0.0000000000000000
  -9.9000000000000025E-003     0.0000000000000000
  -8.8000000000000023E-003     0.0000000000000000
  -7.7000000000000011E-003     0.0000000000000000
  -6.6000000000000017E-003     0.0000000000000000
  -5.5000000000000014E-003     0.0000000000000000
  -4.4000000000000011E-003     8.7086903350725853E-030
  -3.3000000000000008E-003     6.2298188318777595E-029
  -2.2000000000000006E-003     3.3761448406373734E-028
  -1.1000000000000003E-003     1.8162682637258044E-027
  -1.7347234759768071E-018     7.0275057444031633E-027
   1.0999999999999985E-003     1.4144467082863225E-026
   2.1999999999999988E-003    -1.0955463747512241E-026
   3.2999999999999991E-003    -1.6566426601477611E-025
   4.3999999999999994E-003    -4.2749506441477885E-025
   5.4999999999999997E-003     1.3370768330759594E-025
   6.6000000000000000E-003     3.6259675964121719E-024
   7.7000000000000002E-003     7.5688474397224018E-024
   8.8000000000000005E-003    -8.0180421940951608E-024
   9.9000000000000008E-003    -6.4204688567454315E-023
   1.1000000000000001E-002    -7.7880286557057149E-023
   1.2100000000000001E-002     2.0124380641958458E-022
   1.3199999999999998E-002     7.3450705094318884E-022
   1.4299999999999998E-002     3.0900913542696626E-022
   1.5399999999999999E-002    -2.5336873357861686E-021
   1.6500000000000001E-002    -4.8820704623859035E-021
   1.7599999999999998E-002     1.8563384954626527E-021
   1.8700000000000001E-002     1.7090260698097331E-020
   1.9799999999999998E-002     1.3954026408235267E-020
   2.0900000000000002E-002    -2.7354271552237621E-020
   2.1999999999999999E-002    -4.5303509233270120E-020
   2.3099999999999996E-002     4.6853458293086962E-020
   2.4199999999999999E-002     1.0171262258605501E-019
   2.5299999999999996E-002    -2.3346265475574812E-019
   2.6400000000000000E-002    -6.5990944155226153E-019
   2.7499999999999997E-002     3.0557807001571103E-019
   2.8600000000000000E-002     3.0504729406602990E-018
   2.9699999999999997E-002     3.2091652664319128E-018
   3.0800000000000001E-002    -5.1338819961496466E-018
   3.1899999999999998E-002    -1.6314997727724373E-017
   3.3000000000000002E-002    -8.7436638613356384E-018
   3.4099999999999998E-002     2.7161625194230112E-017
   3.5200000000000002E-002     5.3043287652207921E-017
   3.6299999999999999E-002     1.1253661539247158E-017
   3.7400000000000003E-002    -7.7341638736614304E-017
   3.8500000000000000E-002    -9.3484796309525685E-017
   3.9599999999999996E-002     1.0121485372775416E-017
   4.0700000000000000E-002     6.6530606506227946E-017
   4.1799999999999997E-002    -6.1029299567378676E-017
   4.2900000000000001E-002    -7.0983948400866434E-017
   4.3999999999999997E-002     4.7701491575705417E-016
   4.5100000000000001E-002     1.0662033576310610E-015
   4.6199999999999998E-002     1.1005249606002378E-016
   4.7300000000000002E-002    -2.6933134152415774E-015
   4.8399999999999999E-002    -4.0707717348354398E-015
   4.9500000000000002E-002     5.3097692975456759E-017
   5.0600000000000006E-002     7.5818130866969237E-015
   5.1699999999999996E-002     9.1370036943384456E-015
   5.2800000000000000E-002    -6.7716742476470605E-016
   5.3900000000000003E-002    -1.2140301310363706E-014
   5.5000000000000007E-002    -9.9201906861605058E-015
   5.6099999999999997E-002     2.7104351274791390E-015
   5.7200000000000001E-002     2.8300749313887831E-015
   5.8300000000000005E-002    -1.4198901386250351E-014
   5.9399999999999994E-002    -1.0245975651300507E-014
   6.0499999999999998E-002     4.4993272074658058E-014
   6.1600000000000002E-002     9.5309936158638475E-014
   6.2700000000000006E-002     3.0375804275324311E-014
   6.3799999999999996E-002    -1.4754208054953977E-013
   6.4899999999999999E-002    -2.3904023292026233E-013
   6.6000000000000003E-002    -5.3581976095645745E-014
   6.7100000000000007E-002     2.7755548510574601E-013
   6.8199999999999997E-002     3.5362744633601895E-013
   6.9300000000000000E-002     1.1223868412642019E-014
   7.0400000000000004E-002    -3.4935509346523119E-013
   7.1500000000000008E-002    -2.2423543870244561E-013
   7.2599999999999998E-002     2.1555841963824540E-013
   7.3700000000000002E-002     2.2148365227351446E-013
   7.4800000000000005E-002    -3.9172232623417569E-013
   7.5899999999999995E-002    -6.4271867992668485E-013
   7.6999999999999999E-002     3.6067446230157729E-013
   7.8100000000000003E-002     1.6662610961143409E-012
   7.9200000000000007E-002     1.0901498887633254E-012
   8.0299999999999996E-002    -1.6968996737268260E-012
   8.1400000000000000E-002    -3.6419721405334116E-012
   8.2500000000000004E-002    -1.5203780075190299E-012
   8.3600000000000008E-002     3.3175489265457880E-012
   8.4699999999999998E-002     5.4372322616513813E-012
   8.5800000000000001E-002     1.9091473194010611E-012
   8.6900000000000005E-002    -3.2098505711036784E-012
   8.8000000000000009E-002    -3.6592885839514810E-012
   8.9099999999999999E-002     1.6770130206386624E-013
   9.0200000000000002E-002     9.1978247934720869E-013
   9.1300000000000006E-002    -5.0622956347667891E-012
   9.2399999999999996E-002    -1.0109084576381822E-011
   9.3500000000000000E-002    -3.3409219401397960E-012
   9.4600000000000004E-002     1.3626657094367722E-011
   9.5700000000000007E-002     2.4724763902916891E-011
   9.6799999999999997E-002     1.6825483714622003E-011
   9.7900000000000001E-002    -4.3065828680965978E-012
   9.9000000000000005E-002    -2.0646222578801776E-011
  0.10010000000000001         -2.2944831798432652E-011
  0.10120000000000000         -1.8341342333805244E-011
  0.10230000000000000         -1.5355954355311674E-011
  0.10340000000000001         -9.1210069011471440E-012
  0.10450000000000001          1.0610182871184648E-011
  0.10560000000000000          3.9547178032339758E-011
  0.10670000000000000          5.6105176060583517E-011
  0.10780000000000001          4.1703907688317443E-011
  0.10890000000000001         -7.0298058823733967E-013
  0.11000000000000000         -4.9921893008342266E-011
  0.11110000000000000         -8.1232756632410030E-011
  0.11220000000000001         -7.4673218997123314E-011
  0.11330000000000000         -2.1114316892112406E-011
  0.11440000000000002          6.3739451217070808E-011
  0.11550000000000001          1.3281351018967769E-010
  0.11660000000000000          1.3464931947204661E-010
  0.11770000000000001          5.7742397668869572E-011
  0.11880000000000000         -5.9675667185565828E-011
  0.11989999999999999         -1.7285844977621423E-010
  0.12100000000000001         -2.6707694389394021E-010
  0.12210000000000000         -3.2681826689362481E-010
  0.12320000000000002         -2.8333821400217118E-010
  0.12430000000000001         -4.7665888597281381E-011
  0.12540000000000001          3.6354474985955676E-010
  0.12650000000000003          7.5514255959419074E-010
  0.12760000000000002          8.6211876526576248E-010
  0.12870000000000001          5.6265186954007618E-010
  0.12980000000000003         -1.8472412835479624E-011
  0.13090000000000002         -6.2171806591848622E-010
  0.13200000000000001         -1.0329787025753490E-009
  0.13310000000000002         -1.1395571153371975E-009
  0.13420000000000001         -8.7806939497170333E-010
  0.13530000000000003         -2.1436753760983862E-010
  0.13640000000000002          7.5604833504883118E-010
  0.13750000000000001          1.7004005981036130E-009
  0.13860000000000003          2.1262869243088289E-009
  0.13970000000000002          1.6516678025269016E-009
  0.14080000000000001          2.6172672362712035E-010
  0.14190000000000003         -1.6160207616522371E-009
  0.14300000000000002         -3.2277571726524457E-009
  0.14410000000000003         -3.7767255989251680E-009
  0.14520000000000002         -2.7948954262058123E-009
  0.14630000000000001         -4.3800718607656108E-010
  0.14740000000000003          2.5039184059494346E-009
  0.14850000000000002          4.9383328537544458E-009
  0.14960000000000001          5.9150835340915364E-009
  0.15070000000000003          4.9024202475322909E-009
  0.15180000000000002          1.8899877218814254E-009
  0.15290000000000001         -2.5007378390284885E-009
  0.15400000000000003         -6.9191323781581104E-009
  0.15510000000000002         -9.5353502871375895E-009
  0.15620000000000003         -8.8161682398890662E-009
  0.15730000000000002         -4.4326116110937619E-009
  0.15840000000000001          2.3842690044517667E-009
  0.15950000000000003          9.3007850310300455E-009
  0.16060000000000002          1.3767600393066459E-008
  0.16170000000000001          1.3840403489950859E-008
  0.16280000000000003          8.8030276401696028E-009
  0.16390000000000002         -3.5284924981837662E-010
  0.16500000000000001         -1.0827077900898985E-008
  0.16610000000000003         -1.8746302288263905E-008
  0.16720000000000002         -2.0715445359087425E-008
  0.16830000000000003         -1.5395146490959633E-008
  0.16940000000000002         -4.1319210275503337E-009
  0.17050000000000001          9.6443679709068419E-009
  0.17160000000000003          2.1684350315354095E-008
  0.17270000000000002          2.8092419057657025E-008
  0.17380000000000001          2.6151402821028569E-008
  0.17490000000000003          1.5050463986199247E-008
  0.17600000000000002         -3.2763067814300939E-009
  0.17710000000000004         -2.3635191581661275E-008
  0.17820000000000003         -3.8424150972105053E-008
  0.17930000000000001         -4.0532210476840191E-008
  0.18040000000000003         -2.7334065677564467E-008
  0.18150000000000002         -3.0763538383382638E-009
  0.18260000000000001          2.2776758257236907E-008
  0.18370000000000003          4.0677154089507894E-008
  0.18480000000000002          4.5760554456819591E-008
  0.18590000000000001          3.8510474809072548E-008
  0.18700000000000003          2.1644529724085260E-008
  0.18810000000000002         -2.5240924905745032E-009
  0.18920000000000003         -3.0815051843546826E-008
  0.19030000000000002         -5.5740091653433410E-008
  0.19140000000000001         -6.5475511235035810E-008
  0.19250000000000003         -5.0367116699590042E-008
  0.19360000000000002         -1.1972507429902635E-008
  0.19470000000000001          3.3919736353027474E-008
  0.19580000000000003          6.5328137566211808E-008
  0.19690000000000002          6.8569079303415492E-008
  0.19800000000000001          4.7425530169675767E-008
  0.19910000000000003          1.8314230132432385E-008
  0.20020000000000002         -4.8844963629335325E-009
  0.20130000000000003         -2.1924476456547382E-008
  0.20240000000000002         -4.1439584208546876E-008
  0.20350000000000001         -6.4596100912694965E-008
  0.20460000000000003         -7.5655840703348076E-008
  0.20570000000000002         -5.3508443897953839E-008
  0.20680000000000001          3.8926688539220322E-009
  0.20790000000000003          6.7866288588902535E-008
  0.20900000000000002          9.7233872509150387E-008
  0.21010000000000004          7.3583223070272652E-008
  0.21120000000000003          1.9697475650559682E-008
  0.21230000000000002         -1.9940632256520985E-008
  0.21340000000000003         -2.0653834198469667E-008
  0.21450000000000002         -8.9381668733068409E-010
  0.21560000000000001         -2.3027320050772460E-009
  0.21670000000000003         -4.3620417500278563E-008
  0.21780000000000002         -9.4110113479928259E-008
  0.21890000000000001         -9.7158029177535354E-008
  0.22000000000000003         -2.6793987473183734E-008
  0.22110000000000002          7.6845573460104788E-008
  0.22220000000000004          1.3405754373252421E-007
  0.22330000000000003          9.7493753514754644E-008
  0.22440000000000002          2.4096986628308059E-009
  0.22550000000000003         -6.0591915485019854E-008
  0.22660000000000002         -3.3286728040593516E-008
  0.22770000000000001          4.6395769004448084E-008
  0.22880000000000003          7.6091993150839699E-008
  0.22990000000000002         -5.1366382258777321E-009
  0.23100000000000004         -1.4146689863991924E-007
  0.23210000000000003         -2.0088656071948208E-007
  0.23320000000000002         -1.0307904574347049E-007
  0.23430000000000004          8.9889262255837821E-008
  0.23540000000000003          2.1812971340295917E-007
  0.23650000000000002          1.7094775728310196E-007
  0.23760000000000003         -3.2088265378149572E-009
  0.23870000000000002         -1.3597295378531271E-007
  0.23980000000000001         -9.8711744556112535E-008
  0.24090000000000000          6.7015648141932616E-008
  0.24200000000000005          1.7991544609685661E-007
  0.24310000000000004          9.3903885556301248E-008
  0.24420000000000003         -1.4411767779165530E-007
  0.24530000000000002         -3.1575123671245819E-007
  0.24640000000000001         -2.3222406753120595E-007
  0.24750000000000005          6.7746668719337322E-008
  0.24860000000000004          3.2716533837628958E-007
  0.24970000000000003          3.0355926128322608E-007
  0.25080000000000002          1.2078026578876688E-008
  0.25190000000000001         -2.6976491085406451E-007
  0.25300000000000000         -2.6282259568688460E-007
  0.25410000000000005          3.2847701447735744E-008
  0.25520000000000004          3.2246171599581430E-007
  0.25630000000000003          2.9855249294996611E-007
  0.25740000000000002         -4.8473125957571028E-008
  0.25850000000000001         -4.0180063365369278E-007
  0.25960000000000005         -4.1293466779279697E-007
  0.26070000000000004         -4.3070514266219107E-008
  0.26180000000000003          3.8028247217880562E-007
  0.26290000000000002          4.5892778643974452E-007
  0.26400000000000001          1.0408546557982845E-007
  0.26510000000000000         -3.5970390399597818E-007
  0.26620000000000005         -4.8355718718084972E-007
  0.26730000000000004         -1.2345566346994019E-007
  0.26840000000000003          3.9761485481903946E-007
  0.26950000000000002          5.7471515901852399E-007
  0.27060000000000001          2.0729316929646302E-007
  0.27170000000000005         -3.8165282489899255E-007
  0.27280000000000004         -6.3317258991446579E-007
  0.27390000000000003         -2.9263003398227738E-007
  0.27500000000000002          3.2512753023183905E-007
  0.27610000000000001          6.2517500509784441E-007
  0.27720000000000000          3.0873627565597417E-007
  0.27830000000000005         -3.2774079272712697E-007
  0.27940000000000004         -6.6983938040721114E-007
  0.28050000000000003         -3.7347174952628848E-007
  0.28160000000000002          3.0209889700927306E-007
  0.28270000000000001          7.3252061838502414E-007
  0.28380000000000005          5.1052802518825047E-007
  0.28490000000000004         -1.7152655118479743E-007
  0.28600000000000003         -6.9222801357682329E-007
  0.28710000000000002         -5.7155358490490471E-007
  0.28820000000000001          7.8555764559951058E-008
  0.28930000000000000          6.4531582211202476E-007
  0.29040000000000005          5.8222406096319901E-007
  0.29150000000000004         -6.5832210793814738E-008
  0.29260000000000003         -6.8656777330033947E-007
  0.29370000000000002         -6.7571102135843830E-007
  0.29480000000000001         -2.3162058937487018E-008
  0.29590000000000005          6.6651222141445032E-007
  0.29700000000000004          7.5156322054681368E-007
  0.29810000000000003          1.6609014608093275E-007
  0.29920000000000002         -5.2946603545933613E-007
  0.30030000000000001         -6.9523338197541307E-007
  0.30140000000000006         -2.1019168627844920E-007
  0.30250000000000005          4.4350014150040806E-007
  0.30360000000000004          6.5398796778026735E-007
  0.30470000000000003          2.3988010866560217E-007
  0.30580000000000002         -4.0862991568246798E-007
  0.30690000000000001         -7.0060758616818930E-007
  0.30800000000000005         -3.7426397625495156E-007
  0.30910000000000004          2.7766685661845258E-007
  0.31020000000000003          6.7467425424183602E-007
  0.31130000000000002          4.7151056037364469E-007
  0.31240000000000001         -1.2855727504756942E-007
  0.31350000000000006         -5.6405951909255236E-007
  0.31460000000000005         -4.4344881189317675E-007
  0.31570000000000004          8.9414605497495359E-008
