  -1.3200000000000002E-002     0.0000000000000000
  -1.2100000000000001E-002     0.0000000000000000
  -1.1000000000000001E-002     0.0000000000000000
  -9.9000000000000025E-003     0.0000000000000000
  -8.8000000000000023E-003     0.0000000000000000
  -7.7000000000000011E-003     0.0000000000000000
  -6.6000000000000017E-003     0.0000000000000000
  -5.5000000000000014E-003     0.0000000000000000
  -4.4000000000000011E-003     0.0000000000000000
  -3.3000000000000008E-003    -9.5596346452938580E-030
  -2.2000000000000006E-003    -2.0812426527071450E-029
  -1.1000000000000003E-003    -1.8047550966479750E-029
  -1.7347234759768071E-018    -3.6148178756667490E-028
   1.0999999999999985E-003     1.8150723334527128E-028
   2.1999999999999988E-003     1.2383609364381397E-026
   3.2999999999999991E-003     3.4492647257949283E-026
   4.3999999999999994E-003    -1.0500469577424161E-025
   5.4999999999999997E-003    -8.6795446616118611E-025
   6.6000000000000000E-003    -1.4117008067347646E-024
   7.7000000000000002E-003     6.1501339553630619E-024
   8.8000000000000005E-003     3.3107990476590145E-023
   9.9000000000000008E-003     2.4078606513896301E-023
   1.1000000000000001E-002    -2.5856575931963247E-022
   1.2100000000000001E-002    -8.2651630331841020E-022
   1.3199999999999998E-002     2.7983625135832629E-022
   1.4299999999999998E-002     6.9473833360820425E-021
   1.5399999999999999E-002     1.2316737092373055E-020
   1.6500000000000001E-002    -2.1983534853359996E-020
   1.7599999999999998E-002    -1.1983726133103997E-019
   1.8700000000000001E-002    -9.5868494623139839E-020
   1.9799999999999998E-002     4.9152498884457558E-019
   2.0900000000000002E-002     1.3947677538539981E-018
   2.1999999999999999E-002     2.2294173485116336E-020
   2.3099999999999996E-002    -6.5965536268735821E-018
   2.4199999999999999E-002    -1.1538970194587111E-017
   2.5299999999999996E-002     8.7388918563818200E-018
   2.6400000000000000E-002     6.2607149894546027E-017
   2.7499999999999997E-002     7.1056535153979188E-017
   2.8600000000000000E-002    -1.1882552731464689E-016
   2.9699999999999997E-002    -4.5767821236242256E-016
   3.0800000000000001E-002    -3.4264655885341748E-016
   3.1899999999999998E-002     9.8066658248553273E-016
   3.3000000000000002E-002     2.7336395950691705E-015
   3.4099999999999998E-002     1.4148250721828675E-015
   3.5200000000000002E-002    -5.9704896056408593E-015
   3.6299999999999999E-002    -1.3939692363731590E-014
   3.7400000000000003E-002    -5.9371592826828763E-015
   3.8500000000000000E-002     2.8461519978924960E-014
   3.9599999999999996E-002     6.2434737555742276E-014
   4.0700000000000000E-002     2.9500954766082180E-014
   4.1799999999999997E-002    -1.0671411670992725E-013
   4.2900000000000001E-002    -2.4736918242951322E-013
   4.3999999999999997E-002    -1.6059643035987864E-013
   4.5100000000000001E-002     2.9419237770715589E-013
   4.6199999999999998E-002     8.4853998827405519E-013
   4.7300000000000002E-002     8.0319144347626437E-013
   4.8399999999999999E-002    -4.0912149427800582E-013
   4.9500000000000002E-002    -2.3599830856896320E-012
   5.0600000000000006E-002    -3.3147902825381159E-012
   5.1699999999999996E-002    -1.2012586021389882E-012
   5.2800000000000000E-002     4.3804356843202275E-012
   5.3900000000000003E-002     1.0448366997983793E-011
   5.5000000000000007E-002     1.0956215969193384E-011
   5.6099999999999997E-002     1.9850005699480894E-013
   5.7200000000000001E-002    -2.1310201867019707E-011
   5.8300000000000005E-002    -4.1713403564624940E-011
   5.9399999999999994E-002    -3.9194765488748118E-011
   6.0499999999999998E-002     5.2212774034887666E-012
   6.1600000000000002E-002     8.6121408615635886E-011
   6.2700000000000006E-002     1.5815435072674688E-010
   6.3799999999999996E-002     1.4697926209450429E-010
   6.4899999999999999E-002    -4.9311735250689992E-012
   6.6000000000000003E-002    -2.7716576256331393E-010
   6.7100000000000007E-002    -5.3774179553656154E-010
   6.8199999999999997E-002    -5.7577215217818889E-010
   6.9300000000000000E-002    -2.0563412084229071E-010
   7.0400000000000004E-002     5.9416244146959230E-010
   7.1500000000000008E-002     1.5716254964104337E-009
   7.2599999999999998E-002     2.1926946924821777E-009
   7.3700000000000002E-002     1.7930795737086669E-009
   7.4800000000000005E-002    -9.3178950666406024E-011
   7.5899999999999995E-002    -3.3075875371935126E-009
   7.6999999999999999E-002    -6.7515002477591679E-009
   7.8100000000000003E-002    -8.4636910813173927E-009
   7.9200000000000007E-002    -6.2848597437437093E-009
   8.0299999999999996E-002     9.8038610563122575E-010
   8.1400000000000000E-002     1.2354373524203766E-008
   8.2500000000000004E-002     2.4102726925434581E-008
   8.3600000000000008E-002     3.0349877278013082E-008
   8.4699999999999998E-002     2.5023055627571011E-008
   8.5800000000000001E-002     4.6331192216086947E-009
   8.6900000000000005E-002    -2.9112626975802414E-008
   8.8000000000000009E-002    -6.8022089294572652E-008
   8.9099999999999999E-002    -9.8310806606605183E-008
   9.0200000000000002E-002    -1.0387726234739603E-007
   9.1300000000000006E-002    -7.1350726216223848E-008
   9.2399999999999996E-002     4.4758916573073293E-009
   9.3500000000000000E-002     1.1674031696884413E-007
   9.4600000000000004E-002     2.4599631842647796E-007
   9.5700000000000007E-002     3.6402340697350155E-007
   9.6799999999999997E-002     4.4117402353549551E-007
   9.7900000000000001E-002     4.5473646537175227E-007
   9.9000000000000005E-002     3.9517288996648858E-007
  0.10010000000000001          2.6814069542524521E-007
  0.10120000000000000          9.2278675367651886E-008
  0.10230000000000000         -1.0559364937989812E-007
  0.10340000000000001         -2.9591865313705057E-007
  0.10450000000000001         -4.5130190073905396E-007
  0.10560000000000000         -5.5045660474206670E-007
  0.10670000000000000         -5.8093024790650816E-007
  0.10780000000000001         -5.4025372264732141E-007
  0.10890000000000001         -4.3550983264140086E-007
  0.11000000000000000         -2.8205141688886215E-007
  0.11110000000000000         -1.0228548319446418E-007
  0.11220000000000001          7.5514712705171405E-008
  0.11330000000000000          2.1994917176471063E-007
  0.11440000000000002          3.0270416573330294E-007
  0.11550000000000001          3.0801334105490241E-007
  0.11660000000000000          2.4133933607117797E-007
  0.11770000000000001          1.3101890772304614E-007
  0.11880000000000000          1.9012684759900367E-008
  0.11989999999999999         -5.6393343328409173E-008
  0.12100000000000001         -7.6782967539656966E-008
  0.12210000000000000         -4.9362100185135205E-008
  0.12320000000000002          1.4709518325606297E-010
  0.12430000000000001          4.1443044551670027E-008
  0.12540000000000001          5.1774033948959186E-008
  0.12650000000000003          2.2348279671291493E-008
  0.12760000000000002         -3.9053183797932434E-008
  0.12870000000000001         -1.0739714895180441E-007
  0.12980000000000003         -1.4499315170724003E-007
  0.13090000000000002         -1.1660172560823412E-007
  0.13200000000000001         -1.2608266430902404E-008
  0.13310000000000002          1.3427977307856054E-007
  0.13420000000000001          2.5635128508838534E-007
  0.13530000000000003          2.8565671073010890E-007
  0.13640000000000002          1.9681498031332012E-007
  0.13750000000000001          2.6905263794674283E-008
  0.13860000000000003         -1.4512990276216442E-007
  0.13970000000000002         -2.4647783902764786E-007
  0.14080000000000001         -2.5023177840921562E-007
  0.14190000000000003         -1.7838674182257819E-007
  0.14300000000000002         -7.1984111116307758E-008
  0.14410000000000003          3.9175979793526494E-008
  0.14520000000000002          1.3887468242046452E-007
  0.14630000000000001          2.0458793414945831E-007
  0.14740000000000003          1.9977252918579325E-007
  0.14850000000000002          1.0167848785158640E-007
  0.14960000000000001         -5.6456485708622495E-008
  0.15070000000000003         -1.8055899886348925E-007
  0.15180000000000002         -1.7524943984881247E-007
  0.15290000000000001         -2.9095078346585979E-008
  0.15400000000000003          1.5461060343113786E-007
  0.15510000000000002          2.2672584520933015E-007
  0.15620000000000003          1.1539646749270105E-007
  0.15730000000000002         -1.0373270242780563E-007
  0.15840000000000001         -2.6228849492326844E-007
  0.15950000000000003         -2.4027565359574510E-007
  0.16060000000000002         -6.9047992212745157E-008
  0.16170000000000001          1.0174585440836381E-007
  0.16280000000000003          1.4667041625671118E-007
  0.16390000000000002          8.1101418913931411E-008
  0.16500000000000001          3.3817439515360093E-008
  0.16610000000000003          9.6643105962357367E-008
  0.16720000000000002          2.0402289635512716E-007
  0.16830000000000003          1.8135251877993142E-007
  0.16940000000000002         -6.4079799244609603E-008
  0.17050000000000001         -3.9766462123225210E-007
  0.17160000000000003         -5.3038115765957627E-007
  0.17270000000000002         -2.7847929118252068E-007
  0.17380000000000001          2.2674916522191779E-007
  0.17490000000000003          6.0435559134930372E-007
  0.17600000000000002          5.4218367040448356E-007
  0.17710000000000004          8.8056054892149405E-008
  0.17820000000000003         -3.7231333749332407E-007
  0.17930000000000001         -4.5657583314095973E-007
  0.18040000000000003         -1.3976966783957323E-007
  0.18150000000000002          2.2105196251231973E-007
  0.18260000000000001          2.3469937104891869E-007
  0.18370000000000003         -1.2509789826253837E-007
  0.18480000000000002         -4.6554592358916125E-007
  0.18590000000000001         -3.4919179370263009E-007
  0.18700000000000003          2.4271861320812604E-007
  0.18810000000000002          8.2105015053457464E-007
  0.18920000000000003          8.0850395534071140E-007
  0.19030000000000002          1.0514904857927831E-007
  0.19140000000000001         -7.4963668339478318E-007
  0.19250000000000003         -1.0235979743811185E-006
  0.19360000000000002         -4.6716883161934675E-007
  0.19470000000000001          4.2232747432535689E-007
  0.19580000000000003          8.3581704757307307E-007
  0.19690000000000002          4.0927866962192638E-007
  0.19800000000000001         -4.1501593273096660E-007
  0.19910000000000003         -7.9448534506809665E-007
  0.20020000000000002         -3.0082026114541804E-007
  0.20130000000000003          6.3255140503315488E-007
  0.20240000000000002          1.0862235058084480E-006
  0.20350000000000001          5.3178035841483506E-007
  0.20460000000000003         -6.1481597413148847E-007
  0.20570000000000002         -1.3196494137446280E-006
  0.20680000000000001         -8.7737367948648171E-007
  0.20790000000000003          3.9105159999053285E-007
  0.20900000000000002          1.3707021935260855E-006
  0.21010000000000004          1.1497631930978969E-006
  0.21120000000000003         -1.1980509384557081E-007
  0.21230000000000002         -1.3175259709896636E-006
  0.21340000000000003         -1.3591948118119035E-006
  0.21450000000000002         -2.0088852181743277E-007
  0.21560000000000001          1.1023705610568868E-006
  0.21670000000000003          1.3630464081870741E-006
  0.21780000000000002          3.6446374451770680E-007
  0.21890000000000001         -9.3361398967317655E-007
  0.22000000000000003         -1.2894905694338377E-006
  0.22110000000000002         -3.4427287687321950E-007
  0.22220000000000004          1.0295245829183841E-006
  0.22330000000000003          1.5237601473927498E-006
  0.22440000000000002          6.0455840866779909E-007
  0.22550000000000003         -9.7327665571356192E-007
  0.22660000000000002         -1.8215354202766321E-006
  0.22770000000000001         -1.1584534149733372E-006
  0.22880000000000003          4.7908940814522794E-007
  0.22990000000000002          1.6937331110966625E-006
  0.23100000000000004          1.4554041172232246E-006
  0.23210000000000003          8.2027575842857914E-009
  0.23320000000000002         -1.3529910347642726E-006
  0.23430000000000004         -1.4371611314345500E-006
  0.23540000000000003         -2.0983610227176541E-007
  0.23650000000000002          1.1935306929444778E-006
  0.23760000000000003          1.4913383665771107E-006
  0.23870000000000002          3.9041609056766902E-007
  0.23980000000000001         -1.1694376098603243E-006
  0.24090000000000000         -1.8476001741873915E-006
  0.24200000000000005         -1.0574409543551155E-006
  0.24310000000000004          5.5039629387465538E-007
  0.24420000000000003          1.6555645743210334E-006
  0.24530000000000002          1.3768931239610538E-006
  0.24640000000000001         -5.1613358031943335E-009
  0.24750000000000005         -1.2935422546433983E-006
  0.24860000000000004         -1.3755512782154256E-006
  0.24970000000000003         -1.5882747561590804E-007
  0.25080000000000002          1.3341042404135806E-006
  0.25190000000000001          1.8123674863090855E-006
  0.25300000000000000          8.1634641446726164E-007
  0.25410000000000005         -8.6172423152675037E-007
  0.25520000000000004         -1.8217957631350146E-006
  0.25630000000000003         -1.2423844282238861E-006
  0.25740000000000002          3.9929267359184450E-007
  0.25850000000000001          1.7032925825333223E-006
  0.25960000000000005          1.5202110716927564E-006
  0.26070000000000004         -5.8472693353905925E-008
  0.26180000000000003         -1.7333674122710363E-006
  0.26290000000000002         -2.0557663447107188E-006
  0.26400000000000001         -6.6039689272656688E-007
  0.26510000000000000          1.3618450793728698E-006
  0.26620000000000005          2.3217323814606061E-006
  0.26730000000000004          1.3645859553435002E-006
  0.26840000000000003         -7.3478759077261202E-007
  0.26950000000000002         -2.1716684841521783E-006
  0.27060000000000001         -1.6707169834262459E-006
  0.27170000000000005          3.4615436561580282E-007
  0.27280000000000004          2.0767145088029793E-006
  0.27390000000000003          1.9265119135525310E-006
  0.27500000000000002         -3.6982950035735485E-008
  0.27610000000000001         -2.0996981220378075E-006
  0.27720000000000000         -2.4053504148469074E-006
  0.27830000000000005         -6.1317126665016985E-007
  0.27940000000000004          1.7720473124427372E-006
  0.28050000000000003          2.6961990897689248E-006
  0.28160000000000002          1.3452163329930045E-006
  0.28270000000000001         -1.1321973261146923E-006
  0.28380000000000005         -2.6050079213746358E-006
  0.28490000000000004         -1.8088095430357498E-006
  0.28600000000000003          5.4080368272479973E-007
  0.28710000000000002          2.3660402348468779E-006
  0.28820000000000001          2.0624268017854774E-006
  0.28930000000000000         -7.1175925597799505E-008
  0.29040000000000005         -2.1073776679259026E-006
  0.29150000000000004         -2.2344283934216946E-006
  0.29260000000000003         -3.7871089375585143E-007
  0.29370000000000002          1.7706025801089709E-006
  0.29480000000000001          2.3181123651738744E-006
  0.29590000000000005          8.4035843883611960E-007
  0.29700000000000004         -1.3143114756530849E-006
  0.29810000000000003         -2.2827764496469172E-006
  0.29920000000000002         -1.3035323718213476E-006
  0.30030000000000001          7.1027994863470667E-007
  0.30140000000000006          2.0368856894492637E-006
  0.30250000000000005          1.6219377130255452E-006
  0.30360000000000004         -8.8984357660137903E-008
  0.30470000000000003         -1.6017477264540503E-006
  0.30580000000000002         -1.6718847746233223E-006
  0.30690000000000001         -3.3576350233488483E-007
  0.30800000000000005          1.1859376627398888E-006
  0.30910000000000004          1.5921443718980299E-006
  0.31020000000000003          6.1652622207475360E-007
  0.31130000000000002         -8.2104963894380489E-007
  0.31240000000000001         -1.4943540236345143E-006
  0.31350000000000006         -9.2439319132608944E-007
  0.31460000000000005          3.1806388278710074E-007
  0.31570000000000004          1.2088503353879787E-006
