  -1.3200000000000002E-002     0.0000000000000000
  -1.2100000000000001E-002     0.0000000000000000
  -1.1000000000000001E-002     0.0000000000000000
  -9.9000000000000025E-003     0.0000000000000000
  -8.8000000000000023E-003     0.0000000000000000
  -7.7000000000000011E-003     0.0000000000000000
  -6.6000000000000017E-003     0.0000000000000000
  -5.5000000000000014E-003     0.0000000000000000
  -4.4000000000000011E-003     0.0000000000000000
  -3.3000000000000008E-003     0.0000000000000000
  -2.2000000000000006E-003     0.0000000000000000
  -1.1000000000000003E-003     0.0000000000000000
  -1.7347234759768071E-018     0.0000000000000000
   1.0999999999999985E-003     0.0000000000000000
   2.1999999999999988E-003     0.0000000000000000
   3.2999999999999991E-003     0.0000000000000000
   4.3999999999999994E-003     0.0000000000000000
   5.4999999999999997E-003     0.0000000000000000
   6.6000000000000000E-003     0.0000000000000000
   7.7000000000000002E-003     0.0000000000000000
   8.8000000000000005E-003     0.0000000000000000
   9.9000000000000008E-003     0.0000000000000000
   1.1000000000000001E-002     0.0000000000000000
   1.2100000000000001E-002    -3.7228125343304767E-038
   1.3199999999999998E-002    -1.9379975698232563E-037
   1.4299999999999998E-002     1.8304601320089355E-037
   1.5399999999999999E-002     2.8512618495004184E-036
   1.6500000000000001E-002     3.7423144050584852E-036
   1.7599999999999998E-002    -2.5965952744850597E-035
   1.8700000000000001E-002    -9.7286426470759839E-035
   1.9799999999999998E-002     8.8590930859573852E-035
   2.0900000000000002E-002     1.1831096256701966E-033
   2.1999999999999999E-002     1.3079923087916333E-033
   2.3099999999999996E-002    -8.6590822400286182E-033
   2.4199999999999999E-002    -2.6198809772800593E-032
   2.5299999999999996E-002     2.8188607264003881E-032
   2.6400000000000000E-002     2.5012481478293952E-031
   2.7499999999999997E-002     1.8615132066104797E-031
   2.8600000000000000E-002    -1.4713672193197379E-030
   2.9699999999999997E-002    -3.4998781358444757E-030
   3.0800000000000001E-002     4.1134128361262185E-030
   3.1899999999999998E-002     2.7572729521362305E-029
   3.3000000000000002E-002     1.6940201433767852E-029
   3.4099999999999998E-002    -1.2997882120138281E-028
   3.5200000000000002E-002    -2.8296034780541914E-028
   3.6299999999999999E-002     2.6133448972000805E-028
   3.7400000000000003E-002     1.8019079522814699E-027
   3.8500000000000000E-002     1.3637222009679331E-027
   3.9599999999999996E-002    -6.4487699590906209E-027
   4.0700000000000000E-002    -1.5561002423655636E-026
   4.1799999999999997E-002     5.6707320097850876E-027
   4.2900000000000001E-002     7.4441025721527974E-026
   4.3999999999999997E-002     8.4756183244149569E-026
   4.5100000000000001E-002    -1.7531938115280895E-025
   4.6199999999999998E-002    -5.8516804620014967E-025
   4.7300000000000002E-002    -1.8637324528341181E-025
   4.8399999999999999E-002     1.8879058626794516E-024
   4.9500000000000002E-002     3.4188935809439194E-024
   5.0600000000000006E-002    -1.6280325979638515E-024
   5.1699999999999996E-002    -1.4047009480998991E-023
   5.2800000000000000E-002    -1.5091013246517445E-023
   5.3900000000000003E-002     2.3586877957235835E-023
   5.5000000000000007E-002     8.2397341965676113E-023
   5.6099999999999997E-002     4.7669103764965290E-023
   5.7200000000000001E-002    -1.7944563585505756E-022
   5.8300000000000005E-002    -4.0466678744730065E-022
   5.9399999999999994E-002    -7.6689157077271355E-023
   6.0499999999999998E-002     1.0308240581156477E-021
   6.1600000000000002E-002     1.7337636976658270E-021
   6.2700000000000006E-002    -2.2299265108942994E-022
   6.3799999999999996E-002    -4.9160567611280358E-021
   6.4899999999999999E-002    -6.7218942242175140E-021
   6.6000000000000003E-002     2.4463420310310056E-021
   6.7100000000000007E-002     2.0307023928648273E-020
   6.8199999999999997E-002     2.4437850816638720E-020
   6.9300000000000000E-002    -1.1556363431187188E-020
   7.0400000000000004E-002    -7.4194695288328337E-020
   7.1500000000000008E-002    -8.5774933058386624E-020
   7.2599999999999998E-002     3.5252499002449368E-020
   7.3700000000000002E-002     2.4098539713782335E-019
   7.4800000000000005E-002     2.9383254475715846E-019
   7.5899999999999995E-002    -5.2379302665928216E-020
   7.6999999999999999E-002    -6.8573102174644655E-019
   7.8100000000000003E-002    -9.6728908509271892E-019
   7.9200000000000007E-002    -1.6650556364506003E-019
   8.0299999999999996E-002     1.6237748777884118E-018
   8.1400000000000000E-002     2.9412567688673194E-018
   8.2500000000000004E-002     1.7174225798749542E-018
   8.3600000000000008E-002    -2.6994834563466451E-018
   8.4699999999999998E-002    -7.7583329331073723E-018
   8.5800000000000001E-002    -8.2099123361959965E-018
   8.6900000000000005E-002     2.3926778244525113E-019
   8.8000000000000009E-002     1.5759148899700989E-017
   8.9099999999999999E-002     2.7640197155067567E-017
   9.0200000000000002E-002     2.0218044484972159E-017
   9.1300000000000006E-002    -1.5269185007467454E-017
   9.2399999999999996E-002    -6.6145828555047879E-017
   9.3500000000000000E-002    -9.3318916818206752E-017
   9.4600000000000004E-002    -4.8690980906309110E-017
   9.5700000000000007E-002     8.4366188847312623E-017
   9.6799999999999997E-002     2.4930154283252346E-016
   9.7900000000000001E-002     3.1257551279735053E-016
   9.9000000000000005E-002     1.2882629973909061E-016
  0.10010000000000001         -3.3481391284125896E-016
  0.10120000000000000         -8.8211853423723115E-016
  0.10230000000000000         -1.0833164936600317E-015
  0.10340000000000001         -4.6775313987442043E-016
  0.10450000000000001          1.0990745887316323E-015
  0.10560000000000000          3.0273209527170502E-015
  0.10670000000000000          3.9239334912312233E-015
  0.10780000000000001          2.1403781423287322E-015
  0.10890000000000001         -3.0193565136722549E-015
  0.11000000000000000         -9.9409963564439131E-015
  0.11110000000000000         -1.4226387605388753E-014
  0.11220000000000001         -1.0166547677770577E-014
  0.11330000000000000          5.6100376995521072E-015
  0.11440000000000002          2.9667461114721641E-014
  0.11550000000000001          4.9386672729872030E-014
  0.11660000000000000          4.5954176743209438E-014
  0.11770000000000001          4.1473363134871769E-015
  0.11880000000000000         -7.3684229562071685E-014
  0.11989999999999999         -1.5675359773224817E-013
  0.12100000000000001         -1.8792514202767285E-013
  0.12210000000000000         -1.0587774282528120E-013
  0.12320000000000002          1.1478262730481997E-013
  0.12430000000000001          4.2105522627539083E-013
  0.12540000000000001          6.6366579115975655E-013
  0.12650000000000003          6.3140795760266433E-013
  0.12760000000000002          1.4870008978491722E-013
  0.12870000000000001         -7.8627349856669193E-013
  0.12980000000000003         -1.8850199179354377E-012
  0.13090000000000002         -2.5601760295090870E-012
  0.13200000000000001         -2.0962626166159959E-012
  0.13310000000000002         -3.8409560261358239E-015
  0.13420000000000001          3.5459697244472066E-012
  0.13530000000000003          7.4139652750382368E-012
  0.13640000000000002          9.5593871360377669E-012
  0.13750000000000001          7.6490081629687623E-012
  0.13860000000000003          1.6831623443104571E-013
  0.13970000000000002         -1.2293373784222350E-011
  0.14080000000000001         -2.6164449079546515E-011
  0.14190000000000003         -3.5073072918168080E-011
  0.14300000000000002         -3.1523953586409803E-011
  0.14410000000000003         -9.9740242107126953E-012
  0.14520000000000002          2.9501248666186086E-011
  0.14630000000000001          7.8388122382033742E-011
  0.14740000000000003          1.1941618527355757E-010
  0.14850000000000002          1.2994713638470046E-010
  0.14960000000000001          8.9126414581919278E-011
  0.15070000000000003         -1.2721525222136876E-011
  0.15180000000000002         -1.6541959468874268E-010
  0.15290000000000001         -3.3460759163439491E-010
  0.15400000000000003         -4.6474812886998507E-010
  0.15510000000000002         -4.9048498595993806E-010
  0.15620000000000003         -3.5452540902980445E-010
  0.15730000000000002         -2.7429669646750199E-011
  0.15840000000000001          4.7693643479007619E-010
  0.15950000000000003          1.0961964669320423E-009
  0.16060000000000002          1.7278911634832639E-009
  0.16170000000000001          2.2508139796428850E-009
  0.16280000000000003          2.5541078141344542E-009
  0.16390000000000002          2.5658726254818021E-009
  0.16500000000000001          2.2725412662794042E-009
  0.16610000000000003          1.7228530824198174E-009
  0.16720000000000002          1.0151118834400563E-009
  0.16830000000000003          2.7182711637152579E-010
  0.16940000000000002         -3.9015210506754272E-010
  0.17050000000000001         -8.8491480809693712E-010
  0.17160000000000003         -1.1713818803826825E-009
  0.17270000000000002         -1.2533827309368917E-009
  0.17380000000000001         -1.1684697653890908E-009
  0.17490000000000003         -9.7127494935733694E-010
  0.17600000000000002         -7.1800870804494821E-010
  0.17710000000000004         -4.5675577209358664E-010
  0.17820000000000003         -2.2458163106975348E-010
  0.17930000000000001         -4.9048331368650722E-011
  0.18040000000000003          5.0023183512104552E-011
  0.18150000000000002          6.1907326487364855E-011
  0.18260000000000001         -1.0237901672260907E-011
  0.18370000000000003         -1.4433440553851540E-010
  0.18480000000000002         -2.9918972854758863E-010
  0.18590000000000001         -4.2280828838059392E-010
  0.18700000000000003         -4.6855530566602965E-010
  0.18810000000000002         -4.1345452062024890E-010
  0.18920000000000003         -2.7017479919955179E-010
  0.19030000000000002         -8.5838870733656591E-011
  0.19140000000000001          7.3878174411401432E-011
  0.19250000000000003          1.5014234300281259E-010
  0.19360000000000002          1.1579383285553746E-010
  0.19470000000000001         -1.1071968862574888E-011
  0.19580000000000003         -1.7163678811549232E-010
  0.19690000000000002         -2.8882463087853694E-010
  0.19800000000000001         -2.9997501704848162E-010
  0.19910000000000003         -1.8670724688529816E-010
  0.20020000000000002          1.1759626258878164E-011
  0.20130000000000003          2.1027550534125083E-010
  0.20240000000000002          3.1261890298672768E-010
  0.20350000000000001          2.5614846355104248E-010
  0.20460000000000003          4.5881354271415375E-011
  0.20570000000000002         -2.3994073394817406E-010
  0.20680000000000001         -4.7842174666357096E-010
  0.20790000000000003         -5.5384113961665093E-010
  0.20900000000000002         -4.1003672679451597E-010
  0.21010000000000004         -7.9985698619999823E-011
  0.21120000000000003          3.2026778451488269E-010
  0.21230000000000002          6.3078131606886245E-010
  0.21340000000000003          7.0480299374509059E-010
  0.21450000000000002          4.6316953050684617E-010
  0.21560000000000001         -7.2784854532326193E-011
  0.21670000000000003         -7.8178530316108663E-010
  0.21780000000000002         -1.4784751201091240E-009
  0.21890000000000001         -1.9743149337614341E-009
  0.22000000000000003         -2.1421266982457610E-009
  0.22110000000000002         -1.9581971599791359E-009
  0.22220000000000004         -1.5029539834898742E-009
  0.22330000000000003         -9.1982321759331853E-010
  0.22440000000000002         -3.5323696745415134E-010
  0.22550000000000003          1.0254318227875814E-010
  0.22660000000000002          4.2027009650169589E-010
  0.22770000000000001          6.2092536667890386E-010
  0.22880000000000003          7.3884648399413777E-010
  0.22990000000000002          7.9516465634199562E-010
  0.23100000000000004          7.9148793075134449E-010
  0.23210000000000003          7.1894473707700968E-010
  0.23320000000000002          5.7059207358989283E-010
  0.23430000000000004          3.5066288761598230E-010
  0.23540000000000003          8.2115016175610123E-011
  0.23650000000000002         -1.8655046951643328E-010
  0.23760000000000003         -3.8233688437472324E-010
  0.23870000000000002         -4.2747941297882619E-010
  0.23980000000000001         -2.7811400404864628E-010
  0.24090000000000000          3.7534485936019379E-011
  0.24200000000000005          4.1140621465096672E-010
  0.24310000000000004          6.9485622811171766E-010
  0.24420000000000003          7.6919909330896985E-010
  0.24530000000000002          6.0529442569290381E-010
  0.24640000000000001          2.7352450859829958E-010
  0.24750000000000005         -1.0004588824052973E-010
  0.24860000000000004         -3.9719763589296520E-010
  0.24970000000000003         -5.4738852339752953E-010
  0.25080000000000002         -5.2807574979496508E-010
  0.25190000000000001         -3.4710245788716065E-010
  0.25300000000000000         -3.8838605942448368E-011
  0.25410000000000005          3.2110888947833871E-010
  0.25520000000000004          6.1204463719377600E-010
  0.25630000000000003          7.0613614955306048E-010
  0.25740000000000002          5.4016724426730889E-010
  0.25850000000000001          1.7000888197227226E-010
  0.25960000000000005         -2.4417146082811314E-010
  0.26070000000000004         -5.2383708482039992E-010
  0.26180000000000003         -5.7139870612843424E-010
  0.26290000000000002         -4.1098160985519883E-010
  0.26400000000000001         -1.4614148780012215E-010
  0.26510000000000000          1.2124562465132271E-010
  0.26620000000000005          3.3884081651613940E-010
  0.26730000000000004          4.8585457879113392E-010
  0.26840000000000003          5.2658244431569301E-010
  0.26950000000000002          4.0401404444168065E-010
  0.27060000000000001          9.8875831133771186E-011
  0.27170000000000005         -2.9983260318999783E-010
  0.27280000000000004         -6.0012061986469689E-010
  0.27390000000000003         -6.1756033620241624E-010
  0.27500000000000002         -3.1672056644005409E-010
  0.27610000000000001          1.3947673571657049E-010
  0.27720000000000000          4.9020260073362465E-010
  0.27830000000000005          5.5604582049895157E-010
  0.27940000000000004          3.5287303634667921E-010
  0.28050000000000003          5.0680060842411834E-011
  0.28160000000000002         -1.7639384397583058E-010
  0.28270000000000001         -2.7140245606460667E-010
  0.28380000000000005         -2.8691166109595656E-010
  0.28490000000000004         -2.7637650501510791E-010
  0.28600000000000003         -2.0955233381858562E-010
  0.28710000000000002         -9.0184682638438929E-012
  0.28820000000000001          3.2337824085182376E-010
  0.28930000000000000          6.2722754767818856E-010
  0.29040000000000005          6.6220767758196075E-010
  0.29150000000000004          3.0761557190395195E-010
  0.29260000000000003         -2.9001562262820357E-010
  0.29370000000000002         -7.7747130955430066E-010
  0.29480000000000001         -8.4470813677128831E-010
  0.29590000000000005         -4.6397549691157280E-010
  0.29700000000000004          9.1416950398492958E-011
  0.29810000000000003          4.7097242772409231E-010
  0.29920000000000002          5.1857745875238948E-010
  0.30030000000000001          3.5564767797424679E-010
  0.30140000000000006          2.1670075456281523E-010
  0.30250000000000005          2.0631153729855356E-010
  0.30360000000000004          2.1098484070947165E-010
  0.30470000000000003          4.4164633755672256E-011
  0.30580000000000002         -3.2259053761585221E-010
  0.30690000000000001         -6.7434013928391323E-010
  0.30800000000000005         -7.1295508385915696E-010
  0.30910000000000004         -3.3141800415137368E-010
  0.31020000000000003          2.4994339931083687E-010
  0.31130000000000002          6.3122312932151203E-010
  0.31240000000000001          5.5847165780775754E-010
  0.31350000000000006          1.4453288565974276E-010
  0.31460000000000005         -2.2435184265923169E-010
  0.31570000000000004         -2.2878575423046499E-010
