  -1.3200000000000002E-002     0.0000000000000000
  -1.2100000000000001E-002     0.0000000000000000
  -1.1000000000000001E-002     0.0000000000000000
  -9.9000000000000025E-003    -4.9975527050335570E-018
  -8.8000000000000023E-003    -4.4917025609817574E-017
  -7.7000000000000011E-003    -3.0531088178566482E-016
  -6.6000000000000017E-003    -1.7995397076501270E-015
  -5.5000000000000014E-003    -8.4246455975657900E-015
  -4.4000000000000011E-003    -2.9452463823917766E-014
  -3.3000000000000008E-003    -7.0206088663947452E-014
  -2.2000000000000006E-003    -7.9526879873115242E-014
  -1.1000000000000003E-003     1.2429791083120451E-013
  -1.7347234759768071E-018     6.1749634268706832E-013
   1.0999999999999985E-003     1.5154862770521554E-013
   2.1999999999999988E-003    -5.3358741036735324E-012
   3.2999999999999991E-003    -1.8728298425974010E-011
   4.3999999999999994E-003    -2.4050468214187326E-011
   5.4999999999999997E-003     3.3413289496353471E-011
   6.6000000000000000E-003     2.1223532653547039E-010
   7.7000000000000002E-003     4.2653328091724063E-010
   8.8000000000000005E-003     2.7902494204035122E-010
   9.9000000000000008E-003    -7.8407697001736665E-010
   1.1000000000000001E-002    -2.7136637381630635E-009
   1.2100000000000001E-002    -3.9237253446344766E-009
   1.3199999999999998E-002    -1.5045373835675946E-009
   1.4299999999999998E-002     6.3575504860580168E-009
   1.5399999999999999E-002     1.6806906089072982E-008
   1.6500000000000001E-002     2.1065948985210525E-008
   1.7599999999999998E-002     8.7514520075160362E-009
   1.8700000000000001E-002    -2.3026725415320470E-008
   1.9799999999999998E-002    -6.1767160275394417E-008
   2.0900000000000002E-002    -8.0651936684716929E-008
   2.1999999999999999E-002    -5.2154103258317264E-008
   2.3099999999999996E-002     3.1044482540210083E-008
   2.4199999999999999E-002     1.4135805770365550E-007
   2.5299999999999996E-002     2.2224973861284525E-007
   2.6400000000000000E-002     2.1790307869196113E-007
   2.7499999999999997E-002     1.1029382562810497E-007
   2.8600000000000000E-002    -6.4348810724368377E-008
   2.9699999999999997E-002    -2.3607729815466882E-007
   3.0800000000000001E-002    -3.4448746077941905E-007
   3.1899999999999998E-002    -3.6853177221018996E-007
   3.3000000000000002E-002    -3.1891025287222874E-007
   3.4099999999999998E-002    -2.0692726820925600E-007
   3.5200000000000002E-002    -2.8413074559807683E-008
   3.6299999999999999E-002     2.1498985347534472E-007
   3.7400000000000003E-002     4.7647972678532824E-007
   3.8500000000000000E-002     6.5002416249626549E-007
   3.9599999999999996E-002     6.0766473097828566E-007
   4.0700000000000000E-002     2.7283203962724656E-007
   4.1799999999999997E-002    -3.1633274488740426E-007
   4.2900000000000001E-002    -9.9888143267889973E-007
   4.3999999999999997E-002    -1.5528850099144620E-006
   4.5100000000000001E-002    -1.7972822661249666E-006
   4.6199999999999998E-002    -1.6715830497560091E-006
   4.7300000000000002E-002    -1.2404175322444644E-006
   4.8399999999999999E-002    -6.2505353071173886E-007
   4.9500000000000002E-002     7.6145489913415076E-008
   5.0600000000000006E-002     8.1001741136788041E-007
   5.1699999999999996E-002     1.5239785398080130E-006
   5.2800000000000000E-002     2.1117032247275347E-006
   5.3900000000000003E-002     2.4151784145942656E-006
   5.5000000000000007E-002     2.2959409307077294E-006
   5.6099999999999997E-002     1.7282186490774620E-006
   5.7200000000000001E-002     8.4806526956526795E-007
   5.8300000000000005E-002    -8.2902509745963471E-008
   5.9399999999999994E-002    -7.9348507142640301E-007
   6.0499999999999998E-002    -1.1393250360924867E-006
   6.1600000000000002E-002    -1.1671813808789011E-006
   6.2700000000000006E-002    -1.0456693644300685E-006
   6.3799999999999996E-002    -9.0469183078312199E-007
   6.4899999999999999E-002    -7.2139482654165477E-007
   6.6000000000000003E-002    -3.6773619171981409E-007
   6.7100000000000007E-002     2.1242836112378427E-007
   6.8199999999999997E-002     8.6378065589087782E-007
   6.9300000000000000E-002     1.2643002946788329E-006
   7.0400000000000004E-002     1.1382228422007756E-006
   7.1500000000000008E-002     4.7145687176453066E-007
   7.2599999999999998E-002    -4.4072416471863107E-007
   7.3700000000000002E-002    -1.1555092669368605E-006
   7.4800000000000005E-002    -1.3466386690197396E-006
   7.5899999999999995E-002    -9.9326348390604835E-007
   7.6999999999999999E-002    -3.6233450373401865E-007
   7.8100000000000003E-002     2.0403220446496562E-007
   7.9200000000000007E-002     5.3068669103595312E-007
   8.0299999999999996E-002     6.8046512069486198E-007
   8.1400000000000000E-002     8.0081986197910737E-007
   8.2500000000000004E-002     9.0795822416112060E-007
   8.3600000000000008E-002     8.3521871374614420E-007
   8.4699999999999998E-002     4.0378196786150511E-007
   8.5800000000000001E-002    -3.5617270555121650E-007
   8.6900000000000005E-002    -1.1530319170560688E-006
   8.8000000000000009E-002    -1.5983846424205694E-006
   8.9099999999999999E-002    -1.4466502307186602E-006
   9.0200000000000002E-002    -7.3811133916024119E-007
   9.1300000000000006E-002     2.2183202474934660E-007
   9.2399999999999996E-002     1.0147010698347003E-006
   9.3500000000000000E-002     1.3186270280129975E-006
   9.4600000000000004E-002     1.0775789860417717E-006
   9.5700000000000007E-002     5.2327283128761337E-007
   9.6799999999999997E-002     1.2856263609251073E-008
   9.7900000000000001E-002    -2.1433004349091789E-007
   9.9000000000000005E-002    -1.7866771884200716E-007
  0.10010000000000001         -1.0011333273496348E-007
  0.10120000000000000         -2.0034268288782187E-007
  0.10230000000000000         -5.1955532853753539E-007
  0.10340000000000001         -8.6364286744355923E-007
  0.10450000000000001         -9.1557478754111798E-007
  0.10560000000000000         -4.6885918436601060E-007
  0.10670000000000000          3.5078844007330190E-007
  0.10780000000000001          1.0754223467301927E-006
  0.10890000000000001          1.1973050959568354E-006
  0.11000000000000000          6.0088859754614532E-007
  0.11110000000000000         -2.6787137130668270E-007
  0.11220000000000001         -7.2361342517979210E-007
  0.11330000000000000         -4.2408311173858237E-007
  0.11440000000000002          3.1286413104680832E-007
  0.11550000000000001          7.7046837532179779E-007
  0.11660000000000000          4.5484480892810097E-007
  0.11770000000000001         -4.6423946287177387E-007
  0.11880000000000000         -1.2650282315007644E-006
  0.11989999999999999         -1.2443114201232675E-006
  0.12100000000000001         -2.9974438575663953E-007
  0.12210000000000000          9.3082724106352543E-007
  0.12320000000000002          1.5163866464718012E-006
  0.12430000000000001          9.6843996288953349E-007
  0.12540000000000001         -3.1341207318291708E-007
  0.12650000000000003         -1.3092235349176917E-006
  0.12760000000000002         -1.2057681715305080E-006
  0.12870000000000001         -9.2140922447470075E-008
  0.12980000000000003          1.1084217703682953E-006
  0.13090000000000002          1.4258322380555910E-006
  0.13200000000000001          6.4659138843126129E-007
  0.13310000000000002         -5.5812108712416375E-007
  0.13420000000000001         -1.2324862836976536E-006
  0.13530000000000003         -9.0565623622751446E-007
  0.13640000000000002          8.2657827249477123E-008
  0.13750000000000001          8.9011160753216245E-007
  0.13860000000000003          8.3542875017883489E-007
  0.13970000000000002         -6.7175115248119255E-008
  0.14080000000000001         -1.0911450090134167E-006
  0.14190000000000003         -1.3463877621688880E-006
  0.14300000000000002         -5.0792073125194293E-007
  0.14410000000000003          8.7182024799403735E-007
  0.14520000000000002          1.7735617348080268E-006
  0.14630000000000001          1.5250303704306134E-006
  0.14740000000000003          3.2168676966648491E-007
  0.14850000000000002         -9.6902272161969449E-007
  0.14960000000000001         -1.4969019730415312E-006
  0.15070000000000003         -1.0188687156187370E-006
  0.15180000000000002          1.1934267796220865E-008
  0.15290000000000001          8.1972945054076263E-007
  0.15400000000000003          8.4036622638450353E-007
  0.15510000000000002          9.9182067003766861E-008
  0.15620000000000003         -7.9285098308901070E-007
  0.15730000000000002         -1.0709949265219620E-006
  0.15840000000000001         -4.2111938114430814E-007
  0.15950000000000003          7.2236389314639382E-007
  0.16060000000000002          1.4880347407597583E-006
  0.16170000000000001          1.2626751413336024E-006
  0.16280000000000003          1.7659908735367935E-007
  0.16390000000000002         -1.0158905752177816E-006
  0.16500000000000001         -1.5096256902324967E-006
  0.16610000000000003         -9.9831004263251089E-007
  0.16720000000000002          1.5046080648062343E-007
  0.16830000000000003          1.1396972467991873E-006
  0.16940000000000002          1.2535449513961794E-006
  0.17050000000000001          3.7081835557728482E-007
  0.17160000000000003         -8.6642666019542958E-007
  0.17270000000000002         -1.4645615920017008E-006
  0.17380000000000001         -8.6657735209882958E-007
  0.17490000000000003          5.2205842848707107E-007
  0.17600000000000002          1.5973225799825741E-006
  0.17710000000000004          1.4506634897770709E-006
  0.17820000000000003          1.3276699917241785E-007
  0.17930000000000001         -1.3639462395076407E-006
  0.18040000000000003         -1.8692812773224432E-006
  0.18150000000000002         -9.2859158939972986E-007
  0.18260000000000001          8.2674830537143862E-007
  0.18370000000000003          2.0883203433186281E-006
  0.18480000000000002          1.8148776916859788E-006
  0.18590000000000001          8.2901784992372995E-008
  0.18700000000000003         -1.8431279613650986E-006
  0.18810000000000002         -2.4278213004436111E-006
  0.18920000000000003         -1.1375885833331267E-006
  0.19030000000000002          1.0286818223903538E-006
  0.19140000000000001          2.3181223696155939E-006
  0.19250000000000003          1.6978851817839313E-006
  0.19360000000000002         -2.7336105290487467E-007
  0.19470000000000001         -1.9376277577975998E-006
  0.19580000000000003         -1.9277624687674688E-006
  0.19690000000000002         -2.6116987328350660E-007
  0.19800000000000001          1.7094351960622589E-006
  0.19910000000000003          2.3763673198118340E-006
  0.20020000000000002          1.1364012379999622E-006
  0.20130000000000003         -1.1065866374337929E-006
  0.20240000000000002         -2.5997883312811609E-006
  0.20350000000000001         -2.1212961200944846E-006
  0.20460000000000003         -1.1041670688882732E-008
  0.20570000000000002          2.0560755729093216E-006
  0.20680000000000001          2.4453793230350129E-006
  0.20790000000000003          9.2196000878175255E-007
  0.20900000000000002         -1.2014185131192789E-006
  0.21010000000000004         -2.2195420115167508E-006
  0.21120000000000003         -1.4235305343390792E-006
  0.21230000000000002          4.4208294980307983E-007
  0.21340000000000003          1.8886281623053947E-006
  0.21450000000000002          1.8483274288882967E-006
  0.21560000000000001          4.0361311448577908E-007
  0.21670000000000003         -1.3406480547928368E-006
  0.21780000000000002         -2.0779500573553378E-006
  0.21890000000000001         -1.2567156773002353E-006
  0.22000000000000003          4.9379679012417910E-007
  0.22110000000000002          1.8324009261050378E-006
  0.22220000000000004          1.7578277038410306E-006
  0.22330000000000003          3.8984038042144675E-007
  0.22440000000000002         -1.1813002629423863E-006
  0.22550000000000003         -1.8037771951640025E-006
  0.22660000000000002         -1.1149755891892710E-006
  0.22770000000000001          3.0839365194879065E-007
  0.22880000000000003          1.4556748055838398E-006
  0.22990000000000002          1.5620332760590827E-006
  0.23100000000000004          5.5996326864260482E-007
  0.23210000000000003         -8.6829970769031206E-007
  0.23320000000000002         -1.6882012232599664E-006
  0.23430000000000004         -1.2306023791097687E-006
  0.23540000000000003          2.3012684380319115E-007
  0.23650000000000002          1.5868783975747647E-006
  0.23760000000000003          1.7446137690058094E-006
  0.23870000000000002          5.2659470384242013E-007
  0.23980000000000001         -1.1602497806961765E-006
  0.24090000000000000         -2.0395709725562483E-006
  0.24200000000000005         -1.4357484587890212E-006
  0.24310000000000004          2.4846329438332759E-007
  0.24420000000000003          1.8216443322671694E-006
  0.24530000000000002          2.1175742404011544E-006
  0.24640000000000001          8.3431882558215875E-007
  0.24750000000000005         -1.1462989277788438E-006
  0.24860000000000004         -2.3028740088193445E-006
  0.24970000000000003         -1.6454789601993980E-006
  0.25080000000000002          3.8130573898342845E-007
  0.25190000000000001          2.1478315375134116E-006
  0.25300000000000000          2.1723662939621136E-006
  0.25410000000000005          4.0117623711921624E-007
  0.25520000000000004         -1.7284667137573706E-006
  0.25630000000000003         -2.4933167424023850E-006
  0.25740000000000002         -1.2828384114982327E-006
  0.25850000000000001          9.5424240953434492E-007
  0.25960000000000005          2.4792957447061781E-006
  0.26070000000000004          2.0914915239700349E-006
  0.26180000000000003          4.7232948219289028E-008
  0.26290000000000002         -2.0833060716540786E-006
  0.26400000000000001         -2.5874753646348836E-006
  0.26510000000000000         -1.0018414968726574E-006
  0.26620000000000005          1.4166978417051723E-006
  0.26730000000000004          2.6726265787146986E-006
  0.26840000000000003          1.7258255411434220E-006
  0.26950000000000002         -6.0328608242343762E-007
  0.27060000000000001         -2.3626121219422203E-006
  0.27170000000000005         -2.1537218799494440E-006
  0.27280000000000004         -2.4666803710715612E-007
  0.27390000000000003          1.7673122556516319E-006
  0.27500000000000002          2.3268282802746398E-006
  0.27610000000000001          1.0744320206867997E-006
  0.27720000000000000         -9.7138786259165499E-007
  0.27830000000000005         -2.2355070541379973E-006
  0.27940000000000004         -1.7645455727688386E-006
  0.28050000000000003          5.2125542993053386E-008
  0.28160000000000002          1.7701453316476545E-006
  0.28270000000000001          2.0404511360538891E-006
  0.28380000000000005          7.1951973268369329E-007
  0.28490000000000004         -1.0408665502836811E-006
  0.28600000000000003         -1.8223763618152589E-006
  0.28710000000000002         -1.1290983366052387E-006
  0.28820000000000001          3.2878145361792122E-007
  0.28930000000000000          1.3744833040618687E-006
  0.29040000000000005          1.3172342505640700E-006
  0.29150000000000004          3.2939007610366389E-007
  0.29260000000000003         -8.3589685573315364E-007
  0.29370000000000002         -1.3874375781597337E-006
  0.29480000000000001         -9.6015219241962768E-007
  0.29590000000000005          1.5730468305719114E-007
  0.29700000000000004          1.1700402637870866E-006
  0.29810000000000003          1.3236099221103359E-006
  0.29920000000000002          5.0534413276182022E-007
  0.30030000000000001         -6.4348404293923522E-007
  0.30140000000000006         -1.2580896964209387E-006
  0.30250000000000005         -9.3947676305106143E-007
  0.30360000000000004          1.0093740954175701E-008
  0.30470000000000003          9.0620642367866822E-007
  0.30580000000000002          1.1677565225909348E-006
  0.30690000000000001          6.2482251905748853E-007
  0.30800000000000005         -3.9843331478550681E-007
  0.30910000000000004         -1.2128555226809112E-006
  0.31020000000000003         -1.1683000593620818E-006
  0.31130000000000002         -1.9589943178743852E-007
  0.31240000000000001          9.9438170764187817E-007
  0.31350000000000006          1.4193457218425465E-006
  0.31460000000000005          6.8836720856779721E-007
  0.31570000000000004         -6.0544010693774908E-007
