  -1.3200000000000002E-002     0.0000000000000000
  -1.2100000000000001E-002     0.0000000000000000
  -1.1000000000000001E-002     0.0000000000000000
  -9.9000000000000025E-003     0.0000000000000000
  -8.8000000000000023E-003     0.0000000000000000
  -7.7000000000000011E-003     0.0000000000000000
  -6.6000000000000017E-003     0.0000000000000000
  -5.5000000000000014E-003     0.0000000000000000
  -4.4000000000000011E-003     0.0000000000000000
  -3.3000000000000008E-003     0.0000000000000000
  -2.2000000000000006E-003     0.0000000000000000
  -1.1000000000000003E-003     0.0000000000000000
  -1.7347234759768071E-018     0.0000000000000000
   1.0999999999999985E-003     0.0000000000000000
   2.1999999999999988E-003     0.0000000000000000
   3.2999999999999991E-003    -3.4825233107060987E-037
   4.3999999999999994E-003     3.8545353186522110E-037
   5.4999999999999997E-003     4.8986322666561805E-037
   6.6000000000000000E-003    -1.7819867294218675E-035
   7.7000000000000002E-003    -5.3611611152741912E-035
   8.8000000000000005E-003     6.1806517214089199E-035
   9.9000000000000008E-003     7.3706177393045240E-034
   1.1000000000000001E-002     1.4331374577610895E-033
   1.2100000000000001E-002    -3.0445382664823942E-033
   1.3199999999999998E-002    -1.9713453155680488E-032
   1.4299999999999998E-002    -2.0918544984888542E-032
   1.5399999999999999E-002     9.7226471942599583E-032
   1.6500000000000001E-002     3.2844022160562610E-031
   1.7599999999999998E-002     2.7963270874423003E-032
   1.8700000000000001E-002    -1.7101082411807832E-030
   1.9799999999999998E-002    -2.8295717603954198E-030
   2.0900000000000002E-002     3.2951593059199578E-030
   2.1999999999999999E-002     1.4905024617918019E-029
   2.3099999999999996E-002     4.7291563373129304E-030
   2.4199999999999999E-002    -3.8807581666634484E-029
   2.5299999999999996E-002    -2.0837671255670613E-029
   2.6400000000000000E-002     1.3074718298975825E-028
   2.7499999999999997E-002     1.3560803757639719E-029
   2.8600000000000000E-002    -9.1924308837512221E-028
   2.9699999999999997E-002    -1.0892917246638321E-027
   3.0800000000000001E-002     3.6351869922410745E-027
   3.1899999999999998E-002     1.0786643661935056E-026
   3.3000000000000002E-002     4.6380153439061055E-028
   3.4099999999999998E-002    -4.1808167351443802E-026
   3.5200000000000002E-002    -6.3502039460247932E-026
   3.6299999999999999E-002     4.4603123109057224E-026
   3.7400000000000003E-002     2.5155391295723601E-025
   3.8500000000000000E-002     2.2284645110343488E-025
   3.9599999999999996E-002    -3.1450496389006617E-025
   4.0700000000000000E-002    -8.6425391965479435E-025
   4.1799999999999997E-002    -4.5919800368902718E-025
   4.2900000000000001E-002     6.4320626863048968E-025
   4.3999999999999997E-002     8.3242407238241859E-025
   4.5100000000000001E-002     8.5314103886771965E-025
   4.6199999999999998E-002     4.7655414661676990E-024
   4.7300000000000002E-002     9.0737013794882553E-024
   4.8399999999999999E-002    -6.2476805505981661E-024
   4.9500000000000002E-002    -4.9659557601018947E-023
   5.0600000000000006E-002    -6.4609020802147155E-023
   5.1699999999999996E-002     4.4038343049692995E-023
   5.2800000000000000E-002     2.4113165563520947E-022
   5.3900000000000003E-002     2.5134630626344151E-022
   5.5000000000000007E-002    -1.6746263675635865E-022
   5.6099999999999997E-002    -7.2574390438056346E-022
   5.7200000000000001E-002    -6.7966705639935799E-022
   5.8300000000000005E-002     2.0503085625739926E-022
   5.9399999999999994E-002     1.0896544519059975E-021
   6.0499999999999998E-002     1.2629040586670871E-021
   6.1600000000000002E-002     1.4596276416126573E-021
   6.2700000000000006E-002     1.9139079234949993E-021
   6.3799999999999996E-002    -9.6707066740573944E-022
   6.4899999999999999E-002    -1.0750124866857244E-020
   6.6000000000000003E-002    -1.8946609089031178E-020
   6.7100000000000007E-002    -4.1296091391882762E-021
   6.8199999999999997E-002     3.9470981185976295E-020
   6.9300000000000000E-002     7.0008204961226752E-020
   7.0400000000000004E-002     2.4489787096231967E-020
   7.1500000000000008E-002    -9.1759978993468449E-020
   7.2599999999999998E-002    -1.6405280510777838E-019
   7.3700000000000002E-002    -7.9730866494129433E-020
   7.4800000000000005E-002     1.1040802273339487E-019
   7.5899999999999995E-002     2.2548568681980471E-019
   7.6999999999999999E-002     1.9245107875946022E-019
   7.8100000000000003E-002     1.2195397774447195E-019
   7.9200000000000007E-002     1.5927407931148297E-020
   8.0299999999999996E-002    -3.9099284346551324E-019
   8.1400000000000000E-002    -1.0603042008058115E-018
   8.2500000000000004E-002    -1.0005171370941272E-018
   8.3600000000000008E-002     8.5373554005902924E-019
   8.4699999999999998E-002     3.3819407557225482E-018
   8.5800000000000001E-002     2.9583835434502298E-018
   8.6900000000000005E-002    -2.3627039009808866E-018
   8.8000000000000009E-002    -8.0427383072184170E-018
   8.9099999999999999E-002    -5.6951310728020826E-018
   9.0200000000000002E-002     6.2268026522914599E-018
   9.1300000000000006E-002     1.6301496485766282E-017
   9.2399999999999996E-002     1.0490920777953849E-017
   9.3500000000000000E-002    -9.8369658477398387E-018
   9.4600000000000004E-002    -2.6228133674990545E-017
   9.5700000000000007E-002    -2.3738654212173403E-017
   9.6799999999999997E-002    -6.3282542864695574E-018
   9.7900000000000001E-002     1.6665641243746826E-017
   9.9000000000000005E-002     4.8891195010493895E-017
  0.10010000000000001          8.6526189037260093E-017
  0.10120000000000000          7.8748375173546485E-017
  0.10230000000000000         -4.3787139906461991E-017
  0.10340000000000001         -2.5059099167604052E-016
  0.10450000000000001         -3.4638038596403284E-016
  0.10560000000000000         -1.2396810256544416E-016
  0.10670000000000000          3.5622399407209148E-016
  0.10780000000000001          7.0652971600215797E-016
  0.10890000000000001          5.5333660771116609E-016
  0.11000000000000000         -4.8925291395343330E-017
  0.11110000000000000         -6.5216523562324565E-016
  0.11220000000000001         -8.9688538900230741E-016
  0.11330000000000000         -8.1119148924506347E-016
  0.11440000000000002         -5.1282376299782175E-016
  0.11550000000000001          1.7411378976676863E-016
  0.11660000000000000          1.3938914999244247E-015
  0.11770000000000001          2.4916469407198268E-015
  0.11880000000000000          2.1230086729540987E-015
  0.11989999999999999         -2.6866993055333830E-016
  0.12100000000000001         -3.2175389299237116E-015
  0.12210000000000000         -4.2163999918745036E-015
  0.12320000000000002         -2.3020142632797181E-015
  0.12430000000000001          8.4990015378075615E-016
  0.12540000000000001          2.9232144625106291E-015
  0.12650000000000003          3.5147117573801736E-015
  0.12760000000000002          3.6285709849412807E-015
  0.12870000000000001          2.8123456847698033E-015
  0.12980000000000003         -1.2176325198093958E-015
  0.13090000000000002         -8.4480474238325318E-015
  0.13200000000000001         -1.3134513008467019E-014
  0.13310000000000002         -7.4776932557215833E-015
  0.13420000000000001          9.4247255399276808E-015
  0.13530000000000003          2.7343470369867173E-014
  0.13640000000000002          3.1618886111792199E-014
  0.13750000000000001          1.4773786035683634E-014
  0.13860000000000003         -1.8301319119028159E-014
  0.13970000000000002         -5.4238314821418790E-014
  0.14080000000000001         -7.6532225381283764E-014
  0.14190000000000003         -6.8360810447695014E-014
  0.14300000000000002         -1.7623299737937193E-014
  0.14410000000000003          7.1000971486705200E-014
  0.14520000000000002          1.6518293081014407E-013
  0.14630000000000001          2.1144877840849341E-013
  0.14740000000000003          1.6302578861523975E-013
  0.14850000000000002          1.1178786778090304E-014
  0.14960000000000001         -2.0057645323291740E-013
  0.15070000000000003         -3.8798792737632093E-013
  0.15180000000000002         -4.5545056441553822E-013
  0.15290000000000001         -3.3335877461238006E-013
  0.15400000000000003         -2.0231310794401394E-014
  0.15510000000000002          3.8938451529975382E-013
  0.15620000000000003          7.2144444281455056E-013
  0.15730000000000002          7.9651389650603477E-013
  0.15840000000000001          5.2391473321158899E-013
  0.15950000000000003         -3.3193256086458400E-014
  0.16060000000000002         -6.5429253811796761E-013
  0.16170000000000001         -1.0364974937365767E-012
  0.16280000000000003         -9.2724276607586420E-013
  0.16390000000000002         -2.7391877286363220E-013
  0.16500000000000001          6.7455248201411799E-013
  0.16610000000000003          1.4010791225121944E-012
  0.16720000000000002          1.3522557639616961E-012
  0.16830000000000003          2.6687308504573515E-013
  0.16940000000000002         -1.6204544216885663E-012
  0.17050000000000001         -3.5373342709837940E-012
  0.17160000000000003         -4.3654025706774124E-012
  0.17270000000000002         -3.0841906719508705E-012
  0.17380000000000001          6.3933081918821077E-013
  0.17490000000000003          5.9884415135047497E-012
  0.17600000000000002          1.1013579805096985E-011
  0.17710000000000004          1.3220506286937272E-011
  0.17820000000000003          1.0587779784854146E-011
  0.17930000000000001          2.5452430961470096E-012
  0.18040000000000003         -9.2957933017778771E-012
  0.18150000000000002         -2.1133367625325583E-011
  0.18260000000000001         -2.8223201553601029E-011
  0.18370000000000003         -2.6822882456811747E-011
  0.18480000000000002         -1.5659310653726166E-011
  0.18590000000000001          2.8261041510463381E-012
  0.18700000000000003          2.2259647250444381E-011
  0.18810000000000002          3.4229768325344523E-011
  0.18920000000000003          3.2228192337058204E-011
  0.19030000000000002          1.5646680132097579E-011
  0.19140000000000001         -9.7645710961380416E-012
  0.19250000000000003         -3.2673055233578552E-011
  0.19360000000000002         -4.0150438529451549E-011
  0.19470000000000001         -2.4775952123246014E-011
  0.19580000000000003          1.3249449280772208E-011
  0.19690000000000002          6.3005246853098384E-011
  0.19800000000000001          1.0169529107706410E-010
  0.19910000000000003          1.0638460945511241E-010
  0.20020000000000002          6.5311096808517988E-011
  0.20130000000000003         -1.8924715960988436E-011
  0.20240000000000002         -1.2633290247254791E-010
  0.20350000000000001         -2.1515283998851942E-010
  0.20460000000000003         -2.3804769266888570E-010
  0.20570000000000002         -1.6803755609196003E-010
  0.20680000000000001         -1.6466135746573407E-011
  0.20790000000000003          1.6887695408751568E-010
  0.20900000000000002          3.2470040545184986E-010
  0.21010000000000004          3.8534964108549730E-010
  0.21120000000000003          3.0257324423743626E-010
  0.21230000000000002          7.7068879056341189E-011
  0.21340000000000003         -2.2735752169822376E-010
  0.21450000000000002         -4.9952392222607500E-010
  0.21560000000000001         -6.2057725624953264E-010
  0.21670000000000003         -5.1010790036443154E-010
  0.21780000000000002         -1.6285579829133923E-010
  0.21890000000000001          3.2830385632287573E-010
  0.22000000000000003          7.8546058546180575E-010
  0.22110000000000002          1.0048603060752725E-009
  0.22220000000000004          8.4838680525223253E-010
  0.22330000000000003          3.1586169790820406E-010
  0.22440000000000002         -4.3748424327638702E-010
  0.22550000000000003         -1.1478837880218862E-009
  0.22660000000000002         -1.5353159854569753E-009
  0.22770000000000001         -1.3985183011655522E-009
  0.22880000000000003         -6.9000771762972590E-010
  0.22990000000000002          4.3635700608390948E-010
  0.23100000000000004          1.6244221523464830E-009
  0.23210000000000003          2.4042536850288343E-009
  0.23320000000000002          2.3677799720900339E-009
  0.23430000000000004          1.3687244670990140E-009
  0.23540000000000003         -3.5800426512189176E-010
  0.23650000000000002         -2.2361286156069582E-009
  0.23760000000000003         -3.5472280668358280E-009
  0.23870000000000002         -3.7086771431660281E-009
  0.23980000000000001         -2.5082051990921173E-009
  0.24090000000000000         -2.0378845833057824E-010
  0.24200000000000005          2.5302344663913345E-009
  0.24310000000000004          4.7813988324207912E-009
  0.24420000000000003          5.6603499665186519E-009
  0.24530000000000002          4.6036401357696377E-009
  0.24640000000000001          1.6502077482272171E-009
  0.24750000000000005         -2.4195783154823403E-009
  0.24860000000000004         -6.2194085437283775E-009
  0.24970000000000003         -8.2206099705217639E-009
  0.25080000000000002         -7.3959109947452362E-009
  0.25190000000000001         -3.7300957878017016E-009
  0.25300000000000000          1.6894001753087196E-009
  0.25410000000000005          7.0576793298471330E-009
  0.25520000000000004          1.0504493275220739E-008
  0.25630000000000003          1.0703875119588702E-008
  0.25740000000000002          7.2610224499669584E-009
  0.25850000000000001          8.7642038071322759E-010
  0.25960000000000005         -6.6902332562790434E-009
  0.26070000000000004         -1.2939851856685891E-008
  0.26180000000000003         -1.5360077654236193E-008
  0.26290000000000002         -1.2459880238679943E-008
  0.26400000000000001         -4.6481583027002671E-009
  0.26510000000000000          5.6257536407144926E-009
  0.26620000000000005          1.4719607754898334E-008
  0.26730000000000004          1.9277457852240332E-008
  0.26840000000000003          1.7561466947313420E-008
  0.26950000000000002          9.9883976645287476E-009
  0.27060000000000001         -1.2110694669331679E-009
  0.27170000000000005         -1.2794145298755666E-008
  0.27280000000000004         -2.1311766573717250E-008
  0.27390000000000003         -2.3825759143392133E-008
  0.27500000000000002         -1.8732862372417003E-008
  0.27610000000000001         -6.6888250493946089E-009
  0.27720000000000000          8.9105736122974122E-009
  0.27830000000000005          2.2662538512463470E-008
  0.27940000000000004          2.9261242318057157E-008
  0.28050000000000003          2.5991987229190272E-008
  0.28160000000000002          1.4046484864138620E-008
  0.28270000000000001         -2.2309447622603784E-009
  0.28380000000000005         -1.7551517572655939E-008
  0.28490000000000004         -2.7729409879384548E-008
  0.28600000000000003         -3.0425191255289974E-008
  0.28710000000000002         -2.4867361503311258E-008
  0.28820000000000001         -1.1713654934908391E-008
  0.28930000000000000          6.3773457625870833E-009
  0.29040000000000005          2.4299071199607170E-008
  0.29150000000000004          3.5577578216816619E-008
  0.29260000000000003          3.5240404372416378E-008
  0.29370000000000002          2.2818433365046076E-008
  0.29480000000000001          3.0849789389719717E-009
  0.29590000000000005         -1.6410238501407548E-008
  0.29700000000000004         -2.9381288513263826E-008
  0.29810000000000003         -3.3428406709390401E-008
  0.29920000000000002         -2.9532406742305284E-008
  0.30030000000000001         -1.9586195776355453E-008
  0.30140000000000006         -4.8513881800715808E-009
  0.30250000000000005          1.3034194168426438E-008
  0.30360000000000004          2.9982047067278472E-008
  0.30470000000000003          3.9484220337726583E-008
  0.30580000000000002          3.6097262068324198E-008
  0.30690000000000001          1.9904799586356603E-008
  0.30800000000000005         -2.3465567267066945E-009
  0.30910000000000004         -2.1223209856202629E-008
  0.31020000000000003         -3.0701279740696918E-008
  0.31130000000000002         -3.1130557687220062E-008
  0.31240000000000001         -2.6630747385070208E-008
  0.31350000000000006         -1.9845034060494982E-008
  0.31460000000000005         -9.5391650134502015E-009
  0.31570000000000004          6.4319602977036539E-009
