  -1.3200000000000002E-002    -1.6490065027028322E-003
  -1.2100000000000001E-002    -1.3950277119874954E-002
  -1.1000000000000001E-002   -0.10607267171144485
  -9.9000000000000025E-003   -0.66107052564620972
  -8.8000000000000023E-003    -3.3323028087615967
  -7.7000000000000011E-003    -13.510034561157227
  -6.6000000000000017E-003    -43.650470733642578
  -5.5000000000000014E-003    -110.60076904296875
  -4.4000000000000011E-003    -213.09236145019531
  -3.3000000000000008E-003    -290.60940551757812
  -2.2000000000000006E-003    -217.49971008300781
  -1.1000000000000003E-003     90.871414184570312
  -1.7347234759768071E-018     508.94577026367188
   1.0999999999999985E-003     704.29229736328125
   2.1999999999999988E-003     443.87832641601562
   3.2999999999999991E-003    -99.043869018554688
   4.3999999999999994E-003    -474.06323242187500
   5.4999999999999997E-003    -420.70858764648438
   6.6000000000000000E-003    -91.701965332031250
   7.7000000000000002E-003     204.95733642578125
   8.8000000000000005E-003     321.77905273437500
   9.9000000000000008E-003     257.75863647460938
   1.1000000000000001E-002     16.014398574829102
   1.2100000000000001E-002    -329.22650146484375
   1.3199999999999998E-002    -513.29913330078125
   1.4299999999999998E-002    -281.11999511718750
   1.5399999999999999E-002     236.09617614746094
   1.6500000000000001E-002     540.34985351562500
   1.7599999999999998E-002     304.50271606445312
   1.8700000000000001E-002    -217.09497070312500
   1.9799999999999998E-002    -471.31295776367188
   2.0900000000000002E-002    -245.06800842285156
   2.1999999999999999E-002     147.67593383789062
   2.3099999999999996E-002     310.32772827148438
   2.4199999999999999E-002     197.76429748535156
   2.5299999999999996E-002     21.879920959472656
   2.6400000000000000E-002    -96.280555725097656
   2.7499999999999997E-002    -185.42201232910156
   2.8600000000000000E-002    -214.45680236816406
   2.9699999999999997E-002    -67.926033020019531
   3.0800000000000001E-002     208.54151916503906
   3.1899999999999998E-002     333.85433959960938
   3.3000000000000002E-002     117.24350738525391
   3.4099999999999998E-002    -240.70652770996094
   3.5200000000000002E-002    -348.52127075195312
   3.6299999999999999E-002    -103.89099884033203
   3.7400000000000003E-002     193.09378051757812
   3.8500000000000000E-002     238.16055297851562
   3.9599999999999996E-002     73.096092224121094
   4.0700000000000000E-002    -58.198677062988281
   4.1799999999999997E-002    -67.988601684570312
   4.2900000000000001E-002    -66.002563476562500
   4.3999999999999997E-002    -97.306320190429688
   4.5100000000000001E-002    -49.541839599609375
   4.6199999999999998E-002     117.40055084228516
   4.7300000000000002E-002     221.36253356933594
   4.8399999999999999E-002     83.941856384277344
   4.9500000000000002E-002    -179.16886901855469
   5.0600000000000006E-002    -264.48403930664062
   5.1699999999999996E-002    -72.590171813964844
   5.2800000000000000E-002     162.34933471679688
   5.3900000000000003E-002     186.70889282226562
   5.5000000000000007E-002     36.872936248779297
   5.6099999999999997E-002    -69.117248535156250
   5.7200000000000001E-002    -51.051990509033203
   5.8300000000000005E-002    -21.812810897827148
   5.9399999999999994E-002    -49.997051239013672
   6.0499999999999998E-002    -42.879074096679688
   6.1600000000000002E-002     67.664428710937500
   6.2700000000000006E-002     159.66690063476562
   6.3799999999999996E-002     74.452423095703125
   6.4899999999999999E-002    -126.20572662353516
   6.6000000000000003E-002    -205.60816955566406
   6.7100000000000007E-002    -64.134376525878906
   6.8199999999999997E-002     125.22097015380859
   6.9300000000000000E-002     151.06170654296875
   7.0400000000000004E-002     29.127424240112305
   7.1500000000000008E-002    -63.071361541748047
   7.2599999999999998E-002    -48.705867767333984
   7.3700000000000002E-002    -16.859161376953125
   7.4800000000000005E-002    -34.056350708007812
   7.5899999999999995E-002    -31.584861755371094
   7.6999999999999999E-002     54.090305328369141
   7.8100000000000003E-002     133.09690856933594
   7.9200000000000007E-002     70.349655151367188
   8.0299999999999996E-002    -97.189659118652344
   8.1400000000000000E-002    -175.22996520996094
   8.2500000000000004E-002    -64.512817382812500
   8.3600000000000008E-002     103.15792083740234
   8.4699999999999998E-002     138.60548400878906
   8.5800000000000001E-002     31.493085861206055
   8.6900000000000005E-002    -69.499343872070312
   8.8000000000000009E-002    -70.541435241699219
   8.9099999999999999E-002    -24.038812637329102
   9.0200000000000002E-002    -3.1741099357604980
   9.1300000000000006E-002     10.206223487854004
   9.2399999999999996E-002     55.826930999755859
   9.3500000000000000E-002     87.554870605468750
   9.4600000000000004E-002     28.790765762329102
   9.5700000000000007E-002    -86.814666748046875
   9.6799999999999997E-002    -125.41898345947266
   9.7900000000000001E-002    -28.331550598144531
   9.9000000000000005E-002     95.826354980468750
  0.10010000000000001          105.00202941894531
  0.10120000000000000          2.7896544933319092
  0.10230000000000000         -80.467910766601562
  0.10340000000000001         -63.577514648437500
  0.10450000000000001          1.5884420871734619
  0.10560000000000000          30.833692550659180
  0.10670000000000000          21.301713943481445
  0.10780000000000001          20.566305160522461
  0.10890000000000001          30.391498565673828
  0.11000000000000000          8.8468637466430664
  0.11110000000000000         -42.257419586181641
  0.11220000000000001         -59.166606903076172
  0.11330000000000000         -7.7707352638244629
  0.11440000000000002          55.232307434082031
  0.11550000000000001          52.563732147216797
  0.11660000000000000         -9.2942256927490234
  0.11770000000000001         -51.652194976806641
  0.11880000000000000         -31.080305099487305
  0.11989999999999999          11.690570831298828
  0.12100000000000001          20.965707778930664
  0.12210000000000000          1.9171876907348633
  0.12320000000000002         -2.9453535079956055
  0.12430000000000001          13.721763610839844
  0.12540000000000001          17.358276367187500
  0.12650000000000003         -6.9541935920715332
  0.12760000000000002         -26.768507003784180
  0.12870000000000001         -11.372528076171875
  0.12980000000000003          20.153856277465820
  0.13090000000000002          25.570055007934570
  0.13200000000000001        -0.65253043174743652
  0.13310000000000002         -22.623760223388672
  0.13420000000000001         -15.849992752075195
  0.13530000000000003          2.5682692527770996
  0.13640000000000002          5.5481491088867188
  0.13750000000000001         -4.1781196594238281
  0.13860000000000003         -4.2697916030883789
  0.13970000000000002          9.1781845092773438
  0.14080000000000001          16.136022567749023
  0.14190000000000003          4.8364520072937012
  0.14300000000000002         -10.128158569335938
  0.14410000000000003         -9.8942537307739258
  0.14520000000000002          2.1233572959899902
  0.14630000000000001          7.9831957817077637
  0.14740000000000003          2.0708055496215820
  0.14850000000000002         -3.8322312831878662
  0.14960000000000001         -1.3041709661483765
  0.15070000000000003          2.2786455154418945
  0.15180000000000002         -2.6934316158294678
  0.15290000000000001         -11.435344696044922
  0.15400000000000003         -10.662217140197754
  0.15510000000000002          2.3815946578979492
  0.15620000000000003          15.253323554992676
  0.15730000000000002          15.292284965515137
  0.15840000000000001          3.3097102642059326
  0.15950000000000003         -9.4802322387695312
  0.16060000000000002         -13.491374969482422
  0.16170000000000001         -7.0315732955932617
  0.16280000000000003          5.2849826812744141
  0.16390000000000002          15.531711578369141
  0.16500000000000001          15.486142158508301
  0.16610000000000003          2.3837726116180420
  0.16720000000000002         -15.990134239196777
  0.16830000000000003         -24.967510223388672
  0.16940000000000002         -15.466662406921387
  0.17050000000000001          6.4436092376708984
  0.17160000000000003          23.552494049072266
  0.17270000000000002          22.057348251342773
  0.17380000000000001          3.2437255382537842
  0.17490000000000003         -17.675359725952148
  0.17600000000000002         -23.829498291015625
  0.17710000000000004         -9.9377641677856445
  0.17820000000000003          13.435663223266602
  0.17930000000000001          27.776012420654297
  0.18040000000000003          21.005796432495117
  0.18150000000000002         -2.5997679233551025
  0.18260000000000001         -25.209527969360352
  0.18370000000000003         -29.326002120971680
  0.18480000000000002         -11.800814628601074
  0.18590000000000001          13.561988830566406
  0.18700000000000003          27.134574890136719
  0.18810000000000002          19.171985626220703
  0.18920000000000003         -2.9591202735900879
  0.19030000000000002         -21.667615890502930
  0.19140000000000001         -23.422803878784180
  0.19250000000000003         -8.0481977462768555
  0.19360000000000002          13.158880233764648
  0.19470000000000001          26.189655303955078
  0.19580000000000003          22.403264999389648
  0.19690000000000002          2.9739179611206055
  0.19800000000000001         -20.329212188720703
  0.19910000000000003         -30.419021606445312
  0.20020000000000002         -17.371559143066406
  0.20130000000000003          10.402221679687500
  0.20240000000000002          30.080686569213867
  0.20350000000000001          24.331144332885742
  0.20460000000000003         -1.8262451887130737
  0.20570000000000002         -25.980623245239258
  0.20680000000000001         -29.662216186523438
  0.20790000000000003         -12.521234512329102
  0.20900000000000002          12.395198822021484
  0.21010000000000004          30.507255554199219
  0.21120000000000003          31.077968597412109
  0.21230000000000002          9.9056110382080078
  0.21340000000000003         -23.247493743896484
  0.21450000000000002         -42.891876220703125
  0.21560000000000001         -26.890720367431641
  0.21670000000000003          16.251850128173828
  0.21780000000000002          47.550346374511719
  0.21890000000000001          35.206615447998047
  0.22000000000000003         -9.8921937942504883
  0.22110000000000002         -44.737461090087891
  0.22220000000000004         -39.735630035400391
  0.22330000000000003         -5.2558426856994629
  0.22440000000000002          27.214622497558594
  0.22550000000000003          37.850204467773438
  0.22660000000000002          26.055719375610352
  0.22770000000000001         -1.3530042171478271
  0.22880000000000003         -32.362621307373047
  0.22990000000000002         -44.364353179931641
  0.23100000000000004         -18.430633544921875
  0.23210000000000003          31.295455932617188
  0.23320000000000002          58.029937744140625
  0.23430000000000004          29.787488937377930
  0.23540000000000003         -28.676055908203125
  0.23650000000000002         -58.571525573730469
  0.23760000000000003         -32.911289215087891
  0.23870000000000002          16.041120529174805
  0.23980000000000001          39.881881713867188
  0.24090000000000000          27.558494567871094
  0.24200000000000005          3.2348847389221191
  0.24310000000000004         -14.013646125793457
  0.24420000000000003         -24.567911148071289
  0.24530000000000002         -26.173896789550781
  0.24640000000000001         -6.3204021453857422
  0.24750000000000005          30.187791824340820
  0.24860000000000004          47.695316314697266
  0.24970000000000003          18.324611663818359
  0.25080000000000002         -33.668640136718750
  0.25190000000000001         -52.274612426757812
  0.25300000000000000         -18.007188796997070
  0.25410000000000005          27.260158538818359
  0.25520000000000004          34.852851867675781
  0.25630000000000003          8.2931642532348633
  0.25740000000000002         -12.214794158935547
  0.25850000000000001         -9.6931228637695312
  0.25960000000000005         -4.9207239151000977
  0.26070000000000004         -11.827138900756836
  0.26180000000000003         -11.362950325012207
  0.26290000000000002          12.699612617492676
  0.26400000000000001          36.120399475097656
  0.26510000000000000          22.245149612426758
  0.26620000000000005         -20.680114746093750
  0.26730000000000004         -42.412521362304688
  0.26840000000000003         -17.046091079711914
  0.26950000000000002          21.595594406127930
  0.27060000000000001          27.573293685913086
  0.27170000000000005          3.7882535457611084
  0.27280000000000004         -10.928292274475098
  0.27390000000000003         -3.1723871231079102
  0.27500000000000002         0.93135201930999756
  0.27610000000000001         -13.586782455444336
  0.27720000000000000         -20.531204223632812
  0.27830000000000005          5.0303034782409668
  0.27940000000000004          38.188491821289062
  0.28050000000000003          31.706153869628906
  0.28160000000000002         -14.313246726989746
  0.28270000000000001         -45.216991424560547
  0.28380000000000005         -23.636373519897461
  0.28490000000000004          20.718898773193359
  0.28600000000000003          33.820064544677734
  0.28710000000000002          8.9753694534301758
  0.28820000000000001         -13.891420364379883
  0.28930000000000000         -11.346096992492676
  0.29040000000000005         -3.2969493865966797
  0.29150000000000004         -9.5938463211059570
  0.29260000000000003         -13.445696830749512
  0.29370000000000002          7.2685060501098633
  0.29480000000000001          33.523414611816406
  0.29590000000000005          24.952167510986328
  0.29700000000000004         -17.313562393188477
  0.29810000000000003         -42.427829742431641
  0.29920000000000002         -16.932191848754883
  0.30030000000000001          27.341384887695312
  0.30140000000000006          35.629154205322266
  0.30250000000000005          3.2233741283416748
  0.30360000000000004         -23.881784439086914
  0.30470000000000003         -16.313415527343750
  0.30580000000000002          3.7468302249908447
  0.30690000000000001          4.8597493171691895
  0.30800000000000005         -5.7960948944091797
  0.30910000000000004         -1.3146594762802124
  0.31020000000000003          15.553359985351562
  0.31130000000000002          14.683601379394531
  0.31240000000000001         -10.622735977172852
  0.31350000000000006         -26.893995285034180
  0.31460000000000005         -8.3838319778442383
  0.31570000000000004          22.101135253906250
