  -1.3200000000000002E-002     0.0000000000000000
  -1.2100000000000001E-002     0.0000000000000000
  -1.1000000000000001E-002     0.0000000000000000
  -9.9000000000000025E-003     0.0000000000000000
  -8.8000000000000023E-003     0.0000000000000000
  -7.7000000000000011E-003     0.0000000000000000
  -6.6000000000000017E-003     0.0000000000000000
  -5.5000000000000014E-003     0.0000000000000000
  -4.4000000000000011E-003     2.4384321803920748E-028
  -3.3000000000000008E-003     6.2114177749653547E-028
  -2.2000000000000006E-003     1.4460495431146654E-027
  -1.1000000000000003E-003     1.2302247298322791E-026
  -1.7347234759768071E-018     4.5721365027459097E-027
   1.0999999999999985E-003    -2.8136092365339879E-025
   2.1999999999999988E-003    -9.7111015825525118E-025
   3.2999999999999991E-003     1.3113540511089652E-024
   4.3999999999999994E-003     1.8469308495404618E-023
   5.4999999999999997E-003     4.5251071541063740E-023
   6.6000000000000000E-003    -6.8898114341818972E-023
   7.7000000000000002E-003    -6.5792579741597723E-022
   8.8000000000000005E-003    -1.0292275551047741E-021
   9.9000000000000008E-003     3.3854083130062419E-021
   1.1000000000000001E-002     1.6187181417581161E-020
   1.2100000000000001E-002     9.0268128062573519E-021
   1.3199999999999998E-002    -9.6482682690308998E-020
   1.4299999999999998E-002    -2.5163428769928374E-019
   1.5399999999999999E-002     1.1307622304615537E-019
   1.6500000000000001E-002     1.6716497134987199E-018
   1.7599999999999998E-002     2.4393725836214360E-018
   1.8700000000000001E-002    -4.2173431299740467E-018
   1.9799999999999998E-002    -1.9259772288941727E-017
   2.0900000000000002E-002    -1.4032662488263985E-017
   2.1999999999999999E-002     5.9893865136474088E-017
   2.3099999999999996E-002     1.5953766299861241E-016
   2.4199999999999999E-002     3.1322259302949361E-017
   2.5299999999999996E-002    -5.4833392524556378E-016
   2.6400000000000000E-002    -1.0191446423013354E-015
   2.7499999999999997E-002     2.1151873824773893E-016
   2.8600000000000000E-002     3.7087968635075245E-015
   2.9699999999999997E-002     5.3897752519480990E-015
   3.0800000000000001E-002    -2.4872059469773725E-015
   3.1899999999999998E-002    -1.9828463618753144E-014
   3.3000000000000002E-002    -2.5397894982330353E-014
   3.4099999999999998E-002     1.2220267996848090E-014
   3.5200000000000002E-002     8.6711643724687870E-014
   3.6299999999999999E-002     1.1280959619133085E-013
   3.7400000000000003E-002    -2.4087391017326917E-014
   3.8500000000000000E-002    -3.0931556144545014E-013
   3.9599999999999996E-002    -4.7385733574836775E-013
   4.0700000000000000E-002    -1.2349835238657791E-013
   4.1799999999999997E-002     8.3457980110113184E-013
   4.2900000000000001E-002     1.7735255538470218E-012
   4.3999999999999997E-002     1.4372993897490693E-012
   4.5100000000000001E-002    -1.1617424687179745E-012
   4.6199999999999998E-002    -5.3040787907632225E-012
   4.7300000000000002E-002    -7.6056166573024164E-012
   4.8399999999999999E-002    -3.1625182073807823E-012
   4.9500000000000002E-002     1.0124348408246941E-011
   5.0600000000000006E-002     2.5841922351999003E-011
   5.1699999999999996E-002     2.7948872383110057E-011
   5.2800000000000000E-002     6.6165904135870313E-013
   5.3900000000000003E-002    -5.2683867685088259E-011
   5.5000000000000007E-002    -9.7462725390240479E-011
   5.6099999999999997E-002    -8.1833956278032360E-011
   5.7200000000000001E-002     2.1624283960686164E-011
   5.8300000000000005E-002     1.7571517851866503E-010
   5.9399999999999994E-002     2.8028562804038870E-010
   6.0499999999999998E-002     2.2860503767763163E-010
   6.1600000000000002E-002    -1.5217981388926383E-011
   6.2700000000000006E-002    -3.7211356218591618E-010
   6.3799999999999996E-002    -6.6708261137193858E-010
   6.4899999999999999E-002    -7.0072309066304683E-010
   6.6000000000000003E-002    -3.4373898172290751E-010
   6.7100000000000007E-002     3.7509773065380614E-010
   6.8199999999999997E-002     1.2255365611224533E-009
   6.9300000000000000E-002     1.8236238075175493E-009
   7.0400000000000004E-002     1.7814379971170524E-009
   7.1500000000000008E-002     8.9028695526849333E-010
   7.2599999999999998E-002    -7.6838224671860189E-010
   7.3700000000000002E-002    -2.8201736501642927E-009
   7.4800000000000005E-002    -4.6413650700571907E-009
   7.5899999999999995E-002    -5.4128355131410899E-009
   7.6999999999999999E-002    -4.2857282167574340E-009
   7.8100000000000003E-002    -7.8210671272671561E-010
   7.9200000000000007E-002     4.6903960715383164E-009
   8.0299999999999996E-002     1.0619769064135198E-008
   8.1400000000000000E-002     1.4800992431673876E-008
   8.2500000000000004E-002     1.5218262205962674E-008
   8.3600000000000008E-002     1.0814365403177817E-008
   8.4699999999999998E-002     1.7025605369980212E-009
   8.5800000000000001E-002    -1.1053793436133219E-008
   8.6900000000000005E-002    -2.5608986931047184E-008
   8.8000000000000009E-002    -3.9194741674464240E-008
   8.9099999999999999E-002    -4.7926381085972025E-008
   9.0200000000000002E-002    -4.7055138452378742E-008
   9.1300000000000006E-002    -3.1991792326380164E-008
   9.2399999999999996E-002    -1.9803972697851613E-011
   9.3500000000000000E-002     4.7868482511148613E-008
   9.4600000000000004E-002     1.0599630684282602E-007
   9.5700000000000007E-002     1.6476563757805707E-007
   9.6799999999999997E-002     2.1305045549979695E-007
   9.7900000000000001E-002     2.4086915573207079E-007
   9.9000000000000005E-002     2.4090502392937196E-007
  0.10010000000000001          2.0893637042718183E-007
  0.10120000000000000          1.4460827912898822E-007
  0.10230000000000000          5.3181594239504193E-008
  0.10340000000000001         -5.3476352235293234E-008
  0.10450000000000001         -1.5905418138117966E-007
  0.10560000000000000         -2.4783440721876104E-007
  0.10670000000000000         -3.0905235348654969E-007
  0.10780000000000001         -3.3738260185600666E-007
  0.10890000000000001         -3.3049897751880053E-007
  0.11000000000000000         -2.8771356141987781E-007
  0.11110000000000000         -2.1195805288698466E-007
  0.11220000000000001         -1.1284573275816001E-007
  0.11330000000000000         -6.7718723961718297E-009
  0.11440000000000002          8.7188254838110879E-008
  0.11550000000000001          1.5314826384837943E-007
  0.11660000000000000          1.8271427393301565E-007
  0.11770000000000001          1.7615067804399587E-007
  0.11880000000000000          1.4074605303449061E-007
  0.11989999999999999          8.7812090043826174E-008
  0.12100000000000001          3.0292135022591538E-008
  0.12210000000000000         -1.8095359877179362E-008
  0.12320000000000002         -4.4260932696715827E-008
  0.12430000000000001         -4.1063060507440241E-008
  0.12540000000000001         -1.5087929128299038E-008
  0.12650000000000003          1.1958065648798311E-008
  0.12760000000000002          1.5817057885669783E-008
  0.12870000000000001         -1.0179668663568009E-008
  0.12980000000000003         -4.6563002342736581E-008
  0.13090000000000002         -6.2965860081476421E-008
  0.13200000000000001         -4.5127961811886053E-008
  0.13310000000000002         -6.7090750732745619E-009
  0.13420000000000001          2.6558016230637804E-008
  0.13530000000000003          4.2866631133620103E-008
  0.13640000000000002          5.1919219146157047E-008
  0.13750000000000001          6.6916868490807246E-008
  0.13860000000000003          8.2870556639136339E-008
  0.13970000000000002          7.6898395207081194E-008
  0.14080000000000001          3.1907035236145020E-008
  0.14190000000000003         -3.9814548102867775E-008
  0.14300000000000002         -9.7744425886503450E-008
  0.14410000000000003         -1.0243147130495345E-007
  0.14520000000000002         -5.1267139866695288E-008
  0.14630000000000001          1.1479104777833982E-008
  0.14740000000000003          2.7521368295424509E-008
  0.14850000000000002         -1.9818289231920971E-008
  0.14960000000000001         -7.8954741411507712E-008
  0.15070000000000003         -7.0304956523159490E-008
  0.15180000000000002          3.2360130575170842E-008
  0.15290000000000001          1.6029832750064088E-007
  0.15400000000000003          2.0338083572823962E-007
  0.15510000000000002          1.1671585298245191E-007
  0.15620000000000003         -2.9397458689572886E-008
  0.15730000000000002         -1.1615644979201534E-007
  0.15840000000000001         -9.4875574063735257E-008
  0.15950000000000003         -3.1405484435254039E-008
  0.16060000000000002         -2.7099259725105185E-008
  0.16170000000000001         -1.0058139565671809E-007
  0.16280000000000003         -1.5791877672199917E-007
  0.16390000000000002         -8.7010100457973749E-008
  0.16500000000000001          1.1519630760403743E-007
  0.16610000000000003          3.0968246278462175E-007
  0.16720000000000002          3.1999280736272340E-007
  0.16830000000000003          9.3665192935077357E-008
  0.16940000000000002         -2.2245846764690214E-007
  0.17050000000000001         -3.8052212403272279E-007
  0.17160000000000003         -2.4432543455077393E-007
  0.17270000000000002          6.9214458164879034E-008
  0.17380000000000001          2.7637778998723661E-007
  0.17490000000000003          1.9262550665644085E-007
  0.17600000000000002         -7.3573616532485175E-008
  0.17710000000000004         -2.1774519609607523E-007
  0.17820000000000003         -5.7959379518024434E-008
  0.17930000000000001          2.5126612968051631E-007
  0.18040000000000003          3.5725497582461685E-007
  0.18150000000000002          8.0178743644410133E-008
  0.18260000000000001         -3.6815421822211647E-007
  0.18370000000000003         -5.6270420145665412E-007
  0.18480000000000002         -2.7809525704469706E-007
  0.18590000000000001          2.7141402370034484E-007
  0.18700000000000003          6.0611586150116636E-007
  0.18810000000000002          4.1455277255408873E-007
  0.18920000000000003         -1.4827479333234805E-007
  0.19030000000000002         -5.7498834848956903E-007
  0.19140000000000001         -4.5224672362564888E-007
  0.19250000000000003          1.4093278366544837E-007
  0.19360000000000002          6.5968720264208969E-007
  0.19470000000000001          5.7575459777581273E-007
  0.19580000000000003         -9.3098343256770022E-008
  0.19690000000000002         -7.3630559427328990E-007
  0.19800000000000001         -7.0752605552115710E-007
  0.19910000000000003          1.4022255356849200E-008
  0.20020000000000002          7.4349890155644971E-007
  0.20130000000000003          7.3877083650586428E-007
  0.20240000000000002         -4.1873221334753907E-008
  0.20350000000000001         -8.5616972000934766E-007
  0.20460000000000003         -8.8593640157341724E-007
  0.20570000000000002         -4.1715338738868013E-008
  0.20680000000000001          9.3127425770944683E-007
  0.20790000000000003          1.1420891041780123E-006
  0.20900000000000002          3.7488493376258702E-007
  0.21010000000000004         -7.1083667307902942E-007
  0.21120000000000003         -1.1628703759924974E-006
  0.21230000000000002         -5.8193711538478965E-007
  0.21340000000000003          5.0271881946173380E-007
  0.21450000000000002          1.0762704505395959E-006
  0.21560000000000001          5.5990830105656642E-007
  0.21670000000000003         -5.9869609003726509E-007
  0.21780000000000002         -1.2741783166347886E-006
  0.21890000000000001         -7.2377321203020983E-007
  0.22000000000000003          6.2910538645155611E-007
  0.22110000000000002          1.5241917026287410E-006
  0.22220000000000004          1.0698624919314170E-006
  0.22330000000000003         -3.5576093182498880E-007
  0.22440000000000002         -1.4421244713958004E-006
  0.22550000000000003         -1.2033787015752750E-006
  0.22660000000000002          9.7960509037875454E-008
  0.22770000000000001          1.2418086043908261E-006
  0.22880000000000003          1.2071942592228879E-006
  0.22990000000000002          6.8550306764336710E-008
  0.23100000000000004         -1.1327744005029672E-006
  0.23210000000000003         -1.3308346069607069E-006
  0.23320000000000002         -3.4606409826665185E-007
  0.23430000000000004          9.6501207735855132E-007
  0.23540000000000003          1.4316952956505702E-006
  0.23650000000000002          5.9932943941021222E-007
  0.23760000000000003         -8.0458829643248464E-007
  0.23870000000000002         -1.4681178299724706E-006
  0.23980000000000001         -7.1875820140121505E-007
  0.24090000000000000          7.7382617291732458E-007
  0.24200000000000005          1.5887683275650488E-006
  0.24310000000000004          9.3016728897055145E-007
  0.24420000000000003         -5.9100034377479460E-007
  0.24530000000000002         -1.5711777905380586E-006
  0.24640000000000001         -1.1712425020959927E-006
  0.24750000000000005          1.6048225859321974E-007
  0.24860000000000004          1.2193094107715297E-006
  0.24970000000000003          1.1660578138616984E-006
  0.25080000000000002          1.6266884017568373E-007
  0.25190000000000001         -8.9100853983836714E-007
  0.25300000000000000         -1.1239907280469197E-006
  0.25410000000000005         -3.4793521308529307E-007
  0.25520000000000004          7.9749793258088175E-007
  0.25630000000000003          1.3131960940881982E-006
  0.25740000000000002          6.7267728809383698E-007
  0.25850000000000001         -6.3065579070098465E-007
  0.25960000000000005         -1.4332863429444842E-006
  0.26070000000000004         -9.7727593129093293E-007
  0.26180000000000003          3.1739688211018802E-007
  0.26290000000000002          1.2420562143233838E-006
  0.26400000000000001          9.9149440302426228E-007
  0.26510000000000000         -9.4737934830391168E-008
  0.26620000000000005         -9.7076053862110712E-007
  0.26730000000000004         -9.2428052766990731E-007
  0.26840000000000003         -1.1844498715163354E-007
  0.26950000000000002          7.2855567623264506E-007
  0.27060000000000001          9.8617772437137319E-007
  0.27170000000000005          4.9183046257894603E-007
  0.27280000000000004         -4.0914099486144551E-007
  0.27390000000000003         -1.0461684496476664E-006
  0.27500000000000002         -8.4844049297316815E-007
  0.27610000000000001          1.1979820158103394E-007
  0.27720000000000000          1.0444167628520518E-006
  0.27830000000000005          1.0321921308786841E-006
  0.27940000000000004          3.7917967432576916E-008
  0.28050000000000003         -9.9956446319993120E-007
  0.28160000000000002         -1.0893173794102040E-006
  0.28270000000000001         -1.9933057160415046E-007
  0.28380000000000005          7.7563049671880435E-007
  0.28490000000000004          9.8362045264366316E-007
  0.28600000000000003          3.8659052847833664E-007
  0.28710000000000002         -3.9648469396524888E-007
  0.28820000000000001         -7.6144334570926731E-007
  0.28930000000000000         -5.2445045639615273E-007
  0.29040000000000005          1.0742160583276927E-007
  0.29150000000000004          6.8977760747657157E-007
  0.29260000000000003          7.3554934942876571E-007
  0.29370000000000002          8.7333127396505006E-008
  0.29480000000000001         -7.7215395322127733E-007
  0.29590000000000005         -1.0131884664588142E-006
  0.29700000000000004         -3.0464181577372074E-007
  0.29810000000000003          7.1358783770847367E-007
  0.29920000000000002          1.0374274097557645E-006
  0.30030000000000001          3.8960928350206814E-007
  0.30140000000000006         -4.9753111852623988E-007
  0.30250000000000005         -7.4466339583523222E-007
  0.30360000000000004         -2.6140028808185889E-007
  0.30470000000000003          3.2060114563137176E-007
  0.30580000000000002          4.6153394350767485E-007
  0.30690000000000001          1.9440663834302541E-007
  0.30800000000000005         -1.4412023574550403E-007
  0.30910000000000004         -3.3842073321466160E-007
  0.31020000000000003         -3.3036118907148193E-007
  0.31130000000000002         -9.2247809391210467E-008
  0.31240000000000001          2.8049521461070981E-007
  0.31350000000000006          4.6689470423189050E-007
  0.31460000000000005          2.0632762698369334E-007
  0.31570000000000004         -2.8780550564988516E-007
