 -0.12000000000000000          0.0000000000000000
 -0.11889999999999999          0.0000000000000000
 -0.11780000000000000          0.0000000000000000
 -0.11670000000000000          0.0000000000000000
 -0.11559999999999999          0.0000000000000000
 -0.11449999999999999          0.0000000000000000
 -0.11340000000000000          0.0000000000000000
 -0.11230000000000000          4.5173334915543855E-021
 -0.11119999999999999         -2.1335217507987356E-021
 -0.11009999999999999         -5.0255093159369238E-020
 -0.10900000000000000          6.3247356507830386E-021
 -0.10790000000000000          3.2296866351523760E-019
 -0.10679999999999999          1.0674557717373977E-019
 -0.10569999999999999         -1.4623047761222683E-018
 -0.10460000000000000         -1.2596300164102911E-018
 -0.10349999999999999          4.7662432272616785E-018
 -0.10239999999999999          7.2483702952041428E-018
 -0.10130000000000000         -1.0592410048849818E-017
 -0.10020000000000000         -2.7792543971565133E-017
  -9.9099999999999994E-002     1.2570398243991732E-017
  -9.7999999999999990E-002     7.9820460804419312E-017
  -9.6899999999999986E-002     1.2145883363365230E-017
  -9.5799999999999996E-002    -1.8955655035397421E-016
  -9.4699999999999993E-002    -1.2843990713135484E-016
  -9.3599999999999989E-002     3.9215259059577714E-016
  -9.2499999999999999E-002     5.3948947190813040E-016
  -9.1399999999999995E-002    -6.0574327731161850E-016
  -9.0299999999999991E-002    -1.6980233383172912E-015
  -8.9200000000000002E-002     1.2997302353099532E-016
  -8.8099999999999984E-002     3.8443742275944687E-015
  -8.6999999999999994E-002     2.7951547275888037E-015
  -8.5899999999999990E-002    -5.4413006896460517E-015
  -8.4799999999999986E-002    -9.5917485786649673E-015
  -8.3699999999999997E-002     2.5228135180140488E-015
  -8.2599999999999993E-002     1.8417215249069176E-014
  -8.1499999999999989E-002     8.2132600552490068E-015
  -8.0399999999999999E-002    -2.5318153606609939E-014
  -7.9299999999999995E-002    -2.8646833847125255E-014
  -7.8199999999999992E-002     2.6885410198585098E-014
  -7.7100000000000002E-002     6.7104572495490372E-014
  -7.5999999999999984E-002    -4.8575484522879638E-015
  -7.4899999999999994E-002    -1.2584705955283326E-013
  -7.3799999999999991E-002    -8.8558948043750141E-014
  -7.2699999999999987E-002     1.4607405725546724E-013
  -7.1599999999999997E-002     2.6607204937564854E-013
  -7.0499999999999993E-002    -1.4646019585919795E-014
  -6.9399999999999989E-002    -4.1285109554124733E-013
  -6.8300000000000000E-002    -2.8991373646376772E-013
  -6.7199999999999996E-002     3.7689483153337255E-013
  -6.6099999999999992E-002     6.6022843659210850E-013
  -6.5000000000000002E-002    -1.0487793901566012E-013
  -6.3899999999999985E-002    -1.0222490172059895E-012
  -6.2799999999999995E-002    -5.2546839492476072E-013
  -6.1699999999999991E-002     1.1612636850386049E-012
  -6.0599999999999994E-002     1.6429054297550927E-012
  -5.9499999999999990E-002    -4.3080353195369681E-013
  -5.8399999999999994E-002    -2.6582670526603680E-012
  -5.7299999999999990E-002    -1.4798601797108568E-012
  -5.6199999999999986E-002     2.3741848331065851E-012
  -5.5099999999999996E-002     3.6569857385371218E-012
  -5.3999999999999992E-002    -3.4670782412572765E-013
  -5.2899999999999989E-002    -4.7691820111162020E-012
  -5.1799999999999985E-002    -2.8353903426536764E-012
  -5.0699999999999995E-002     3.9462547812840754E-012
  -4.9599999999999991E-002     6.1618149818642998E-012
  -4.8499999999999988E-002    -6.3208211451351581E-013
  -4.7399999999999998E-002    -7.9607978195617157E-012
  -4.6299999999999994E-002    -4.8449191707156114E-012
  -4.5199999999999990E-002     5.9952416295305788E-012
  -4.4099999999999986E-002     1.0003288128390686E-011
  -4.2999999999999997E-002     7.0879570658946567E-013
  -4.1899999999999993E-002    -9.9521103164024183E-012
  -4.0799999999999989E-002    -7.5305178759421665E-012
  -3.9699999999999985E-002     4.1723174394603380E-012
  -3.8599999999999995E-002     8.2177606733346842E-012
  -3.7499999999999992E-002    -6.3655038271687170E-013
  -3.6399999999999988E-002    -8.0509314492882567E-012
  -3.5299999999999984E-002    -1.8639827095018324E-012
  -3.4199999999999994E-002     9.1500088755802622E-012
  -3.3099999999999991E-002     8.9033251257641943E-012
  -3.1999999999999987E-002    -8.5820510854067722E-013
  -3.0899999999999997E-002    -4.3729611945431124E-012
  -2.9799999999999993E-002     6.2954882192739481E-013
  -2.8699999999999989E-002    -1.9714479614768576E-012
  -2.7599999999999986E-002    -1.6761333640480380E-011
  -2.6499999999999996E-002    -2.0919059887103408E-011
  -2.5399999999999992E-002     2.9902512757584709E-012
  -2.4299999999999988E-002     3.0767388636832038E-011
  -2.3199999999999985E-002     2.1639650141236366E-011
  -2.2099999999999995E-002    -1.9670950632266759E-011
  -2.0999999999999991E-002    -3.8398579454979043E-011
  -1.9899999999999987E-002    -5.0765455207602006E-012
  -1.8799999999999983E-002     3.2657536397362463E-011
  -1.7699999999999994E-002     9.2001224347160182E-012
  -1.6599999999999990E-002    -5.9788091144596933E-011
  -1.5499999999999986E-002    -8.4349811857453716E-011
  -1.4399999999999996E-002    -1.9601972822691494E-011
  -1.3299999999999992E-002     6.4493244078533962E-011
  -1.2199999999999989E-002     6.8701586086739042E-011
  -1.1099999999999985E-002    -7.3295111299720439E-012
  -9.9999999999999950E-003    -7.1610294083424009E-011
  -8.8999999999999913E-003    -6.8366479144543746E-011
  -7.7999999999999875E-003    -4.3222536660891819E-011
  -6.6999999999999837E-003    -6.1215130187086686E-011
  -5.5999999999999939E-003    -1.0940999495279158E-010
  -4.4999999999999901E-003    -1.2941499261120981E-010
  -3.3999999999999864E-003    -1.1115008219375611E-010
  -2.2999999999999826E-003    -9.2272925411585049E-011
  -1.1999999999999927E-003    -8.1016152120305662E-011
  -9.9999999999988987E-005    -4.9094596443755023E-011
   1.0000000000000148E-003    -2.0956614915634830E-011
   2.1000000000000185E-003    -9.5562842361562872E-011
   3.2000000000000084E-003    -3.0176716681040716E-010
   4.3000000000000121E-003    -5.0211695912238952E-010
   5.4000000000000159E-003    -5.2112925086333917E-010
   6.5000000000000058E-003    -3.8861888707053538E-010
   7.6000000000000234E-003    -3.2303276720213603E-010
   8.7000000000000133E-003    -4.5493986355893412E-010
   9.8000000000000032E-003    -6.3008964712452098E-010
   1.0900000000000021E-002    -6.1058708089589686E-010
   1.2000000000000011E-002    -4.5556045047412397E-010
   1.3100000000000001E-002    -4.4468520532525702E-010
   1.4200000000000018E-002    -7.4391520721306392E-010
   1.5300000000000008E-002    -1.1825491696981771E-009
   1.6400000000000026E-002    -1.4833624328858264E-009
   1.7500000000000016E-002    -1.5417183085730812E-009
   1.8600000000000005E-002    -1.5323750046647433E-009
   1.9700000000000023E-002    -1.5498068384189878E-009
   2.0800000000000013E-002    -1.6195631502569086E-009
   2.1900000000000003E-002    -1.6688982418244791E-009
   2.3000000000000020E-002    -1.7512509220551919E-009
   2.4100000000000010E-002    -1.8880987884273281E-009
   2.5200000000000000E-002    -2.0609931539183890E-009
   2.6300000000000018E-002    -2.2234418750599616E-009
   2.7400000000000008E-002    -2.5099988754107017E-009
   2.8500000000000025E-002    -2.9651470168090555E-009
   2.9600000000000015E-002    -3.4519733738136438E-009
   3.0700000000000005E-002    -3.5020875088775938E-009
   3.1800000000000023E-002    -3.0949895979404118E-009
   3.2900000000000013E-002    -2.8972986232389530E-009
   3.4000000000000002E-002    -3.0446107857073912E-009
   3.5100000000000020E-002    -3.1758609075893673E-009
   3.6200000000000010E-002    -2.9152185110348228E-009
   3.7300000000000028E-002    -2.5826634164616280E-009
   3.8400000000000017E-002    -2.6556494781004858E-009
   3.9500000000000007E-002    -2.8143356534116037E-009
   4.0600000000000025E-002    -2.9694346981301578E-009
   4.1700000000000015E-002    -2.6661692853480190E-009
   4.2800000000000005E-002    -2.3359127965250082E-009
   4.3900000000000022E-002    -1.7777257443896133E-009
   4.5000000000000012E-002    -1.0107923387181472E-009
   4.6100000000000002E-002    -5.1640836051802808E-010
   4.7200000000000020E-002     4.4638420737541651E-010
   4.8300000000000010E-002     1.0891616497588075E-009
   4.9400000000000027E-002     2.1929713600599143E-009
   5.0500000000000017E-002     3.3768206009199275E-009
   5.1600000000000007E-002     3.9489602698949966E-009
   5.2700000000000025E-002     3.9429757237030572E-009
   5.3800000000000014E-002     4.5416066463133120E-009
   5.4900000000000004E-002     6.0396394552242327E-009
   5.6000000000000022E-002     7.6037176555132646E-009
   5.7100000000000012E-002     8.2504509890668487E-009
   5.8200000000000002E-002     9.5018419798975629E-009
   5.9300000000000019E-002     9.9620036664305189E-009
   6.0400000000000009E-002     1.0086050217239517E-008
   6.1500000000000027E-002     1.1188161508357553E-008
   6.2600000000000017E-002     1.3604072535144951E-008
   6.3700000000000007E-002     1.6057864371532560E-008
   6.4800000000000024E-002     1.5308314615936069E-008
   6.5900000000000014E-002     1.2648010638827145E-008
   6.7000000000000004E-002     1.2047000730319724E-008
   6.8100000000000022E-002     1.2690003714510567E-008
   6.9200000000000012E-002     1.5931975738681103E-008
   7.0300000000000029E-002     1.7182530953618880E-008
   7.1400000000000019E-002     1.5522083174346335E-008
   7.2500000000000009E-002     1.1506477548550720E-008
   7.3600000000000027E-002     8.5052276332930887E-009
   7.4700000000000016E-002     7.9427060484249523E-009
   7.5800000000000006E-002     9.9009662690718869E-009
   7.6900000000000024E-002     1.1870020522053437E-008
   7.8000000000000014E-002     1.0499838332123090E-008
   7.9100000000000004E-002     5.0145088081876565E-009
   8.0200000000000021E-002    -7.0329031487403881E-010
   8.1300000000000011E-002    -3.4176974583743913E-009
   8.2400000000000029E-002    -2.0487762597554138E-009
   8.3500000000000019E-002    -1.5542470088725224E-010
   8.4600000000000009E-002    -1.4508916290623119E-009
   8.5700000000000026E-002    -6.7813612503186960E-009
   8.6800000000000016E-002    -1.3608507209994514E-008
   8.7900000000000006E-002    -1.7473178459681549E-008
   8.9000000000000024E-002    -1.6202506003537565E-008
   9.0100000000000013E-002    -1.2104268698465148E-008
   9.1200000000000003E-002    -1.0267142691589015E-008
   9.2300000000000021E-002    -1.3931681586143441E-008
   9.3400000000000011E-002    -2.1651374026987469E-008
   9.4500000000000028E-002    -2.8110456185004296E-008
   9.5600000000000018E-002    -2.6573356848302865E-008
   9.6700000000000008E-002    -1.9425428376962373E-008
   9.7800000000000026E-002    -1.2748937017192929E-008
   9.8900000000000016E-002    -1.4495440403550219E-008
  0.10000000000000001         -2.1801989547043377E-008
  0.10110000000000002         -2.7799741175726922E-008
  0.10220000000000001         -2.4140447862919245E-008
  0.10330000000000003         -1.5375812623119600E-008
  0.10440000000000002         -8.3639735137808202E-009
  0.10550000000000001         -9.2403320550715762E-009
  0.10660000000000003         -1.4836972539455928E-008
  0.10770000000000002         -1.8279017410804954E-008
  0.10880000000000001         -1.5391160346212018E-008
  0.10990000000000003         -7.3683885659647785E-009
  0.11100000000000002          2.3988242503492074E-009
  0.11210000000000001          7.5767365714796142E-009
  0.11320000000000002          3.6658447388759896E-009
  0.11430000000000001         -4.4045904701306426E-009
  0.11540000000000003         -8.6482083716532543E-009
  0.11650000000000002         -1.9586878785560202E-009
  0.11760000000000001          1.4036130480121756E-008
  0.11870000000000003          2.2556228884695884E-008
  0.11980000000000002          1.6128366198131516E-008
  0.12090000000000001          2.1838992836364923E-009
  0.12200000000000003         -3.0715161525307622E-009
  0.12310000000000001          6.7488894472944594E-009
  0.12420000000000003          2.0009776946494640E-008
  0.12530000000000002          2.4306514134764257E-008
  0.12640000000000001          1.8366518972356971E-008
  0.12750000000000003          9.2155492126266836E-009
  0.12860000000000002          4.3737435895252474E-009
  0.12970000000000001          5.0338013757311728E-009
  0.13080000000000003          1.0329323174573801E-008
  0.13190000000000002          1.6157136073502443E-008
  0.13300000000000001          1.9088755465190843E-008
  0.13410000000000000          1.4169640571992659E-008
  0.13520000000000004          2.5115700630351512E-009
  0.13630000000000003         -5.9681668496125440E-009
  0.13740000000000002         -1.4701233563840788E-009
  0.13850000000000001          1.2363048362828977E-008
  0.13960000000000000          2.0107599141283572E-008
  0.14070000000000005          1.2090870527003972E-008
  0.14180000000000004         -3.5089160466128533E-009
  0.14290000000000003         -1.0584119358725275E-008
  0.14400000000000002         -4.4437329371760370E-009
  0.14510000000000001          5.3719322323786400E-009
  0.14620000000000000          7.9561441879150152E-009
  0.14730000000000004          3.0545672657922296E-009
  0.14840000000000003         -2.3019812722679944E-009
  0.14950000000000002         -5.0626978165269065E-009
  0.15060000000000001         -7.4643953240638439E-009
  0.15170000000000000         -8.4525932919632396E-009
  0.15280000000000005         -3.0153231023177796E-009
  0.15390000000000004          6.7184942054154817E-009
  0.15500000000000003          1.0237892311693031E-008
  0.15610000000000002         -7.1177425065016564E-011
  0.15720000000000001         -1.5031716316116217E-008
  0.15830000000000000         -1.7036908772638526E-008
  0.15940000000000004         -3.4050575692390339E-009
  0.16050000000000003          9.6629699797290414E-009
  0.16160000000000002          7.7552524402335621E-009
  0.16270000000000001         -4.2614631823312266E-009
  0.16380000000000000         -1.0900414793013624E-008
  0.16490000000000005         -6.7711103390877270E-009
  0.16600000000000004         -6.4079269668226857E-010
  0.16710000000000003          4.9984927308344140E-010
  0.16820000000000002          1.0344942263929013E-010
  0.16930000000000001          2.3743260690878287E-009
  0.17040000000000000          2.5815520832139782E-009
  0.17150000000000004         -4.9966319970451423E-009
  0.17260000000000003         -1.2947715788413916E-008
  0.17370000000000002         -8.4905709130111973E-009
  0.17480000000000001          7.0769354820754415E-009
  0.17590000000000000          1.5084719251490242E-008
  0.17700000000000005          3.8843603888949474E-009
  0.17810000000000004         -1.3631103357170105E-008
  0.17920000000000003         -1.5269522535277247E-008
  0.18030000000000002          6.8079525350484005E-010
  0.18140000000000001          1.3509546370471526E-008
  0.18250000000000000          8.7303444473718628E-009
  0.18360000000000004         -3.8326186668768969E-009
  0.18470000000000003         -7.0684458286507379E-009
  0.18580000000000002         -2.6397123376042941E-010
  0.18690000000000001          3.1189444360535390E-009
  0.18800000000000000         -1.3763558071033799E-009
  0.18910000000000005         -3.6228104960400742E-009
  0.19020000000000004          2.4618633798212386E-009
  0.19130000000000003          6.9544356939843510E-009
  0.19240000000000002         -1.4190642584621660E-011
  0.19350000000000001         -9.6606909139040908E-009
  0.19460000000000005         -5.7217137694465237E-009
  0.19570000000000004          9.1610203867276141E-009
  0.19680000000000003          1.4164470485411584E-008
  0.19790000000000002          9.4133589811917773E-011
  0.19900000000000001         -1.5198025948848226E-008
  0.20010000000000000         -1.0797582383759163E-008
  0.20120000000000005          6.9450156736650115E-009
  0.20230000000000004          1.3532507558977613E-008
  0.20340000000000003          1.3002198206990556E-009
  0.20450000000000002         -1.0663776528474500E-008
  0.20560000000000000         -5.5112394647949259E-009
  0.20670000000000005          7.0936265750276561E-009
  0.20780000000000004          7.5415664824163287E-009
  0.20890000000000003         -3.5455158808872511E-009
