 -0.12000000000000000          0.0000000000000000
 -0.11889999999999999          0.0000000000000000
 -0.11780000000000000          0.0000000000000000
 -0.11670000000000000          1.2546763107634806E-011
 -0.11559999999999999          1.3697711367943732E-011
 -0.11449999999999999         -3.8519888667654101E-011
 -0.11340000000000000         -6.0437016502490337E-011
 -0.11230000000000000          8.1728214473830718E-011
 -0.11119999999999999          2.1664814386923581E-010
 -0.11009999999999999         -3.4040596730289252E-011
 -0.10900000000000000         -4.8208065317467685E-010
 -0.10790000000000000         -2.7206731312290344E-010
 -0.10679999999999999          7.1667344281323153E-010
 -0.10569999999999999          1.0246072879027679E-009
 -0.10460000000000000         -4.2161374391724848E-010
 -0.10349999999999999         -1.8818482327986885E-009
 -0.10239999999999999         -6.0493343667644695E-010
 -0.10130000000000000          2.4258650643815827E-009
 -0.10020000000000000          2.5024655680994101E-009
  -9.9099999999999994E-002    -1.8537364976367599E-009
  -9.7999999999999990E-002    -4.8300967669945294E-009
  -9.6899999999999986E-002    -6.5601379883872823E-010
  -9.5799999999999996E-002     6.4044045622324575E-009
  -9.4699999999999993E-002     5.8165889882388910E-009
  -9.3599999999999989E-002    -3.7803649099998893E-009
  -9.2499999999999999E-002    -9.8755350563806132E-009
  -9.1399999999999995E-002    -2.5646724743921823E-009
  -9.0299999999999991E-002     9.5435108704577942E-009
  -8.9200000000000002E-002     9.3253875732557390E-009
  -8.8099999999999984E-002    -4.2171026670700940E-009
  -8.6999999999999994E-002    -1.2694454376571684E-008
  -8.5899999999999990E-002    -3.9121625938776106E-009
  -8.4799999999999986E-002     9.9854435831048249E-009
  -8.3699999999999997E-002     9.7388079822735563E-009
  -8.2599999999999993E-002    -2.9504445553385494E-009
  -8.1499999999999989E-002    -8.7991400832265754E-009
  -8.0399999999999999E-002    -8.1161882770075522E-010
  -7.9299999999999995E-002     5.8463021090915390E-009
  -7.8199999999999992E-002    -3.1166291769579857E-010
  -7.7100000000000002E-002    -7.3378534359846981E-009
  -7.5999999999999984E-002     2.6067440307003809E-012
  -7.4899999999999994E-002     1.1607259153834093E-008
  -7.3799999999999991E-002     4.7749653120376934E-009
  -7.2699999999999987E-002    -1.6708000316612015E-008
  -7.1599999999999997E-002    -2.0921376631122257E-008
  -7.0499999999999993E-002     5.0175761323600909E-009
  -6.9399999999999989E-002     2.8317584721548883E-008
  -6.8300000000000000E-002     1.2552283656930285E-008
  -6.7199999999999996E-002    -2.6888463011687236E-008
  -6.6099999999999992E-002    -3.8679257130525002E-008
  -6.5000000000000002E-002    -6.8551542220518513E-009
  -6.3899999999999985E-002     2.4598611148007876E-008
  -6.2799999999999995E-002     1.2654564507386112E-008
  -6.1699999999999991E-002    -2.5248594326399143E-008
  -6.0599999999999994E-002    -3.9291585096634662E-008
  -5.9499999999999990E-002    -1.9410153484500370E-008
  -5.8399999999999994E-002    -3.7977163636071509E-009
  -5.7299999999999990E-002    -1.5915663453824891E-008
  -5.6199999999999986E-002    -3.1356048424413530E-008
  -5.5099999999999996E-002    -2.4918396235307227E-008
  -5.3999999999999992E-002    -1.7667669993670643E-008
  -5.2899999999999989E-002    -4.2300264624373085E-008
  -5.1799999999999985E-002    -8.0383536271710909E-008
  -5.0699999999999995E-002    -7.9860299706524529E-008
  -4.9599999999999991E-002    -3.7813578046552720E-008
  -4.8499999999999988E-002    -1.9334718714958399E-008
  -4.7399999999999998E-002    -6.9043757378040027E-008
  -4.6299999999999994E-002    -1.3947962429483596E-007
  -4.5199999999999990E-002    -1.5016995291716739E-007
  -4.4099999999999986E-002    -1.0024763241744949E-007
  -4.2999999999999997E-002    -7.1607423990371899E-008
  -4.1899999999999993E-002    -1.1483549400281845E-007
  -4.0799999999999989E-002    -1.8238506527268328E-007
  -3.9699999999999985E-002    -2.0372689846226422E-007
  -3.8599999999999995E-002    -1.8455594386068697E-007
  -3.7499999999999992E-002    -1.8541034307872906E-007
  -3.6399999999999988E-002    -2.2232156027257588E-007
  -3.5299999999999984E-002    -2.4812757715153566E-007
  -3.4199999999999994E-002    -2.3917490921121498E-007
  -3.3099999999999991E-002    -2.4114100938277261E-007
  -3.1999999999999987E-002    -2.9350266572691908E-007
  -3.0899999999999997E-002    -3.5240782381151803E-007
  -2.9799999999999993E-002    -3.4678424754019943E-007
  -2.8699999999999989E-002    -2.9020611691521481E-007
  -2.7599999999999986E-002    -2.7517043577063305E-007
  -2.6499999999999996E-002    -3.4213570643260027E-007
  -2.5399999999999992E-002    -4.1482653045932238E-007
  -2.4299999999999988E-002    -4.0529283751311596E-007
  -2.3199999999999985E-002    -3.3612784022807318E-007
  -2.2099999999999995E-002    -3.0349946200658451E-007
  -2.0999999999999991E-002    -3.3654134767857613E-007
  -1.9899999999999987E-002    -3.6625277743951301E-007
  -1.8799999999999983E-002    -3.3378424291186093E-007
  -1.7699999999999994E-002    -2.7622689913187060E-007
  -1.6599999999999990E-002    -2.5727987917889550E-007
  -1.5499999999999986E-002    -2.6014041054622794E-007
  -1.4399999999999996E-002    -2.1584932596852013E-007
  -1.3299999999999992E-002    -1.2202750099277182E-007
  -1.2199999999999989E-002    -5.4935224369501157E-008
  -1.1099999999999985E-002    -5.3011195433327885E-008
  -9.9999999999999950E-003    -4.7279502979336030E-008
  -8.8999999999999913E-003     4.1310045162390452E-008
  -7.7999999999999875E-003     1.8241615862280014E-007
  -6.6999999999999837E-003     2.7584940198721597E-007
  -5.5999999999999939E-003     2.9361589781728981E-007
  -4.4999999999999901E-003     3.1871903161118098E-007
  -3.3999999999999864E-003     4.1583993493077287E-007
  -2.2999999999999826E-003     5.4321833431458799E-007
  -1.1999999999999927E-003     6.2487055174642592E-007
  -9.9999999999988987E-005     6.5861092934937915E-007
   1.0000000000000148E-003     7.1396686962543754E-007
   2.1000000000000185E-003     8.1265869766866672E-007
   3.2000000000000084E-003     8.9799908664645045E-007
   4.3000000000000121E-003     9.2332106760295574E-007
   5.4000000000000159E-003     9.2937261797487736E-007
   6.5000000000000058E-003     9.8005614290741505E-007
   7.6000000000000234E-003     1.0593504384814878E-006
   8.7000000000000133E-003     1.0879938372454490E-006
   9.8000000000000032E-003     1.0440780897624791E-006
   1.0900000000000021E-002     1.0001803047998692E-006
   1.2000000000000011E-002     1.0124134632860660E-006
   1.3100000000000001E-002     1.0358232884755125E-006
   1.4200000000000018E-002     9.9452950053091627E-007
   1.5300000000000008E-002     8.9409917336524813E-007
   1.6400000000000026E-002     8.0917203604258248E-007
   1.7500000000000016E-002     7.7030364309393917E-007
   1.8600000000000005E-002     7.2179716426035156E-007
   1.9700000000000023E-002     6.1327796174737159E-007
   2.0800000000000013E-002     4.7648137524447520E-007
   2.1900000000000003E-002     3.7359643556555966E-007
   2.3000000000000020E-002     3.0186708954715868E-007
   2.4100000000000010E-002     2.0472232620249997E-007
   2.5200000000000000E-002     6.3693825325117359E-008
   2.6300000000000018E-002    -7.0896625459226925E-008
   2.7400000000000008E-002    -1.6064616659150488E-007
   2.8500000000000025E-002    -2.3626738254733937E-007
   2.9600000000000015E-002    -3.4569990248201066E-007
   3.0700000000000005E-002    -4.7945309233909938E-007
   3.1800000000000023E-002    -5.7596014357841341E-007
   3.2900000000000013E-002    -6.2186239802031196E-007
   3.4000000000000002E-002    -6.6295393708060146E-007
   3.5100000000000020E-002    -7.3606418027338805E-007
   3.6200000000000010E-002    -8.1540622431930387E-007
   3.7300000000000028E-002    -8.5220028722687857E-007
   3.8400000000000017E-002    -8.5077516587261925E-007
   3.9500000000000007E-002    -8.5288769469116232E-007
   4.0600000000000025E-002    -8.6949057731544599E-007
   4.1700000000000015E-002    -8.7191307329703704E-007
   4.2800000000000005E-002    -8.4354206819625688E-007
   4.3900000000000022E-002    -7.9978303801908623E-007
   4.5000000000000012E-002    -7.6989664421489579E-007
   4.6100000000000002E-002    -7.3654837251524441E-007
   4.7200000000000020E-002    -6.7706304207604262E-007
   4.8300000000000010E-002    -6.0061461226723623E-007
   4.9400000000000027E-002    -5.3352704298958997E-007
   5.0500000000000017E-002    -4.8346026915169205E-007
   5.1600000000000007E-002    -4.2634215446923918E-007
   5.2700000000000025E-002    -3.5357024330551212E-007
   5.3800000000000014E-002    -2.7777224431702052E-007
   5.4900000000000004E-002    -2.1106897918343748E-007
   5.6000000000000022E-002    -1.4855845620331820E-007
   5.7100000000000012E-002    -8.1643790394991811E-008
   5.8200000000000002E-002    -2.3479767463641110E-008
   5.9300000000000019E-002     1.8945103263945384E-008
   6.0400000000000009E-002     5.4949975236695536E-008
   6.1500000000000027E-002     1.0351971013733419E-007
   6.2600000000000017E-002     1.5743239600851666E-007
   6.3700000000000007E-002     1.9129967654407665E-007
   6.4800000000000024E-002     2.0054547178460780E-007
   6.5900000000000014E-002     2.0897917352158402E-007
   6.7000000000000004E-002     2.3213718236547720E-007
   6.8100000000000022E-002     2.5030513484125549E-007
   6.9200000000000012E-002     2.4397175479862199E-007
   7.0300000000000029E-002     2.2971450164277485E-007
   7.1400000000000019E-002     2.3753906930323865E-007
   7.2500000000000009E-002     2.5663337055448210E-007
   7.3600000000000027E-002     2.4521898467355641E-007
   7.4700000000000016E-002     1.9600413736498012E-007
   7.5800000000000006E-002     1.5753916215999197E-007
   7.6900000000000024E-002     1.6696085936018790E-007
   7.8000000000000014E-002     1.9114098392947199E-007
   7.9100000000000004E-002     1.7264100904412771E-007
   8.0200000000000021E-002     1.1372672048537424E-007
   8.1300000000000011E-002     7.4390754889464006E-008
   8.2400000000000029E-002     8.1248643368780904E-008
   8.3500000000000019E-002     9.0377191952484282E-008
   8.4600000000000009E-002     6.0865403384013916E-008
   8.5700000000000026E-002     2.0487743057628904E-008
   8.6800000000000016E-002     2.0345135354205013E-008
   8.7900000000000006E-002     4.5449997543300924E-008
   8.9000000000000024E-002     3.1171371261962122E-008
   9.0100000000000013E-002    -3.1507504161254474E-008
   9.1200000000000003E-002    -6.7703922468353994E-008
   9.2300000000000021E-002    -2.7444089667483240E-008
   9.3400000000000011E-002     2.8703761145720819E-008
   9.4500000000000028E-002     1.3801309428629338E-008
   9.5600000000000018E-002    -5.8300713590142550E-008
   9.6700000000000008E-002    -8.9818612991621194E-008
   9.7800000000000026E-002    -4.3038767216785345E-008
   9.8900000000000016E-002     5.0600106327181038E-009
  0.10000000000000001         -1.6887911513663312E-008
  0.10110000000000002         -6.7540341319727304E-008
  0.10220000000000001         -6.1655988758957392E-008
  0.10330000000000003         -6.4757230688883283E-009
  0.10440000000000002          7.4143957640160352E-009
  0.10550000000000001         -4.7546539150289391E-008
  0.10660000000000003         -8.4265145972040045E-008
  0.10770000000000002         -3.5106666018691612E-008
  0.10880000000000001          3.7468765867743059E-008
  0.10990000000000003          2.7616435360755531E-008
  0.11100000000000002         -5.1118060895305462E-008
  0.11210000000000001         -8.2155864333799400E-008
  0.11320000000000002         -1.9272540896508872E-008
  0.11430000000000001          4.3828990214933583E-008
  0.11540000000000003          1.6602468733140086E-008
  0.11650000000000002         -5.0853451227794721E-008
  0.11760000000000001         -4.7942311454107767E-008
  0.11870000000000003          2.2054049253483754E-008
  0.11980000000000002          4.7048246187841869E-008
  0.12090000000000001         -1.6346655584698055E-008
  0.12200000000000003         -6.9177509942619508E-008
  0.12310000000000001         -2.1855196763453932E-008
  0.12420000000000003          6.2313290527526988E-008
  0.12530000000000002          5.8194050467363923E-008
  0.12640000000000001         -3.0988765331585455E-008
  0.12750000000000003         -7.4673465633168234E-008
  0.12860000000000002         -1.0797861271782949E-008
  0.12970000000000001          6.2534383005186100E-008
  0.13080000000000003          3.7621973092427652E-008
  0.13190000000000002         -4.0053485861335503E-008
  0.13300000000000001         -4.6648246154745721E-008
  0.13410000000000000          2.5944517645370979E-008
  0.13520000000000004          5.9439660304860809E-008
  0.13630000000000003         -3.5140854670601129E-009
  0.13740000000000002         -6.5646865721191716E-008
  0.13850000000000001         -2.5539703685240056E-008
  0.13960000000000000          6.1314658239552955E-008
  0.14070000000000005          6.2594189387255028E-008
  0.14180000000000004         -2.8075875846411691E-008
  0.14290000000000003         -7.7984878998904605E-008
  0.14400000000000002         -1.4265403081026307E-008
  0.14510000000000001          6.6827361422383547E-008
  0.14620000000000000          4.7198000174830668E-008
  0.14730000000000004         -3.6551870863377189E-008
  0.14840000000000003         -5.4911790670075789E-008
  0.14950000000000002          1.4345040710850299E-008
  0.15060000000000001          5.6375895951532584E-008
  0.15170000000000000          2.2572683722188458E-009
  0.15280000000000005         -6.2258116884095216E-008
  0.15390000000000004         -3.1244415055198260E-008
  0.15500000000000003          5.3301977942510348E-008
  0.15610000000000002          6.2721831284306973E-008
  0.15720000000000001         -2.0507513909251429E-008
  0.15830000000000000         -7.3390488353197725E-008
  0.15940000000000004         -1.7815091624129309E-008
  0.16050000000000003          6.2086002117212047E-008
  0.16160000000000002          4.8840934852023565E-008
  0.16270000000000001         -3.2650266490463764E-008
  0.16380000000000000         -5.8175665174076130E-008
  0.16490000000000005          5.1534065903524606E-009
  0.16600000000000004          5.4492538481554220E-008
  0.16710000000000003          1.4424054839423661E-008
  0.16820000000000002         -4.7762842569909481E-008
  0.16930000000000001         -3.1011019530069461E-008
  0.17040000000000000          4.0024556113849030E-008
  0.17150000000000004          5.3218172979541123E-008
  0.17260000000000003         -1.5889087379150624E-008
  0.17370000000000002         -6.4377012165550695E-008
  0.17480000000000001         -1.8741928897725302E-008
  0.17590000000000000          5.3210747807952430E-008
  0.17700000000000005          4.5705213835844916E-008
  0.17810000000000004         -2.6368836003598517E-008
  0.17920000000000003         -5.4079585254385165E-008
  0.18030000000000002         -6.7837402362158628E-010
  0.18140000000000001          4.7592969565357635E-008
  0.18250000000000000          1.8010419822189760E-008
  0.18360000000000004         -3.9408426744103053E-008
  0.18470000000000003         -3.3778359664893287E-008
  0.18580000000000002          2.5172882445190226E-008
  0.18690000000000001          4.4885243966064081E-008
  0.18800000000000000         -5.4607971478048967E-009
  0.18910000000000005         -4.8226841187215541E-008
  0.19020000000000004         -1.7975679611481610E-008
  0.19130000000000003          3.8965154658399115E-008
  0.19240000000000002          3.7093133897769803E-008
  0.19350000000000001         -1.8505456722550662E-008
  0.19460000000000005         -4.3188926213133527E-008
  0.19570000000000004         -2.6196342872708556E-009
  0.19680000000000003          3.8683626968349927E-008
  0.19790000000000002          1.9240035342704687E-008
  0.19900000000000001         -2.7478289865712213E-008
  0.20010000000000000         -2.8803263774079824E-008
  0.20120000000000005          1.5225275262764626E-008
  0.20230000000000004          3.5617158999912135E-008
  0.20340000000000003          2.3582591435200584E-009
  0.20450000000000002         -3.2036229669074601E-008
  0.20560000000000000         -1.5982219991883539E-008
  0.20670000000000005          2.3194926868086441E-008
  0.20780000000000004          2.4486888960950637E-008
  0.20890000000000003         -1.2756165901350869E-008
