 -0.12000000000000000          0.0000000000000000
 -0.11889999999999999          0.0000000000000000
 -0.11780000000000000          0.0000000000000000
 -0.11670000000000000          1.2546758770826116E-011
 -0.11559999999999999          1.8168402546314688E-011
 -0.11449999999999999         -2.8160881612726563E-011
 -0.11340000000000000         -7.4961550855512371E-011
 -0.11230000000000000         -7.1864558574830095E-012
 -0.11119999999999999          9.8632872702619778E-011
 -0.11009999999999999          3.4899878126326556E-011
 -0.10900000000000000         -4.0868759765277929E-011
 -0.10790000000000000          3.0829411246102723E-010
 -0.10679999999999999          7.4258349469502605E-010
 -0.10569999999999999         -4.0189275518631717E-011
 -0.10460000000000000         -2.2186257275791377E-009
 -0.10349999999999999         -3.2006566286213456E-009
 -0.10239999999999999         -2.7628863086270883E-010
 -0.10130000000000000          4.7190180652023628E-009
 -0.10020000000000000          6.1720073496474015E-009
  -9.9099999999999994E-002     1.9703458864483991E-009
  -9.7999999999999990E-002    -2.6980135903187374E-009
  -9.6899999999999986E-002    -2.4106245888333433E-009
  -9.5799999999999996E-002    -3.5083197458263271E-010
  -9.4699999999999993E-002    -4.1651797566544246E-009
  -9.3599999999999989E-002    -1.2471423005422366E-008
  -9.2499999999999999E-002    -1.2972203755623468E-008
  -9.1399999999999995E-002     9.2079721625282218E-010
  -9.0299999999999991E-002     1.7741406566074147E-008
  -8.9200000000000002E-002     2.1626499702165347E-008
  -8.8099999999999984E-002     1.6275816250299613E-008
  -8.6999999999999994E-002     2.3412772165443130E-008
  -8.5899999999999990E-002     5.3338819583359509E-008
  -8.4799999999999986E-002     8.8167261935723218E-008
  -8.3699999999999997E-002     1.0448648879446409E-007
  -8.2599999999999993E-002     1.0566866848193968E-007
  -8.1499999999999989E-002     1.1758098850123133E-007
  -8.0399999999999999E-002     1.5362556382569892E-007
  -7.9299999999999995E-002     2.0025740354867594E-007
  -7.8199999999999992E-002     2.4293791511809104E-007
  -7.7100000000000002E-002     2.9085032338116434E-007
  -7.5999999999999984E-002     3.6206080267220386E-007
  -7.4899999999999994E-002     4.5507721324611339E-007
  -7.3799999999999991E-002     5.5578095725650201E-007
  -7.2699999999999987E-002     6.7041577267445973E-007
  -7.1599999999999997E-002     8.2784623600673513E-007
  -7.0499999999999993E-002     1.0399921848147642E-006
  -6.9399999999999989E-002     1.2819215271520079E-006
  -6.8300000000000000E-002     1.5320074453484267E-006
  -6.7199999999999996E-002     1.8184359760198276E-006
  -6.6099999999999992E-002     2.1972234662825940E-006
  -6.5000000000000002E-002     2.6851050733966986E-006
  -6.3899999999999985E-002     3.2458583518746309E-006
  -6.2799999999999995E-002     3.8575499274884351E-006
  -6.1699999999999991E-002     4.5664883145946078E-006
  -6.0599999999999994E-002     5.4460442697745748E-006
  -5.9499999999999990E-002     6.5167396314791404E-006
  -5.8399999999999994E-002     7.7444037742679939E-006
  -5.7299999999999990E-002     9.1200690803816542E-006
  -5.6199999999999986E-002     1.0704524356697220E-005
  -5.5099999999999996E-002     1.2574140782817267E-005
  -5.3999999999999992E-002     1.4752471543033607E-005
  -5.2899999999999989E-002     1.7229824152309448E-005
  -5.1799999999999985E-002     2.0034744011354633E-005
  -5.0699999999999995E-002     2.3242802853928879E-005
  -4.9599999999999991E-002     2.6911926397588104E-005
  -4.8499999999999988E-002     3.1053095881361514E-005
  -4.7399999999999998E-002     3.5688692150870338E-005
  -4.6299999999999994E-002     4.0903018089011312E-005
  -4.5199999999999990E-002     4.6792054490651935E-005
  -4.4099999999999986E-002     5.3380324970930815E-005
  -4.2999999999999997E-002     6.0640719311777502E-005
  -4.1899999999999993E-002     6.8603236286435276E-005
  -4.0799999999999989E-002     7.7392454841174185E-005
  -3.9699999999999985E-002     8.7123815319500864E-005
  -3.8599999999999995E-002     9.7799063951242715E-005
  -3.7499999999999992E-002     1.0935119644273072E-004
  -3.6399999999999988E-002     1.2177730241091922E-004
  -3.5299999999999984E-002     1.3516777835320681E-004
  -3.4199999999999994E-002     1.4959412510506809E-004
  -3.3099999999999991E-002     1.6501900972798467E-004
  -3.1999999999999987E-002     1.8135122081730515E-004
  -3.0899999999999997E-002     1.9854694255627692E-004
  -2.9799999999999993E-002     2.1659897174686193E-004
  -2.8699999999999989E-002     2.3543843417428434E-004
  -2.7599999999999986E-002     2.5491451378911734E-004
  -2.6499999999999996E-002     2.7488204068504274E-004
  -2.5399999999999992E-002     2.9525154968723655E-004
  -2.4299999999999988E-002     3.1590281287208200E-004
  -2.3199999999999985E-002     3.3658990287221968E-004
  -2.2099999999999995E-002     3.5699273576028645E-004
  -2.0999999999999991E-002     3.7685193819925189E-004
  -1.9899999999999987E-002     3.9598534931428730E-004
  -1.8799999999999983E-002     4.1415411396883428E-004
  -1.7699999999999994E-002     4.3097362504340708E-004
  -1.6599999999999990E-002     4.4600464752875268E-004
  -1.5499999999999986E-002     4.5889290049672127E-004
  -1.4399999999999996E-002     4.6935238060541451E-004
  -1.3299999999999992E-002     4.7703323070891201E-004
  -1.2199999999999989E-002     4.8148780479095876E-004
  -1.1099999999999985E-002     4.8228437663055956E-004
  -9.9999999999999950E-003     4.7909832210280001E-004
  -8.8999999999999913E-003     4.7165047726593912E-004
  -7.7999999999999875E-003     4.5959724229760468E-004
  -6.6999999999999837E-003     4.4255855027586222E-004
  -5.5999999999999939E-003     4.2025456787087023E-004
  -4.4999999999999901E-003     3.9255485171452165E-004
  -3.3999999999999864E-003     3.5936842323280871E-004
  -2.2999999999999826E-003     3.2056649797596037E-004
  -1.1999999999999927E-003     2.7604901697486639E-004
  -9.9999999999988987E-005     2.2586887644138187E-004
   1.0000000000000148E-003     1.7023029795382172E-004
   2.1000000000000185E-003     1.0937470506178215E-004
   3.2000000000000084E-003     4.3546569941099733E-005
   4.3000000000000121E-003    -2.6915649868897162E-005
   5.4000000000000159E-003    -1.0149402805836871E-004
   6.5000000000000058E-003    -1.7956226656679064E-004
   7.6000000000000234E-003    -2.6049866573885083E-004
   8.7000000000000133E-003    -3.4367226180620492E-004
   9.8000000000000032E-003    -4.2832619510591030E-004
   1.0900000000000021E-002    -5.1355065079405904E-004
   1.2000000000000011E-002    -5.9838959714397788E-004
   1.3100000000000001E-002    -6.8194256164133549E-004
   1.4200000000000018E-002    -7.6333153992891312E-004
   1.5300000000000008E-002    -8.4160233382135630E-004
   1.6400000000000026E-002    -9.1573689132928848E-004
   1.7500000000000016E-002    -9.8476104903966188E-004
   1.8600000000000005E-002    -1.0478063486516476E-003
   1.9700000000000023E-002    -1.1040553217753768E-003
   2.0800000000000013E-002    -1.1526873568072915E-003
   2.1900000000000003E-002    -1.1929362080991268E-003
   2.3000000000000020E-002    -1.2241866206750274E-003
   2.4100000000000010E-002    -1.2459823628887534E-003
   2.5200000000000000E-002    -1.2579455506056547E-003
   2.6300000000000018E-002    -1.2597431195899844E-003
   2.7400000000000008E-002    -1.2511668028309941E-003
   2.8500000000000025E-002    -1.2322104303166270E-003
   2.9600000000000015E-002    -1.2030481593683362E-003
   3.0700000000000005E-002    -1.1639430886134505E-003
   3.1800000000000023E-002    -1.1152422521263361E-003
   3.2900000000000013E-002    -1.0574270272627473E-003
   3.4000000000000002E-002    -9.9113851319998503E-004
   3.5100000000000020E-002    -9.1713218716904521E-004
   3.6200000000000010E-002    -8.3622441161423922E-004
   3.7300000000000028E-002    -7.4930483242496848E-004
   3.8400000000000017E-002    -6.5737223485484719E-004
   3.9500000000000007E-002    -5.6149682495743036E-004
   4.0600000000000025E-002    -4.6276097418740392E-004
   4.1700000000000015E-002    -3.6222112248651683E-004
   4.2800000000000005E-002    -2.6094974600709975E-004
   4.3900000000000022E-002    -1.6003960627131164E-004
   4.5000000000000012E-002    -6.0569735069293529E-005
   4.6100000000000002E-002     3.6438159440876916E-005
   4.7200000000000020E-002     1.3004217180423439E-004
   4.8300000000000010E-002     2.1937685960438102E-004
   4.9400000000000027E-002     3.0366767896339297E-004
   5.0500000000000017E-002     3.8222255534492433E-004
   5.1600000000000007E-002     4.5443276758305728E-004
   5.2700000000000025E-002     5.1978876581415534E-004
   5.3800000000000014E-002     5.7789136189967394E-004
   5.4900000000000004E-002     6.2847288791090250E-004
   5.6000000000000022E-002     6.7138706799596548E-004
   5.7100000000000012E-002     7.0657307514920831E-004
   5.8200000000000002E-002     7.3406181763857603E-004
   5.9300000000000019E-002     7.5398513581603765E-004
   6.0400000000000009E-002     7.6657807221636176E-004
   6.1500000000000027E-002     7.7214604243636131E-004
   6.2600000000000017E-002     7.7104609226807952E-004
   6.3700000000000007E-002     7.6370406895875931E-004
   6.4800000000000024E-002     7.5063254917040467E-004
   6.5900000000000014E-002     7.3239591438323259E-004
   6.7000000000000004E-002     7.0954574039205909E-004
   6.8100000000000022E-002     6.8261352134868503E-004
   6.9200000000000012E-002     6.5216247458010912E-004
   7.0300000000000029E-002     6.1881192959845066E-004
   7.1400000000000019E-002     5.8318051742389798E-004
   7.2500000000000009E-002     5.4581509903073311E-004
   7.3600000000000027E-002     5.0720589933916926E-004
   7.4700000000000016E-002     4.6785530867055058E-004
   7.5800000000000006E-002     4.2828085133805871E-004
   7.6900000000000024E-002     3.8893573218956590E-004
   7.8000000000000014E-002     3.5016494803130627E-004
   7.9100000000000004E-002     3.1227062572725117E-004
   8.0200000000000021E-002     2.7558833244256675E-004
   8.1300000000000011E-002     2.4044752353802323E-004
   8.2400000000000029E-002     2.0706413488369435E-004
   8.3500000000000019E-002     1.7553234647493809E-004
   8.4600000000000009E-002     1.4593692321795970E-004
   8.5700000000000026E-002     1.1842047388199717E-004
   8.6800000000000016E-002     9.3104870757088065E-005
   8.7900000000000006E-002     6.9992667704354972E-005
   8.9000000000000024E-002     4.9000933358911425E-005
   9.0100000000000013E-002     3.0087834602454677E-005
   9.1200000000000003E-002     1.3272022442833986E-005
   9.2300000000000021E-002    -1.4838641391179408E-006
   9.3400000000000011E-002    -1.4341202586365398E-005
   9.4500000000000028E-002    -2.5481303964625113E-005
   9.5600000000000018E-002    -3.4977274481207132E-005
   9.6700000000000008E-002    -4.2840438254643232E-005
   9.7800000000000026E-002    -4.9179732741322368E-005
   9.8900000000000016E-002    -5.4226620704866946E-005
  0.10000000000000001         -5.8183166402159259E-005
  0.10110000000000002         -6.1108978115953505E-005
  0.10220000000000001         -6.3018676883075386E-005
  0.10330000000000003         -6.4034262322820723E-005
  0.10440000000000002         -6.4363601268269122E-005
  0.10550000000000001         -6.4140876929741353E-005
  0.10660000000000003         -6.3378975028172135E-005
  0.10770000000000002         -6.2108221754897386E-005
  0.10880000000000001         -6.0476268117781729E-005
  0.10990000000000003         -5.8645793615141883E-005
  0.11100000000000002         -5.6640939874341711E-005
  0.11210000000000001         -5.4395415645558387E-005
  0.11320000000000002         -5.1941267884103581E-005
  0.11430000000000001         -4.9448557547293603E-005
  0.11540000000000003         -4.7045137762324885E-005
  0.11650000000000002         -4.4681535655399784E-005
  0.11760000000000001         -4.2247749661328271E-005
  0.11870000000000003         -3.9772225136402994E-005
  0.11980000000000002         -3.7405498005682603E-005
  0.12090000000000001         -3.5218490666011348E-005
  0.12200000000000003         -3.3124211768154055E-005
  0.12310000000000001         -3.1036055588629097E-005
  0.12420000000000003         -2.9015072868787684E-005
  0.12530000000000002         -2.7176860385225154E-005
  0.12640000000000001         -2.5508066755719483E-005
  0.12750000000000003         -2.3883090761955827E-005
  0.12860000000000002         -2.2261414414970204E-005
  0.12970000000000001         -2.0755829609697685E-005
  0.13080000000000003         -1.9460389012238011E-005
  0.13190000000000002         -1.8297674614586867E-005
  0.13300000000000001         -1.7125708836829290E-005
  0.13410000000000000         -1.5944575352477841E-005
  0.13520000000000004         -1.4889265003148466E-005
  0.13630000000000003         -1.4018683032190893E-005
  0.13740000000000002         -1.3222964298620354E-005
  0.13850000000000001         -1.2388000868668314E-005
  0.13960000000000000         -1.1562481631699484E-005
  0.14070000000000005         -1.0871338417928200E-005
  0.14180000000000004         -1.0312608537788037E-005
  0.14290000000000003         -9.7534475571592338E-006
  0.14400000000000002         -9.1310903371777385E-006
  0.14510000000000001         -8.5474857769440860E-006
  0.14620000000000000         -8.1095213317894377E-006
  0.14730000000000004         -7.7600252552656457E-006
  0.14840000000000003         -7.3594478635641281E-006
  0.14950000000000002         -6.8931371970393229E-006
  0.15060000000000001         -6.4872970142459963E-006
  0.15170000000000000         -6.2119138419802766E-006
  0.15280000000000005         -5.9734479691542219E-006
  0.15390000000000004         -5.6591748034406919E-006
  0.15500000000000003         -5.3076910262461752E-006
  0.15610000000000002         -5.0432436182745732E-006
  0.15720000000000001         -4.8797337512951344E-006
  0.15830000000000000         -4.6977106649137568E-006
  0.15940000000000004         -4.4283328861638438E-006
  0.16050000000000003         -4.1588555177440867E-006
  0.16160000000000002         -3.9971810110728256E-006
  0.16270000000000001         -3.9048459257173818E-006
  0.16380000000000000         -3.7549443732132204E-006
  0.16490000000000005         -3.5235543691669591E-006
  0.16600000000000004         -3.3227249787159963E-006
  0.16710000000000003         -3.2270115752908168E-006
  0.16820000000000002         -3.1622757887816988E-006
  0.16930000000000001         -3.0228891318984097E-006
  0.17040000000000000         -2.8324384402367286E-006
  0.17150000000000004         -2.7020453217119211E-006
  0.17260000000000003         -2.6561751838016789E-006
  0.17370000000000002         -2.5957328944059554E-006
  0.17480000000000001         -2.4529097117920173E-006
  0.17590000000000000         -2.2957788132771384E-006
  0.17700000000000005         -2.2226799956115428E-006
  0.17810000000000004         -2.2113060822448460E-006
  0.17920000000000003         -2.1529288005694980E-006
  0.18030000000000002         -2.0169995877949987E-006
  0.18140000000000001         -1.8941290136353928E-006
  0.18250000000000000         -1.8562208197181462E-006
  0.18360000000000004         -1.8502061038816464E-006
  0.18470000000000003         -1.7837654695540550E-006
  0.18580000000000002         -1.6650443512844504E-006
  0.18690000000000001         -1.5845539564907085E-006
  0.18800000000000000         -1.5738932006570394E-006
  0.18910000000000005         -1.5607840850861976E-006
  0.19020000000000004         -1.4839976074654260E-006
  0.19130000000000003         -1.3862230616723537E-006
  0.19240000000000002         -1.3443756188280531E-006
  0.19350000000000001         -1.3497356121661142E-006
  0.19460000000000005         -1.3232780702310265E-006
  0.19570000000000004         -1.2382748764139251E-006
  0.19680000000000003         -1.1602127187870792E-006
  0.19790000000000002         -1.1456120319053298E-006
  0.19900000000000001         -1.1571761433515348E-006
  0.20010000000000000         -1.1226039760003914E-006
  0.20120000000000005         -1.0434113164592418E-006
  0.20230000000000004         -9.8874454579345183E-007
  0.20340000000000003         -9.8946645721298410E-007
  0.20450000000000002         -9.9529415820143186E-007
  0.20560000000000000         -9.5451071047136793E-007
  0.20670000000000005         -8.9011803083849372E-007
  0.20780000000000004         -8.5950352968211519E-007
  0.20890000000000003         -8.6649043851139140E-007
