 -0.12000000000000000          0.0000000000000000
 -0.11889999999999999          0.0000000000000000
 -0.11780000000000000          0.0000000000000000
 -0.11670000000000000          0.0000000000000000
 -0.11559999999999999          0.0000000000000000
 -0.11449999999999999          0.0000000000000000
 -0.11340000000000000          0.0000000000000000
 -0.11230000000000000          4.5173334915543855E-021
 -0.11119999999999999         -2.1335217507987356E-021
 -0.11009999999999999         -5.0255093159369238E-020
 -0.10900000000000000          6.3247356507830386E-021
 -0.10790000000000000          3.2296866351523760E-019
 -0.10679999999999999          1.0674557717373977E-019
 -0.10569999999999999         -1.4623047761222683E-018
 -0.10460000000000000         -1.2596300164102911E-018
 -0.10349999999999999          4.7662432272616785E-018
 -0.10239999999999999          7.2483702952041428E-018
 -0.10130000000000000         -1.0592410048849818E-017
 -0.10020000000000000         -2.7792543971565133E-017
  -9.9099999999999994E-002     1.2570398243991732E-017
  -9.7999999999999990E-002     7.9820460804419312E-017
  -9.6899999999999986E-002     1.2145883363365230E-017
  -9.5799999999999996E-002    -1.8955655035397421E-016
  -9.4699999999999993E-002    -1.2843990713135484E-016
  -9.3599999999999989E-002     3.9215259059577714E-016
  -9.2499999999999999E-002     5.3948947190813040E-016
  -9.1399999999999995E-002    -6.0574327731161850E-016
  -9.0299999999999991E-002    -1.6980233383172912E-015
  -8.9200000000000002E-002     1.2997302353099532E-016
  -8.8099999999999984E-002     3.8443742275944687E-015
  -8.6999999999999994E-002     2.7951547275888037E-015
  -8.5899999999999990E-002    -5.4413006896460517E-015
  -8.4799999999999986E-002    -9.5917485786649673E-015
  -8.3699999999999997E-002     2.5228135180140488E-015
  -8.2599999999999993E-002     1.8417215249069176E-014
  -8.1499999999999989E-002     8.2132600552490068E-015
  -8.0399999999999999E-002    -2.5318153606609939E-014
  -7.9299999999999995E-002    -2.8646833847125255E-014
  -7.8199999999999992E-002     2.6885410198585098E-014
  -7.7100000000000002E-002     6.7104572495490372E-014
  -7.5999999999999984E-002    -4.8575484522879638E-015
  -7.4899999999999994E-002    -1.2584705955283326E-013
  -7.3799999999999991E-002    -8.8558948043750141E-014
  -7.2699999999999987E-002     1.4607405725546724E-013
  -7.1599999999999997E-002     2.6607204937564854E-013
  -7.0499999999999993E-002    -1.4646019585919795E-014
  -6.9399999999999989E-002    -4.1285109554124733E-013
  -6.8300000000000000E-002    -2.8991373646376772E-013
  -6.7199999999999996E-002     3.7689483153337255E-013
  -6.6099999999999992E-002     6.6022843659210850E-013
  -6.5000000000000002E-002    -1.0487793901566012E-013
  -6.3899999999999985E-002    -1.0222490172059895E-012
  -6.2799999999999995E-002    -5.2546839492476072E-013
  -6.1699999999999991E-002     1.1612636850386049E-012
  -6.0599999999999994E-002     1.6429054297550927E-012
  -5.9499999999999990E-002    -4.3080353195369681E-013
  -5.8399999999999994E-002    -2.6582670526603680E-012
  -5.7299999999999990E-002    -1.4798601797108568E-012
  -5.6199999999999986E-002     2.3741848331065851E-012
  -5.5099999999999996E-002     3.6569857385371218E-012
  -5.3999999999999992E-002    -3.4670782412572765E-013
  -5.2899999999999989E-002    -4.7691820111162020E-012
  -5.1799999999999985E-002    -2.8353857890045520E-012
  -5.0699999999999995E-002     3.9462656233058002E-012
  -4.9599999999999991E-002     6.1618037061617059E-012
  -4.8499999999999988E-002    -6.3205587682094166E-013
  -4.7399999999999998E-002    -7.9608004216469297E-012
  -4.6299999999999994E-002    -4.8449274106521223E-012
  -4.5199999999999990E-002     5.9952199454871291E-012
  -4.4099999999999986E-002     1.0003306342987184E-011
  -4.2999999999999997E-002     7.0875255534300075E-013
  -4.1899999999999993E-002    -9.9521597560214836E-012
  -4.0799999999999989E-002    -7.5305369579004022E-012
  -3.9699999999999985E-002     4.1723330519716217E-012
  -3.8599999999999995E-002     8.2177632754198982E-012
  -3.7499999999999992E-002    -6.3656328472272428E-013
  -3.6399999999999988E-002    -8.0511326772114700E-012
  -3.5299999999999984E-002    -1.8640219576204764E-012
  -3.4199999999999994E-002     9.1502708188251347E-012
  -3.3099999999999991E-002     8.9037111017375992E-012
  -3.1999999999999987E-002    -8.5851757560678754E-013
  -3.0899999999999997E-002    -4.3731364016141860E-012
  -2.9799999999999993E-002     6.2954855087685169E-013
  -2.8699999999999989E-002    -1.9721212510259711E-012
  -2.7599999999999986E-002    -1.6760913837399194E-011
  -2.6499999999999996E-002    -2.0916173307239383E-011
  -2.5399999999999992E-002     2.9895714809963225E-012
  -2.4299999999999988E-002     3.0761303226878312E-011
  -2.3199999999999985E-002     2.1645234216105536E-011
  -2.2099999999999995E-002    -1.9662212830118264E-011
  -2.0999999999999991E-002    -3.8412672348497878E-011
  -1.9899999999999987E-002    -5.0938944902434447E-012
  -1.8799999999999983E-002     3.2656988224744055E-011
  -1.7699999999999994E-002     9.2469755810786758E-012
  -1.6599999999999990E-002    -5.9749219460947245E-011
  -1.5499999999999986E-002    -8.4355009088987742E-011
  -1.4399999999999996E-002    -1.9689555541546611E-011
  -1.3299999999999992E-002     6.4398347765504127E-011
  -1.2199999999999989E-002     6.8709898881635922E-011
  -1.1099999999999985E-002    -7.2828999775342851E-012
  -9.9999999999999950E-003    -7.1552624936188636E-011
  -8.8999999999999913E-003    -6.8308900202929124E-011
  -7.7999999999999875E-003    -4.3246951159092717E-011
  -6.6999999999999837E-003    -6.1305349685625288E-011
  -5.5999999999999939E-003    -1.0963023544530159E-010
  -4.4999999999999901E-003    -1.3000864274026469E-010
  -3.3999999999999864E-003    -1.1178900166664008E-010
  -2.2999999999999826E-003    -9.2378348026667112E-011
  -1.1999999999999927E-003    -7.9042765388503966E-011
  -9.9999999999988987E-005    -4.6615312304654211E-011
   1.0000000000000148E-003    -2.1430683616596724E-011
   2.1000000000000185E-003    -9.7054392300677250E-011
   3.2000000000000084E-003    -3.0454791466461018E-010
   4.3000000000000121E-003    -5.0002119111880461E-010
   5.4000000000000159E-003    -5.1994336613958581E-010
   6.5000000000000058E-003    -3.9172504129325603E-010
   7.6000000000000234E-003    -3.3136493549079660E-010
   8.7000000000000133E-003    -4.5073972332332346E-010
   9.8000000000000032E-003    -6.1015903440875263E-010
   1.0900000000000021E-002    -6.0995875017511025E-010
   1.2000000000000011E-002    -4.7274567593902361E-010
   1.3100000000000001E-002    -4.6386297580802704E-010
   1.4200000000000018E-002    -7.3530564970170076E-010
   1.5300000000000008E-002    -1.1616334560926589E-009
   1.6400000000000026E-002    -1.4653281921184202E-009
   1.7500000000000016E-002    -1.5463600400167365E-009
   1.8600000000000005E-002    -1.5450433155095311E-009
   1.9700000000000023E-002    -1.5733658820238361E-009
   2.0800000000000013E-002    -1.6104154676455096E-009
   2.1900000000000003E-002    -1.6522103685190359E-009
   2.3000000000000020E-002    -1.7133702234772841E-009
   2.4100000000000010E-002    -1.8598187434548663E-009
   2.5200000000000000E-002    -2.0474533179992704E-009
   2.6300000000000018E-002    -2.2958046574927948E-009
   2.7400000000000008E-002    -2.5876139009284316E-009
   2.8500000000000025E-002    -2.9408271373654316E-009
   2.9600000000000015E-002    -3.3149885059202688E-009
   3.0700000000000005E-002    -3.4621485678343333E-009
   3.1800000000000023E-002    -3.3013058953201835E-009
   3.2900000000000013E-002    -3.0764433223140486E-009
   3.4000000000000002E-002    -2.8915518868188883E-009
   3.5100000000000020E-002    -3.0210820511911152E-009
   3.6200000000000010E-002    -3.0206395162934996E-009
   3.7300000000000028E-002    -2.7806463798185632E-009
   3.8400000000000017E-002    -2.6487689819276738E-009
   3.9500000000000007E-002    -2.5565822792117388E-009
   4.0600000000000025E-002    -2.6937450048336586E-009
   4.1700000000000015E-002    -2.4960760125480874E-009
   4.2800000000000005E-002    -2.3692299233601943E-009
   4.3900000000000022E-002    -1.7416694753080719E-009
   4.5000000000000012E-002    -7.9595874336035877E-010
   4.6100000000000002E-002    -2.7622371057134387E-010
   4.7200000000000020E-002    -6.5515551317396614E-011
   4.8300000000000010E-002     6.4790439679995870E-010
   4.9400000000000027E-002     1.9853858557183912E-009
   5.0500000000000017E-002     3.3297256063491432E-009
   5.1600000000000007E-002     3.8620182607473907E-009
   5.2700000000000025E-002     3.5426677147398777E-009
   5.3800000000000014E-002     4.0507162069047808E-009
   5.4900000000000004E-002     5.9577400790544743E-009
   5.6000000000000022E-002     8.0645135014378866E-009
   5.7100000000000012E-002     9.8198178477559850E-009
   5.8200000000000002E-002     9.8467385356570958E-009
   5.9300000000000019E-002     9.3736831630053530E-009
   6.0400000000000009E-002     8.9224352350925074E-009
   6.1500000000000027E-002     1.0678065542890636E-008
   6.2600000000000017E-002     1.3772879725593157E-008
   6.3700000000000007E-002     1.6237560629406289E-008
   6.4800000000000024E-002     1.5922754670327777E-008
   6.5900000000000014E-002     1.3794992703708431E-008
   6.7000000000000004E-002     1.1600699956204608E-008
   6.8100000000000022E-002     1.2218318801160422E-008
   6.9200000000000012E-002     1.4645178403327463E-008
   7.0300000000000029E-002     1.8134585388906999E-008
   7.1400000000000019E-002     1.7299402799153540E-008
   7.2500000000000009E-002     1.2346239586236152E-008
   7.3600000000000027E-002     6.7474803522316051E-009
   7.4700000000000016E-002     5.6313744778435648E-009
   7.5800000000000006E-002     9.5908063713068259E-009
   7.6900000000000024E-002     1.2889410427874282E-008
   7.8000000000000014E-002     1.1756908335769367E-008
   7.9100000000000004E-002     5.6934124081919890E-009
   8.0200000000000021E-002    -1.2093781531774539E-009
   8.1300000000000011E-002    -4.1527474792246721E-009
   8.2400000000000029E-002    -2.5458124497390600E-009
   8.3500000000000019E-002     5.2601711875155388E-010
   8.4600000000000009E-002     1.8096801834843745E-010
   8.5700000000000026E-002    -5.8831988170027216E-009
   8.6800000000000016E-002    -1.4434265338536534E-008
   8.7900000000000006E-002    -1.9072656343155359E-008
   8.9000000000000024E-002    -1.6703523897376726E-008
   9.0100000000000013E-002    -1.1055134585546966E-008
   9.1200000000000003E-002    -9.1160368143050619E-009
   9.2300000000000021E-002    -1.4676517778866582E-008
   9.3400000000000011E-002    -2.3690954975563727E-008
   9.4500000000000028E-002    -2.8471250246298041E-008
   9.5600000000000018E-002    -2.4866311676419173E-008
   9.6700000000000008E-002    -1.6333054020378768E-008
   9.7800000000000026E-002    -1.1141159106387022E-008
   9.8900000000000016E-002    -1.5719910706479823E-008
  0.10000000000000001         -2.6646299389199157E-008
  0.10110000000000002         -3.2259340088103272E-008
  0.10220000000000001         -2.4595500747182086E-008
  0.10330000000000003         -1.1740075578359210E-008
  0.10440000000000002         -3.4457823261391241E-009
  0.10550000000000001         -4.8785979700483040E-009
  0.10660000000000003         -1.6628053600697967E-008
  0.10770000000000002         -2.4178255841889040E-008
  0.10880000000000001         -2.0262991284880627E-008
  0.10990000000000003         -4.1572425502067745E-009
  0.11100000000000002          8.4849718362534077E-009
  0.11210000000000001          8.3882403245638670E-009
  0.11320000000000002         -2.2346939576589619E-010
  0.11430000000000001         -8.5387990012009141E-009
  0.11540000000000003         -7.7960873312576950E-009
  0.11650000000000002          3.0030584685647455E-009
  0.11760000000000001          1.5286788723756217E-008
  0.11870000000000003          1.9752306457121449E-008
  0.11980000000000002          1.3130183162957110E-008
  0.12090000000000001          1.6744702291404678E-009
  0.12200000000000003         -3.1194138383483505E-009
  0.12310000000000001          7.2248487192894117E-009
  0.12420000000000003          2.2564464075003343E-008
  0.12530000000000002          2.9155831526850307E-008
  0.12640000000000001          1.9932212325102228E-008
  0.12750000000000003          4.4987640279714469E-009
  0.12860000000000002         -3.2665399274378615E-009
  0.12970000000000001          2.6703657063364972E-009
  0.13080000000000003          1.4258150216051035E-008
  0.13190000000000002          2.1924071447187998E-008
  0.13300000000000001          2.1410437867075416E-008
  0.13410000000000000          1.3049545444232535E-008
  0.13520000000000004          1.4458344521628419E-009
  0.13630000000000003         -5.0414650232255553E-009
  0.13740000000000002         -5.2839736058851727E-011
  0.13850000000000001          1.2664396642492193E-008
  0.13960000000000000          1.9186055411068992E-008
  0.14070000000000005          1.0471501887820978E-008
  0.14180000000000004         -5.9097686744280509E-009
  0.14290000000000003         -1.3311444391206351E-008
  0.14400000000000002         -4.6394328379051331E-009
  0.14510000000000001          8.9209875042683962E-009
  0.14620000000000000          1.2554431272349120E-008
  0.14730000000000004          4.4388510644921553E-009
  0.14840000000000003         -5.0719655142472675E-009
  0.14950000000000002         -8.9445606477056572E-009
  0.15060000000000001         -8.6682394595527512E-009
  0.15170000000000000         -6.5678409377767366E-009
  0.15280000000000005         -9.8768671019655585E-010
  0.15390000000000004          6.9044423511854802E-009
  0.15500000000000003          8.1401942964021146E-009
  0.15610000000000002         -2.3632726886546607E-009
  0.15720000000000001         -1.5461958824403155E-008
  0.15830000000000000         -1.5025731769924278E-008
  0.15940000000000004         -8.6535645316132559E-010
  0.16050000000000003          1.1046895842525828E-008
  0.16160000000000002          6.9650125666953500E-009
  0.16270000000000001         -6.9813421710307466E-009
  0.16380000000000000         -1.3875338211732924E-008
  0.16490000000000005         -7.8481514620420967E-009
  0.16600000000000004          6.1340371670937088E-010
  0.16710000000000003          2.4223247852006580E-009
  0.16820000000000002          1.1067984306833978E-009
  0.16930000000000001          2.2876851524245012E-009
  0.17040000000000000          1.6930845614382406E-009
  0.17150000000000004         -5.5284408162492582E-009
  0.17260000000000003         -1.2285962469604783E-008
  0.17370000000000002         -6.6799850095833335E-009
  0.17480000000000001          8.6316838121547335E-009
  0.17590000000000000          1.5708998546415387E-008
  0.17700000000000005          3.5281342292137197E-009
  0.17810000000000004         -1.4027440542463410E-008
  0.17920000000000003         -1.5456286917014950E-008
  0.18030000000000002         -1.1236354902077750E-010
  0.18140000000000001          1.1664372578934490E-008
  0.18250000000000000          7.0958590114855724E-009
  0.18360000000000004         -3.6158251948137377E-009
  0.18470000000000003         -5.3018016643591181E-009
  0.18580000000000002          4.4180334390908627E-010
  0.18690000000000001          1.6251985313076034E-009
  0.18800000000000000         -2.8903366366961336E-009
  0.18910000000000005         -2.0943242695636854E-009
  0.19020000000000004          6.2070482087506207E-009
  0.19130000000000003          8.9584144546961397E-009
  0.19240000000000002         -1.8282007019365665E-009
  0.19350000000000001         -1.3125375453171273E-008
  0.19460000000000005         -7.7419786137511437E-009
  0.19570000000000004          9.1450305106377527E-009
  0.19680000000000003          1.4920578550459140E-008
  0.19790000000000002          1.6392175394841502E-009
  0.19900000000000001         -1.2246944791627357E-008
  0.20010000000000000         -8.5079872036430970E-009
  0.20120000000000005          5.3414774825455424E-009
  0.20230000000000004          8.3647719861801306E-009
  0.20340000000000003         -2.2413009226340819E-009
  0.20450000000000002         -8.5733820043287778E-009
  0.20560000000000000         -7.9791834250997340E-010
  0.20670000000000005          8.1692537179378633E-009
  0.20780000000000004          3.9963330422665422E-009
  0.20890000000000003         -6.0988449845922332E-009
