 -0.12000000000000000          0.0000000000000000
 -0.11889999999999999          0.0000000000000000
 -0.11780000000000000          0.0000000000000000
 -0.11670000000000000          0.0000000000000000
 -0.11559999999999999          0.0000000000000000
 -0.11449999999999999          0.0000000000000000
 -0.11340000000000000          0.0000000000000000
 -0.11230000000000000          0.0000000000000000
 -0.11119999999999999         -4.1322755647785701E-023
 -0.11009999999999999          2.1174042748977882E-022
 -0.10900000000000000          3.3840625794108072E-022
 -0.10790000000000000         -3.1919958758915846E-021
 -0.10679999999999999         -2.4595787383673796E-021
 -0.10569999999999999          2.7823350814214811E-020
 -0.10460000000000000          2.6122043858172103E-020
 -0.10349999999999999         -1.7167835053035746E-019
 -0.10239999999999999         -2.5715561489049863E-019
 -0.10130000000000000          7.4125458978587941E-019
 -0.10020000000000000          1.8589525622973179E-018
  -9.9099999999999994E-002    -1.7697967611296680E-018
  -9.7999999999999990E-002    -9.5481292670873474E-018
  -9.6899999999999986E-002    -2.3307718342041958E-018
  -9.5799999999999996E-002     3.3285158896537696E-017
  -9.4699999999999993E-002     4.3579166848131459E-017
  -9.3599999999999989E-002    -6.3014248487375225E-017
  -9.2499999999999999E-002    -2.0800603967591614E-016
  -9.1399999999999995E-002    -5.0403995854290075E-017
  -9.0299999999999991E-002     5.3073046301925129E-016
  -8.9200000000000002E-002     7.6570603173574435E-016
  -8.8099999999999984E-002    -4.3524200365555065E-016
  -8.6999999999999994E-002    -2.3900203512247295E-015
  -8.5899999999999990E-002    -1.9493912709642007E-015
  -8.4799999999999986E-002     2.7732858191983553E-015
  -8.3699999999999997E-002     7.5284847393707402E-015
  -8.2599999999999993E-002     4.3198341496790416E-015
  -8.1499999999999989E-002    -7.9972751240286327E-015
  -8.0399999999999999E-002    -1.8157067714044857E-014
  -7.9299999999999995E-002    -1.3027940170076430E-014
  -7.8199999999999992E-002     7.5586069250409976E-015
  -7.7100000000000002E-002     3.2724233614772960E-014
  -7.5999999999999984E-002     5.1969781017686956E-014
  -7.4899999999999994E-002     4.7131660960110164E-014
  -7.3799999999999991E-002    -2.2096204599646348E-014
  -7.2699999999999987E-002    -1.7327818054111571E-013
  -7.1599999999999997E-002    -2.9815123351976947E-013
  -7.0499999999999993E-002    -1.6148318576422738E-013
  -6.9399999999999989E-002     3.5283912293640474E-013
  -6.8300000000000000E-002     9.3191047326884879E-013
  -6.7199999999999996E-002     9.1751985783344869E-013
  -6.6099999999999992E-002    -7.2037136726686019E-014
  -6.5000000000000002E-002    -1.5639353961177660E-012
  -6.3899999999999985E-002    -2.4554787456804172E-012
  -6.2799999999999995E-002    -1.9365461925019423E-012
  -6.1699999999999991E-002    -9.0351012262124275E-014
  -6.0599999999999994E-002     2.4414140414180663E-012
  -5.9499999999999990E-002     4.9988064902695140E-012
  -5.8399999999999994E-002     6.6478606473852064E-012
  -5.7299999999999990E-002     5.6404828724376799E-012
  -5.6199999999999986E-002     1.9966272829952808E-013
  -5.5099999999999996E-002    -9.2706797100161609E-012
  -5.3999999999999992E-002    -1.8935290835297991E-011
  -5.2899999999999989E-002    -2.3220605993579113E-011
  -5.1799999999999985E-002    -1.7981461805649523E-011
  -5.0699999999999995E-002    -1.9797956676836925E-012
  -4.9599999999999991E-002     2.3476729241189709E-011
  -4.8499999999999988E-002     5.3602157434884390E-011
  -4.7399999999999998E-002     7.7266026909939001E-011
  -4.6299999999999994E-002     7.7324105451914704E-011
  -4.5199999999999990E-002     3.8913493954906286E-011
  -4.4099999999999986E-002    -3.8352758469084591E-011
  -4.2999999999999997E-002    -1.3492909567425215E-010
  -4.1899999999999993E-002    -2.1769229474610796E-010
  -4.0799999999999989E-002    -2.5185548091499754E-010
  -3.9699999999999985E-002    -2.1002591332752729E-010
  -3.8599999999999995E-002    -7.8454846785813714E-011
  -3.7499999999999992E-002     1.3511916585606798E-010
  -3.6399999999999988E-002     3.9504591264893918E-010
  -3.5299999999999984E-002     6.4197441806967959E-010
  -3.4199999999999994E-002     8.0890283360446347E-010
  -3.3099999999999991E-002     8.3885215440560046E-010
  -3.1999999999999987E-002     6.9849637185370739E-010
  -3.0899999999999997E-002     3.9552125463693244E-010
  -2.9799999999999993E-002     1.6623736892248941E-012
  -2.8699999999999989E-002    -3.4263483716934218E-010
  -2.7599999999999986E-002    -4.7086123888817610E-010
  -2.6499999999999996E-002    -2.6797247754117848E-010
  -2.5399999999999992E-002     2.7371296895672970E-010
  -2.4299999999999988E-002     1.0588593335469909E-009
  -2.3199999999999985E-002     1.9248092009149786E-009
  -2.2099999999999995E-002     2.6511113304650280E-009
  -2.0999999999999991E-002     2.9409632507082506E-009
  -1.9899999999999987E-002     2.4368165263410901E-009
  -1.8799999999999983E-002     8.0752649012083566E-010
  -1.7699999999999994E-002    -2.1462804866700935E-009
  -1.6599999999999990E-002    -6.4552296841213774E-009
  -1.5499999999999986E-002    -1.2028852580669991E-008
  -1.4399999999999996E-002    -1.8728647077637106E-008
  -1.3299999999999992E-002    -2.6424265442415162E-008
  -1.2199999999999989E-002    -3.5052696745196954E-008
  -1.1099999999999985E-002    -4.4697983980768186E-008
  -9.9999999999999950E-003    -5.5653025299307046E-008
  -8.8999999999999913E-003    -6.8428413158017065E-008
  -7.7999999999999875E-003    -8.3746819257157767E-008
  -6.6999999999999837E-003    -1.0258061422518949E-007
  -5.5999999999999939E-003    -1.2618833977739996E-007
  -4.4999999999999901E-003    -1.5604440761762817E-007
  -3.3999999999999864E-003    -1.9367853099083732E-007
  -2.2999999999999826E-003    -2.4060409486992285E-007
  -1.1999999999999927E-003    -2.9845168114661647E-007
  -9.9999999999988987E-005    -3.6916588896929170E-007
   1.0000000000000148E-003    -4.5503554702008842E-007
   2.1000000000000185E-003    -5.5858470204839250E-007
   3.2000000000000084E-003    -6.8262227159721078E-007
   4.3000000000000121E-003    -8.3059171629429329E-007
   5.4000000000000159E-003    -1.0069549034597003E-006
   6.5000000000000058E-003    -1.2172121159892413E-006
   7.6000000000000234E-003    -1.4675995316792978E-006
   8.7000000000000133E-003    -1.7648852690399508E-006
   9.8000000000000032E-003    -2.1164867121115094E-006
   1.0900000000000021E-002    -2.5307872419944033E-006
   1.2000000000000011E-002    -3.0172354854585137E-006
   1.3100000000000001E-002    -3.5862258300767280E-006
   1.4200000000000018E-002    -4.2490100895520300E-006
   1.5300000000000008E-002    -5.0178769015474245E-006
   1.6400000000000026E-002    -5.9064013839815743E-006
   1.7500000000000016E-002    -6.9296943365770858E-006
   1.8600000000000005E-002    -8.1046746345236897E-006
   1.9700000000000023E-002    -9.4501101557398215E-006
   2.0800000000000013E-002    -1.0986281267832965E-005
   2.1900000000000003E-002    -1.2734185474982951E-005
   2.3000000000000020E-002    -1.4714907592860982E-005
   2.4100000000000010E-002    -1.6949981727520935E-005
   2.5200000000000000E-002    -1.9462260752334259E-005
   2.6300000000000018E-002    -2.2275946321315132E-005
   2.7400000000000008E-002    -2.5415445634280331E-005
   2.8500000000000025E-002    -2.8903947168146260E-005
   2.9600000000000015E-002    -3.2763004128355533E-005
   3.0700000000000005E-002    -3.7013716791989282E-005
   3.1800000000000023E-002    -4.1677267290651798E-005
   3.2900000000000013E-002    -4.6773500798735768E-005
   3.4000000000000002E-002    -5.2318748203106225E-005
   3.5100000000000020E-002    -5.8324050769442692E-005
   3.6200000000000010E-002    -6.4794963691383600E-005
   3.7300000000000028E-002    -7.1732014475855976E-005
   3.8400000000000017E-002    -7.9129873483907431E-005
   3.9500000000000007E-002    -8.6977357568684965E-005
   4.0600000000000025E-002    -9.5254785264842212E-005
   4.1700000000000015E-002    -1.0393297270638868E-004
   4.2800000000000005E-002    -1.1297078162897378E-004
   4.3900000000000022E-002    -1.2231616710778326E-004
   4.5000000000000012E-002    -1.3190710160415620E-004
   4.6100000000000002E-002    -1.4167164044920355E-004
   4.7200000000000020E-002    -1.5152584819588810E-004
   4.8300000000000010E-002    -1.6137091733980924E-004
   4.9400000000000027E-002    -1.7109104373957962E-004
   5.0500000000000017E-002    -1.8055869441013783E-004
   5.1600000000000007E-002    -1.8963517504744232E-004
   5.2700000000000025E-002    -1.9817431166302413E-004
   5.3800000000000014E-002    -2.0601815776899457E-004
   5.4900000000000004E-002    -2.1299613581504673E-004
   5.6000000000000022E-002    -2.1892470249440521E-004
   5.7100000000000012E-002    -2.2361568699125201E-004
   5.8200000000000002E-002    -2.2688374156132340E-004
   5.9300000000000019E-002    -2.2854290727991611E-004
   6.0400000000000009E-002    -2.2840820020064712E-004
   6.1500000000000027E-002    -2.2629696468356997E-004
   6.2600000000000017E-002    -2.2203190019354224E-004
   6.3700000000000007E-002    -2.1544826449826360E-004
   6.4800000000000024E-002    -2.0640048023778945E-004
   6.5900000000000014E-002    -1.9476639863569289E-004
   6.7000000000000004E-002    -1.8044878379441798E-004
   6.8100000000000022E-002    -1.6337564738932997E-004
   6.9200000000000012E-002    -1.4349714911077172E-004
   7.0300000000000029E-002    -1.2079718726454303E-004
   7.1400000000000019E-002    -9.5301620604004711E-005
   7.2500000000000009E-002    -6.7087290517520159E-005
   7.3600000000000027E-002    -3.6272478610044345E-005
   7.4700000000000016E-002    -3.0100238745944807E-006
   7.5800000000000006E-002     3.2512776670046151E-005
   7.6900000000000024E-002     7.0061767473816872E-005
   7.8000000000000014E-002     1.0935323371086270E-004
   7.9100000000000004E-002     1.5005594468675554E-004
   8.0200000000000021E-002     1.9180169329047203E-004
   8.1300000000000011E-002     2.3419286299031228E-004
   8.2400000000000029E-002     2.7680833591148257E-004
   8.3500000000000019E-002     3.1920033507049084E-004
   8.4600000000000009E-002     3.6089593777433038E-004
   8.5700000000000026E-002     4.0140439523383975E-004
   8.6800000000000016E-002     4.4022707152180374E-004
   8.7900000000000006E-002     4.7686943435110152E-004
   8.9000000000000024E-002     5.1085260929539800E-004
   9.0100000000000013E-002     5.4171978263184428E-004
   9.1200000000000003E-002     5.6903820950537920E-004
   9.2300000000000021E-002     5.9239822439849377E-004
   9.3400000000000011E-002     6.1142339836806059E-004
   9.4500000000000028E-002     6.2578514916822314E-004
   9.5600000000000018E-002     6.3522264827042818E-004
   9.6700000000000008E-002     6.3954084180295467E-004
   9.7800000000000026E-002     6.3860078807920218E-004
   9.8900000000000016E-002     6.3231843523681164E-004
  0.10000000000000001          6.2067160615697503E-004
  0.10110000000000002          6.0372089501470327E-004
  0.10220000000000001          5.8160664048045874E-004
  0.10330000000000003          5.5453722598031163E-004
  0.10440000000000002          5.2278110524639487E-004
  0.10550000000000001          4.8666080692782998E-004
  0.10660000000000003          4.4656102545559406E-004
  0.10770000000000002          4.0291732875630260E-004
  0.10880000000000001          3.5621412098407745E-004
  0.10990000000000003          3.0697530019097030E-004
  0.11100000000000002          2.5575602194294333E-004
  0.11210000000000001          2.0312335982453078E-004
  0.11320000000000002          1.4964988804422319E-004
  0.11430000000000001          9.5912990218494087E-005
  0.11540000000000003          4.2489980842219666E-005
  0.11650000000000002         -1.0051202480099164E-005
  0.11760000000000001         -6.1171398556325585E-005
  0.11870000000000003         -1.1036879732273519E-004
  0.11980000000000002         -1.5718615031801164E-004
  0.12090000000000001         -2.0120840054005384E-004
  0.12200000000000003         -2.4205655790865421E-004
  0.12310000000000001         -2.7940419386141002E-004
  0.12420000000000003         -3.1299123656935990E-004
  0.12530000000000002         -3.4261887776665390E-004
  0.12640000000000001         -3.6815117346122861E-004
  0.12750000000000003         -3.8950380985625088E-004
  0.12860000000000002         -4.0664509288035333E-004
  0.12970000000000001         -4.1960031376220286E-004
  0.13080000000000003         -4.2845137068070471E-004
  0.13190000000000002         -4.3332806671969593E-004
  0.13300000000000001         -4.3440613080747426E-004
  0.13410000000000000         -4.3189997086301446E-004
  0.13520000000000004         -4.2605854105204344E-004
  0.13630000000000003         -4.1715663974173367E-004
  0.13740000000000002         -4.0548798278905451E-004
  0.13850000000000001         -3.9136462146416306E-004
  0.13960000000000000         -3.7511505070142448E-004
  0.14070000000000005         -3.5707672941498458E-004
  0.14180000000000004         -3.3758240169845521E-004
  0.14290000000000003         -3.1695162761025131E-004
  0.14400000000000002         -2.9549523605965078E-004
  0.14510000000000001         -2.7352117467671633E-004
  0.14620000000000000         -2.5132761220447719E-004
  0.14730000000000004         -2.2918914328329265E-004
  0.14840000000000003         -2.0734935242217034E-004
  0.14950000000000002         -1.8603028729557991E-004
  0.15060000000000001         -1.6543862875550985E-004
  0.15170000000000000         -1.4576090325135738E-004
  0.15280000000000005         -1.2715139018837363E-004
  0.15390000000000004         -1.0973274038406089E-004
  0.15500000000000003         -9.3609647592529655E-005
  0.15610000000000002         -7.8873723396100104E-005
  0.15720000000000001         -6.5593878389336169E-005
  0.15830000000000000         -5.3809340897714719E-005
  0.15940000000000004         -4.3535768782021478E-005
  0.16050000000000003         -3.4778619010467082E-005
  0.16160000000000002         -2.7536059860722162E-005
  0.16270000000000001         -2.1789828679175116E-005
  0.16380000000000000         -1.7500251487945206E-005
  0.16490000000000005         -1.4615553482144605E-005
  0.16600000000000004         -1.3080948519927915E-005
  0.16710000000000003         -1.2836135283578187E-005
  0.16820000000000002         -1.3806366041535512E-005
  0.16930000000000001         -1.5905417967587709E-005
  0.17040000000000000         -1.9048695321544074E-005
  0.17150000000000004         -2.3155183953349479E-005
  0.17260000000000003         -2.8133197702118196E-005
  0.17370000000000002         -3.3870386687340215E-005
  0.17480000000000001         -4.0245027776109055E-005
  0.17590000000000000         -4.7146993892965838E-005
  0.17700000000000005         -5.4476397053804249E-005
  0.17810000000000004         -6.2122009694576263E-005
  0.17920000000000003         -6.9947818701621145E-005
  0.18030000000000002         -7.7807715570088476E-005
  0.18140000000000001         -8.5566323832608759E-005
  0.18250000000000000         -9.3097369244787842E-005
  0.18360000000000004         -1.0026436939369887E-004
  0.18470000000000003         -1.0691375064197928E-004
  0.18580000000000002         -1.1288975656498224E-004
  0.18690000000000001         -1.1804760288214311E-004
  0.18800000000000000         -1.2224598322063684E-004
  0.18910000000000005         -1.2533481640275568E-004
  0.19020000000000004         -1.2715987395495176E-004
  0.19130000000000003         -1.2758250522892922E-004
  0.19240000000000002         -1.2648335541598499E-004
  0.19350000000000001         -1.2374865764286369E-004
  0.19460000000000005         -1.1926014121854678E-004
  0.19570000000000004         -1.1291261762380600E-004
  0.19680000000000003         -1.0463488433742896E-004
  0.19790000000000002         -9.4385432021226734E-005
  0.19900000000000001         -8.2130994996987283E-005
  0.20010000000000000         -6.7846493038814515E-005
  0.20120000000000005         -5.1540053391363472E-005
  0.20230000000000004         -3.3268570405198261E-005
  0.20340000000000003         -1.3120056792104151E-005
  0.20450000000000002          8.8079113993444480E-006
  0.20560000000000000          3.2400086638517678E-005
  0.20670000000000005          5.7495279179420322E-005
  0.20780000000000004          8.3879531302955002E-005
  0.20890000000000003          1.1131012433907017E-004
