 -0.12000000000000000          0.0000000000000000
 -0.11889999999999999          0.0000000000000000
 -0.11780000000000000          0.0000000000000000
 -0.11670000000000000          0.0000000000000000
 -0.11559999999999999          0.0000000000000000
 -0.11449999999999999          0.0000000000000000
 -0.11340000000000000          0.0000000000000000
 -0.11230000000000000          0.0000000000000000
 -0.11119999999999999          0.0000000000000000
 -0.11009999999999999          0.0000000000000000
 -0.10900000000000000         -3.7337474201100635E-029
 -0.10790000000000000          1.3453097630132632E-029
 -0.10679999999999999          4.7176819175381696E-028
 -0.10569999999999999         -9.6304125707500889E-030
 -0.10460000000000000         -2.2791861333096815E-027
 -0.10349999999999999          2.2450879288302943E-027
 -0.10239999999999999          5.9567638065916912E-027
 -0.10130000000000000         -4.9226162325419278E-026
 -0.10020000000000000         -7.7164882308570441E-026
  -9.9099999999999994E-002     3.5427799952853203E-025
  -9.7999999999999990E-002     9.8178206579630733E-025
  -9.6899999999999986E-002    -6.6351149902707195E-025
  -9.5799999999999996E-002    -5.6465539468930085E-024
  -9.4699999999999993E-002    -5.2667489754653002E-024
  -9.3599999999999989E-002     1.2807501528478708E-023
  -9.2499999999999999E-002     3.4929107430729060E-023
  -9.1399999999999995E-002     1.6565119754780499E-023
  -9.0299999999999991E-002    -5.5165484864212279E-023
  -8.9200000000000002E-002    -1.2455055988738056E-022
  -8.8099999999999984E-002    -1.5215395154254177E-022
  -8.6999999999999994E-002    -1.0031496058701442E-022
  -8.5899999999999990E-002     3.5796281397910620E-022
  -8.4799999999999986E-002     1.5967289911238787E-021
  -8.3699999999999997E-002     2.3731371526652378E-021
  -8.2599999999999993E-002    -9.7030295238967925E-022
  -8.1499999999999989E-002    -9.7754863854195680E-021
  -8.0399999999999999E-002    -1.5159532291106200E-020
  -7.9299999999999995E-002    -9.7618894021523358E-022
  -7.8199999999999992E-002     3.4926221487236948E-020
  -7.7100000000000002E-002     6.3323396539667744E-020
  -7.5999999999999984E-002     4.1270683860821599E-020
  -7.4899999999999994E-002    -4.8335397596915460E-020
  -7.3799999999999991E-002    -1.8226359988343956E-019
  -7.2699999999999987E-002    -2.9687594902589419E-019
  -7.1599999999999997E-002    -2.4095352483484591E-019
  -7.0499999999999993E-002     2.3417023022160481E-019
  -6.9399999999999989E-002     1.1815499568495732E-018
  -6.8300000000000000E-002     1.9091237547856498E-018
  -6.7199999999999996E-002     9.8054785973375483E-019
  -6.6099999999999992E-002    -2.4318715030316520E-018
  -6.5000000000000002E-002    -6.6677180429230505E-018
  -6.3899999999999985E-002    -7.5772506893103262E-018
  -6.2799999999999995E-002    -1.5040647825518547E-018
  -6.1699999999999991E-002     1.1101696880192591E-017
  -6.0599999999999994E-002     2.4575489676836149E-017
  -5.9499999999999990E-002     2.9130320015189994E-017
  -5.8399999999999994E-002     1.2619677528984579E-017
  -5.7299999999999990E-002    -3.3211215567220356E-017
  -5.6199999999999986E-002    -9.6724485574536571E-017
  -5.5099999999999996E-002    -1.3118856874986444E-016
  -5.3999999999999992E-002    -7.0001793846190372E-017
  -5.2899999999999989E-002     1.1374951032465809E-016
  -5.1799999999999985E-002     3.4495146785179444E-016
  -5.0699999999999995E-002     4.5484266369237038E-016
  -4.9599999999999991E-002     2.8070576580800947E-016
  -4.8499999999999988E-002    -2.1407255581860045E-016
  -4.7399999999999998E-002    -8.8235051538566043E-016
  -4.6299999999999994E-002    -1.4008274292130166E-015
  -4.5199999999999990E-002    -1.3201902102717624E-015
  -4.4099999999999986E-002    -2.3408639588011287E-016
  -4.2999999999999997E-002     1.8395948369345988E-015
  -4.1899999999999993E-002     4.0546154283995113E-015
  -4.0799999999999989E-002     4.8309253597228138E-015
  -3.9699999999999985E-002     2.7573723994600520E-015
  -3.8599999999999995E-002    -2.2062747645262750E-015
  -3.7499999999999992E-002    -8.2677683194707155E-015
  -3.6399999999999988E-002    -1.2530699642786160E-014
  -3.5299999999999984E-002    -1.2231591980319933E-014
  -3.4199999999999994E-002    -5.6350895460001004E-015
  -3.3099999999999991E-002     7.2450810677466074E-015
  -3.1999999999999987E-002     2.3495130334013660E-014
  -3.0899999999999997E-002     3.6482833897996669E-014
  -2.9799999999999993E-002     3.7469942377804308E-014
  -2.8699999999999989E-002     2.0199857072938053E-014
  -2.7599999999999986E-002    -1.4547145429986801E-014
  -2.6499999999999996E-002    -5.8218810631768814E-014
  -2.5399999999999992E-002    -9.7321219280025600E-014
  -2.4299999999999988E-002    -1.1583325986753990E-013
  -2.3199999999999985E-002    -9.5981850126245633E-014
  -2.2099999999999995E-002    -2.2458331513388295E-014
  -2.0999999999999991E-002     1.0538193039554000E-013
  -1.9899999999999987E-002     2.5925274297136647E-013
  -1.8799999999999983E-002     3.7992056874623648E-013
  -1.7699999999999994E-002     3.9509248737218394E-013
  -1.6599999999999990E-002     2.4860181187941199E-013
  -1.5499999999999986E-002    -7.4176470900907260E-014
  -1.4399999999999996E-002    -5.2987941725340937E-013
  -1.3299999999999992E-002    -1.0064083897851073E-012
  -1.2199999999999989E-002    -1.3242382451011947E-012
  -1.1099999999999985E-002    -1.2707107501647164E-012
  -9.9999999999999950E-003    -6.7844791199964116E-013
  -8.8999999999999913E-003     4.7666764198955880E-013
  -7.7999999999999875E-003     2.0073482806526322E-012
  -6.6999999999999837E-003     3.5112145396060113E-012
  -5.5999999999999939E-003     4.4323256002953837E-012
  -4.4999999999999901E-003     4.1779197289260050E-012
  -3.3999999999999864E-003     2.2929212781935826E-012
  -2.2999999999999826E-003    -1.3153454020420341E-012
  -1.1999999999999927E-003    -6.1643975514391602E-012
  -9.9999999999988987E-005    -1.1109014749766111E-011
   1.0000000000000148E-003    -1.4475203154173943E-011
   2.1000000000000185E-003    -1.4431201025844054E-011
   3.2000000000000084E-003    -9.5314121179024269E-012
   4.3000000000000121E-003     6.7371233375065898E-013
   5.4000000000000159E-003     1.5105307629714737E-011
   6.5000000000000058E-003     3.0896354918930058E-011
   7.6000000000000234E-003     4.3611517175357051E-011
   8.7000000000000133E-003     4.8054071138947663E-011
   9.8000000000000032E-003     3.9579638178022236E-011
   1.0900000000000021E-002     1.5664683092331266E-011
   1.2000000000000011E-002    -2.2618908482319178E-011
   1.3100000000000001E-002    -6.9631279908666244E-011
   1.4200000000000018E-002    -1.1514271480717042E-010
   1.5300000000000008E-002    -1.4563528161204431E-010
   1.6400000000000026E-002    -1.4700299311165566E-010
   1.7500000000000016E-002    -1.0827099633514692E-010
   1.8600000000000005E-002    -2.5562748098839627E-011
   1.9700000000000023E-002     9.4652750914914208E-011
   2.0800000000000013E-002     2.3404983506836174E-010
   2.1900000000000003E-002     3.6363601019218095E-010
   2.3000000000000020E-002     4.4830217316160770E-010
   2.4100000000000010E-002     4.5464065845379764E-010
   2.5200000000000000E-002     3.6086134080903776E-010
   2.6300000000000018E-002     1.6667758839794544E-010
   2.7400000000000008E-002    -9.9404581788142821E-011
   2.8500000000000025E-002    -3.7786149209573239E-010
   2.9600000000000015E-002    -5.8291904636575964E-010
   3.0700000000000005E-002    -6.1527138939254655E-010
   3.1800000000000023E-002    -3.8215508535444087E-010
   3.2900000000000013E-002     1.7779200334189227E-010
   3.4000000000000002E-002     1.0693141927475835E-009
   3.5100000000000020E-002     2.2203185956470861E-009
   3.6200000000000010E-002     3.4717537733541803E-009
   3.7300000000000028E-002     4.5813499660596335E-009
   3.8400000000000017E-002     5.2426689656215331E-009
   3.9500000000000007E-002     5.1176844984013314E-009
   4.0600000000000025E-002     3.8776319932765091E-009
   4.1700000000000015E-002     1.2444725250304600E-009
   4.2800000000000005E-002    -2.9761728637112128E-009
   4.3900000000000022E-002    -8.8784108953632312E-009
   4.5000000000000012E-002    -1.6462456287058558E-008
   4.6100000000000002E-002    -2.5666563985282664E-008
   4.7200000000000020E-002    -3.6422182603246256E-008
   4.8300000000000010E-002    -4.8726604973126086E-008
   4.9400000000000027E-002    -6.2723671589992591E-008
   5.0500000000000017E-002    -7.8780509227271978E-008
   5.1600000000000007E-002    -9.7548827682203409E-008
   5.2700000000000025E-002    -1.2000299420833471E-007
   5.3800000000000014E-002    -1.4745202747690200E-007
   5.4900000000000004E-002    -1.8152728387121897E-007
   5.6000000000000022E-002    -2.2415399314468232E-007
   5.7100000000000012E-002    -2.7752111009249347E-007
   5.8200000000000002E-002    -3.4406090776428755E-007
   5.9300000000000019E-002    -4.2645592657208908E-007
   6.0400000000000009E-002    -5.2768450586881954E-007
   6.1500000000000027E-002    -6.5110538116641692E-007
   6.2600000000000017E-002    -8.0058993034981540E-007
   6.3700000000000007E-002    -9.8067937415180495E-007
   6.4800000000000024E-002    -1.1967567843385041E-006
   6.5900000000000014E-002    -1.4552127822753391E-006
   6.7000000000000004E-002    -1.7635898075241130E-006
   6.8100000000000022E-002    -2.1306962025846587E-006
   6.9200000000000012E-002    -2.5666845431260299E-006
   7.0300000000000029E-002    -3.0831126878183568E-006
   7.1400000000000019E-002    -3.6929955058440100E-006
   7.2500000000000009E-002    -4.4108419388066977E-006
   7.3600000000000027E-002    -5.2527475418173708E-006
   7.4700000000000016E-002    -6.2364706536754966E-006
   7.5800000000000006E-002    -7.3816513577185106E-006
   7.6900000000000024E-002    -8.7099288066383451E-006
   7.8000000000000014E-002    -1.0245111297990661E-005
   7.9100000000000004E-002    -1.2013273590127937E-005
   8.0200000000000021E-002    -1.4042805560166016E-005
   8.1300000000000011E-002    -1.6364429029636085E-005
   8.2400000000000029E-002    -1.9011076801689342E-005
   8.3500000000000019E-002    -2.2017682567820884E-005
   8.4600000000000009E-002    -2.5420897145522758E-005
   8.5700000000000026E-002    -2.9258742870297283E-005
   8.6800000000000016E-002    -3.3570180676179007E-005
   8.7900000000000006E-002    -3.8394740840885788E-005
   8.9000000000000024E-002    -4.3771939090220258E-005
   9.0100000000000013E-002    -4.9740705435397103E-005
   9.1200000000000003E-002    -5.6338740250794217E-005
   9.2300000000000021E-002    -6.3601633883081377E-005
   9.3400000000000011E-002    -7.1561924414709210E-005
   9.4500000000000028E-002    -8.0248049926012754E-005
   9.5600000000000018E-002    -8.9683147962205112E-005
   9.6700000000000008E-002    -9.9883844086434692E-005
   9.7800000000000026E-002    -1.1085874575655907E-004
   9.8900000000000016E-002    -1.2260679795872420E-004
  0.10000000000000001         -1.3511563884094357E-004
  0.10110000000000002         -1.4835997717455029E-004
  0.10220000000000001         -1.6230034816544503E-004
  0.10330000000000003         -1.7688132356852293E-004
  0.10440000000000002         -1.9203026022296399E-004
  0.10550000000000001         -2.0765532099176198E-004
  0.10660000000000003         -2.2364500910043716E-004
  0.10770000000000002         -2.3986736778169870E-004
  0.10880000000000001         -2.5616938364692032E-004
  0.10990000000000003         -2.7237588074058294E-004
  0.11100000000000002         -2.8829058283008635E-004
  0.11210000000000001         -3.0369550222530961E-004
  0.11320000000000002         -3.1835230765864253E-004
  0.11430000000000001         -3.3200305188074708E-004
  0.11540000000000003         -3.4437217982485890E-004
  0.11650000000000002         -3.5516885691322386E-004
  0.11760000000000001         -3.6408999585546553E-004
  0.11870000000000003         -3.7082374910824001E-004
  0.11980000000000002         -3.7505358341149986E-004
  0.12090000000000001         -3.7646261625923216E-004
  0.12200000000000003         -3.7473943666554987E-004
  0.12310000000000001         -3.6958479904569685E-004
  0.12420000000000003         -3.6071761860512197E-004
  0.12530000000000002         -3.4787965705618262E-004
  0.12640000000000001         -3.3084183814935386E-004
  0.12750000000000003         -3.0941044678911567E-004
  0.12860000000000002         -2.8343527810648084E-004
  0.12970000000000001         -2.5281490525230765E-004
  0.13080000000000003         -2.1750296582467854E-004
  0.13190000000000002         -1.7751226550899446E-004
  0.13300000000000001         -1.3291926006786525E-004
  0.13410000000000000         -8.3868479123339057E-005
  0.13520000000000004         -3.0576637072954327E-005
  0.13630000000000003          2.6665342375054024E-005
  0.13740000000000002          8.7492502643726766E-005
  0.13850000000000001          1.5146765508688986E-004
  0.13960000000000000          2.1808415476698428E-004
  0.14070000000000005          2.8676891815848649E-004
  0.14180000000000004          3.5688714706338942E-004
  0.14290000000000003          4.2774781468324363E-004
  0.14400000000000002          4.9861217848956585E-004
  0.14510000000000001          5.6870374828577042E-004
  0.14620000000000000          6.3721841434016824E-004
  0.14730000000000004          7.0333719486370683E-004
  0.14840000000000003          7.6623714994639158E-004
  0.14950000000000002          8.2510156789794564E-004
  0.15060000000000001          8.7913521565496922E-004
  0.15170000000000000          9.2757958918809891E-004
  0.15280000000000005          9.6972548635676503E-004
  0.15390000000000004          1.0049253469333053E-003
  0.15500000000000003          1.0326035553589463E-003
  0.15610000000000002          1.0522659868001938E-003
  0.15720000000000001          1.0635147336870432E-003
  0.15830000000000000          1.0660554980859160E-003
  0.15940000000000004          1.0597046930342913E-003
  0.16050000000000003          1.0443896753713489E-003
  0.16160000000000002          1.0201561963185668E-003
  0.16270000000000001          9.8716618958860636E-004
  0.16380000000000000          9.4570056535303593E-004
  0.16490000000000005          8.9615245815366507E-004
  0.16600000000000004          8.3902262849733233E-004
  0.16710000000000003          7.7491230331361294E-004
  0.16820000000000002          7.0451392093673348E-004
  0.16930000000000001          6.2860065372660756E-004
  0.17040000000000000          5.4801377700641751E-004
  0.17150000000000004          4.6364951413124800E-004
  0.17260000000000003          3.7644637632183731E-004
  0.17370000000000002          2.8737023239955306E-004
  0.17480000000000001          1.9739626441150904E-004
  0.17590000000000000          1.0749340435722843E-004
  0.17700000000000005          1.8611386622069404E-005
  0.17810000000000004         -6.8331726652104408E-005
  0.17920000000000003         -1.5246294788084924E-004
  0.18030000000000002         -2.3296847939491272E-004
  0.18140000000000001         -3.0910610803402960E-004
  0.18250000000000000         -3.8021209184080362E-004
  0.18360000000000004         -4.4570842874236405E-004
  0.18470000000000003         -5.0510821165516973E-004
  0.18580000000000002         -5.5802025599405169E-004
  0.18690000000000001         -6.0415163170546293E-004
  0.18800000000000000         -6.4330903114750981E-004
  0.18910000000000005         -6.7539745941758156E-004
  0.19020000000000004         -7.0041808066889644E-004
  0.19130000000000003         -7.1846228092908859E-004
  0.19240000000000002         -7.2970433393493295E-004
  0.19350000000000001         -7.3439412517473102E-004
  0.19460000000000005         -7.3285080725327134E-004
  0.19570000000000004         -7.2545587318018079E-004
  0.19680000000000003         -7.1264390135183930E-004
  0.19790000000000002         -6.9489120505750179E-004
  0.19900000000000001         -6.7270395811647177E-004
  0.20010000000000000         -6.4660754287615418E-004
  0.20120000000000005         -6.1714247567579150E-004
  0.20230000000000004         -5.8485614135861397E-004
  0.20340000000000003         -5.5029481882229447E-004
  0.20450000000000002         -5.1399029325693846E-004
  0.20560000000000000         -4.7645159065723419E-004
  0.20670000000000005         -4.3816101970151067E-004
  0.20780000000000004         -3.9957163971848786E-004
  0.20890000000000003         -3.6110583459958434E-004
