 -0.12000000000000000          0.0000000000000000
 -0.11889999999999999          0.0000000000000000
 -0.11780000000000000          0.0000000000000000
 -0.11670000000000000          0.0000000000000000
 -0.11559999999999999          0.0000000000000000
 -0.11449999999999999          0.0000000000000000
 -0.11340000000000000          0.0000000000000000
 -0.11230000000000000          0.0000000000000000
 -0.11119999999999999          0.0000000000000000
 -0.11009999999999999          2.4000243043723909E-024
 -0.10900000000000000         -1.4065601354813240E-023
 -0.10790000000000000         -2.0158546838852304E-023
 -0.10679999999999999          2.3609309374847976E-022
 -0.10569999999999999          1.4395363514768624E-022
 -0.10460000000000000         -2.2927532109216264E-021
 -0.10349999999999999         -1.7718459136891606E-021
 -0.10239999999999999          1.5905069207847963E-020
 -0.10130000000000000          2.0831343345907520E-020
 -0.10020000000000000         -7.9272530886592629E-020
  -9.9099999999999994E-002    -1.7510800937106424E-019
  -9.7999999999999990E-002     2.4450926409548167E-019
  -9.6899999999999986E-002     1.0396059705306268E-018
  -9.5799999999999996E-002    -4.3665720700983535E-020
  -9.4699999999999993E-002    -4.2844886890174262E-018
  -9.3599999999999989E-002    -4.3870276521107246E-018
  -9.2499999999999999E-002     1.0761618942134277E-017
  -9.1399999999999995E-002     2.7231452472819389E-017
  -9.0299999999999991E-002    -3.8410144151609028E-018
  -8.9200000000000002E-002    -8.9253760858872048E-017
  -8.8099999999999984E-002    -9.5308775882319414E-017
  -8.6999999999999994E-002     1.3636480032542527E-016
  -8.5899999999999990E-002     4.2458876439881491E-016
  -8.4799999999999986E-002     1.7978670028677570E-016
  -8.3699999999999997E-002    -8.1178102417635246E-016
  -8.2599999999999993E-002    -1.4590202867552815E-015
  -8.1499999999999989E-002    -9.5569873788310553E-017
  -8.0399999999999999E-002     2.9471596604130346E-015
  -7.9299999999999995E-002     4.1579640358763766E-015
  -7.8199999999999992E-002     1.5542566214682760E-016
  -7.7100000000000002E-002    -7.2640368180732114E-015
  -7.5999999999999984E-002    -1.1160693307304004E-014
  -7.4899999999999994E-002    -5.5982410716956966E-015
  -7.3799999999999991E-002     9.6390638390985925E-015
  -7.2699999999999987E-002     2.9311107577548179E-014
  -7.1599999999999997E-002     4.0210720766552938E-014
  -7.0499999999999993E-002     1.6085584267030474E-014
  -6.9399999999999989E-002    -6.4578300118436210E-014
  -6.8300000000000000E-002    -1.6458457318367647E-013
  -6.7199999999999996E-002    -1.5898690512976960E-013
  -6.6099999999999992E-002     6.9542001280772925E-014
  -6.5000000000000002E-002     4.3670782593450974E-013
  -6.3899999999999985E-002     5.9355797187021775E-013
  -6.2799999999999995E-002     1.9792664957083567E-013
  -6.1699999999999991E-002    -6.5364743782533874E-013
  -6.0599999999999994E-002    -1.3335565290928386E-012
  -5.9499999999999990E-002    -1.1716842773790148E-012
  -5.8399999999999994E-002    -7.9708714129968217E-014
  -5.7299999999999990E-002     1.3725820610308026E-012
  -5.6199999999999986E-002     2.4587807918169391E-012
  -5.5099999999999996E-002     2.6846101296856828E-012
  -5.3999999999999992E-002     1.6823695214718271E-012
  -5.2899999999999989E-002    -8.1627700475664366E-013
  -5.1799999999999985E-002    -4.3534767804609409E-012
  -5.0699999999999995E-002    -7.1745417766500008E-012
  -4.9599999999999991E-002    -7.0335490903739029E-012
  -4.8499999999999988E-002    -3.1000957009807983E-012
  -4.7399999999999998E-002     3.2307364249140047E-012
  -4.6299999999999994E-002     9.8256498423654470E-012
  -4.5199999999999990E-002     1.5510913733973730E-011
  -4.4099999999999986E-002     1.9168076847986271E-011
  -4.2999999999999997E-002     1.7401231497404801E-011
  -4.1899999999999993E-002     5.4185943926254865E-012
  -4.0799999999999989E-002    -1.7505774607684543E-011
  -3.9699999999999985E-002    -4.3707062274966901E-011
  -3.8599999999999995E-002    -6.0405846991073986E-011
  -3.7499999999999992E-002    -5.8461409324639391E-011
  -3.6399999999999988E-002    -3.7237615768681565E-011
  -3.5299999999999984E-002    -1.0056530261315366E-012
  -3.4199999999999994E-002     4.6557112332035189E-011
  -3.3099999999999991E-002     1.0134712513654165E-010
  -3.1999999999999987E-002     1.5312384693544345E-010
  -3.0899999999999997E-002     1.8410389879264244E-010
  -2.9799999999999993E-002     1.7434036159169608E-010
  -2.8699999999999989E-002     1.0730403371406183E-010
  -2.7599999999999986E-002    -2.7167008226358647E-011
  -2.6499999999999996E-002    -2.2586281456238311E-010
  -2.5399999999999992E-002    -4.5923490010757462E-010
  -2.4299999999999988E-002    -6.6683442101478363E-010
  -2.3199999999999985E-002    -7.7470307946470029E-010
  -2.2099999999999995E-002    -7.2147571250624765E-010
  -2.0999999999999991E-002    -4.6298778699771503E-010
  -1.9899999999999987E-002     4.8676819519588577E-011
  -1.8799999999999983E-002     8.7559587358398971E-010
  -1.7699999999999994E-002     2.0657064947471326E-009
  -1.6599999999999990E-002     3.6150411553137474E-009
  -1.5499999999999986E-002     5.4777946623119078E-009
  -1.4399999999999996E-002     7.6281345684492408E-009
  -1.3299999999999992E-002     1.0106901093820397E-008
  -1.2199999999999989E-002     1.3000416743125243E-008
  -1.1099999999999985E-002     1.6389799739613409E-008
  -9.9999999999999950E-003     2.0351588858602554E-008
  -8.8999999999999913E-003     2.5020804983455491E-008
  -7.7999999999999875E-003     3.0640197934417301E-008
  -6.6999999999999837E-003     3.7540612396469442E-008
  -5.5999999999999939E-003     4.6092456074120491E-008
  -4.4999999999999901E-003     5.6698326034165802E-008
  -3.3999999999999864E-003     6.9819996895148506E-008
  -2.2999999999999826E-003     8.5982350128688267E-008
  -1.1999999999999927E-003     1.0575460152040250E-007
  -9.9999999999988987E-005     1.2977119467905140E-007
   1.0000000000000148E-003     1.5880048920280387E-007
   2.1000000000000185E-003     1.9377594639991003E-007
   3.2000000000000084E-003     2.3574797580749873E-007
   4.3000000000000121E-003     2.8586273970176990E-007
   5.4000000000000159E-003     3.4549302085906675E-007
   6.5000000000000058E-003     4.1640123527031392E-007
   7.6000000000000234E-003     5.0071076884705690E-007
   8.7000000000000133E-003     6.0067492313464754E-007
   9.8000000000000032E-003     7.1852696237328928E-007
   1.0900000000000021E-002     8.5670671978732571E-007
   1.2000000000000011E-002     1.0182325240748469E-006
   1.3100000000000001E-002     1.2068155683664372E-006
   1.4200000000000018E-002     1.4265617664932506E-006
   1.5300000000000008E-002     1.6816626384752453E-006
   1.6400000000000026E-002     1.9764970602409448E-006
   1.7500000000000016E-002     2.3160014279710595E-006
   1.8600000000000005E-002     2.7058713385486044E-006
   1.9700000000000023E-002     3.1523093184659956E-006
   2.0800000000000013E-002     3.6617584555642679E-006
   2.1900000000000003E-002     4.2409087654959876E-006
   2.3000000000000020E-002     4.8967017391987611E-006
   2.4100000000000010E-002     5.6363796829828061E-006
   2.5200000000000000E-002     6.4675632529542781E-006
   2.6300000000000018E-002     7.3983264883281663E-006
   2.7400000000000008E-002     8.4371777120395564E-006
   2.8500000000000025E-002     9.5923987828427926E-006
   2.9600000000000015E-002     1.0871375707210973E-005
   3.0700000000000005E-002     1.2280693226784933E-005
   3.1800000000000023E-002     1.3826810572936665E-005
   3.2900000000000013E-002     1.5516559869865887E-005
   3.4000000000000002E-002     1.7356367607135326E-005
   3.5100000000000020E-002     1.9350540242157876E-005
   3.6200000000000010E-002     2.1500640286831185E-005
   3.7300000000000028E-002     2.3805861928849481E-005
   3.8400000000000017E-002     2.6264731786795892E-005
   3.9500000000000007E-002     2.8874614145024680E-005
   4.0600000000000025E-002     3.1629951990908012E-005
   4.1700000000000015E-002     3.4521057386882603E-005
   4.2800000000000005E-002     3.7533871363848448E-005
   4.3900000000000022E-002     4.0650720620760694E-005
   4.5000000000000012E-002     4.3851629015989602E-005
   4.6100000000000002E-002     4.7113091568462551E-005
   4.7200000000000020E-002     5.0408212700858712E-005
   4.8300000000000010E-002     5.3703850426245481E-005
   4.9400000000000027E-002     5.6961398513521999E-005
   5.0500000000000017E-002     6.0136997490189970E-005
   5.1600000000000007E-002     6.3184066675603390E-005
   5.2700000000000025E-002     6.6053391492459923E-005
   5.3800000000000014E-002     6.8693181674461812E-005
   5.4900000000000004E-002     7.1048474637791514E-005
   5.6000000000000022E-002     7.3058341513387859E-005
   5.7100000000000012E-002     7.4656622018665075E-005
   5.8200000000000002E-002     7.5778618338517845E-005
   5.9300000000000019E-002     7.6362397521734238E-005
   6.0400000000000009E-002     7.6349257142283022E-005
   6.1500000000000027E-002     7.5680058216676116E-005
   6.2600000000000017E-002     7.4293093348387629E-005
   6.3700000000000007E-002     7.2127855673898011E-005
   6.4800000000000024E-002     6.9133850047364831E-005
   6.5900000000000014E-002     6.5272688516415656E-005
   6.7000000000000004E-002     6.0514426877489313E-005
   6.8100000000000022E-002     5.4835094488225877E-005
   6.9200000000000012E-002     4.8215999413514510E-005
   7.0300000000000029E-002     4.0648686990607530E-005
   7.1400000000000019E-002     3.2142284908331931E-005
   7.2500000000000009E-002     2.2718699256074615E-005
   7.3600000000000027E-002     1.2419839549693279E-005
   7.4700000000000016E-002     1.3006758763367543E-006
   7.5800000000000006E-002    -1.0574149200692773E-005
   7.6900000000000024E-002    -2.3128110115067102E-005
   7.8000000000000014E-002    -3.6271321732783690E-005
   7.9100000000000004E-002    -4.9897153076017275E-005
   8.0200000000000021E-002    -6.3878404034767300E-005
   8.1300000000000011E-002    -7.8072203905321658E-005
   8.2400000000000029E-002    -9.2333946668077260E-005
   8.3500000000000019E-002    -1.0651854245224968E-004
   8.4600000000000009E-002    -1.2047884956700727E-004
   8.5700000000000026E-002    -1.3405027857515961E-004
   8.6800000000000016E-002    -1.4705721696373075E-004
   8.7900000000000006E-002    -1.5932564565446228E-004
   8.9000000000000024E-002    -1.7069598834495991E-004
   9.0100000000000013E-002    -1.8102175090461969E-004
   9.1200000000000003E-002    -1.9016169244423509E-004
   9.2300000000000021E-002    -1.9797730783466250E-004
   9.3400000000000011E-002    -2.0434102043509483E-004
   9.4500000000000028E-002    -2.0914105698466301E-004
   9.5600000000000018E-002    -2.1228611876722425E-004
   9.6700000000000008E-002    -2.1370830654632300E-004
   9.7800000000000026E-002    -2.1336659847293049E-004
   9.8900000000000016E-002    -2.1124344493728131E-004
  0.10000000000000001         -2.0733568817377090E-004
  0.10110000000000002         -2.0165230671409518E-004
  0.10220000000000001         -1.9422787590883672E-004
  0.10330000000000003         -1.8513525719754398E-004
  0.10440000000000002         -1.7448024300392717E-004
  0.10550000000000001         -1.6238278476521373E-004
  0.10660000000000003         -1.4896439097356051E-004
  0.10770000000000002         -1.3435859000310302E-004
  0.10880000000000001         -1.1872356844833121E-004
  0.10990000000000003         -1.0224128345726058E-004
  0.11100000000000002         -8.5107116319704801E-005
  0.11210000000000001         -6.7509470682125539E-005
  0.11320000000000002         -4.9642156227491796E-005
  0.11430000000000001         -3.1696999940322712E-005
  0.11540000000000003         -1.3863178537576459E-005
  0.11650000000000002          3.6822655147261685E-006
  0.11760000000000001          2.0757273887284100E-005
  0.11870000000000003          3.7176345358602703E-005
  0.11980000000000002          5.2776373195229098E-005
  0.12090000000000001          6.7427652538754046E-005
  0.12200000000000003          8.1026897532865405E-005
  0.12310000000000001          9.3471389845944941E-005
  0.12420000000000003          1.0465859668329358E-004
  0.12530000000000002          1.1450457532191649E-004
  0.12640000000000001          1.2296807835809886E-004
  0.12750000000000003          1.3003614731132984E-004
  0.12860000000000002          1.3570528244599700E-004
  0.12970000000000001          1.3997792848385870E-004
  0.13080000000000003          1.4287546218838543E-004
  0.13190000000000002          1.4444717089645565E-004
  0.13300000000000001          1.4475263014901429E-004
  0.13410000000000000          1.4385329268407077E-004
  0.13520000000000004          1.4182623999658972E-004
  0.13630000000000003          1.3877406308893114E-004
  0.13740000000000002          1.3481086352840066E-004
  0.13850000000000001          1.3003463391214609E-004
  0.13960000000000000          1.2453210365492851E-004
  0.14070000000000005          1.1840232036774978E-004
  0.14180000000000004          1.1177099804626778E-004
  0.14290000000000003          1.0476519673829898E-004
  0.14400000000000002          9.7483789431862533E-005
  0.14510000000000001          9.0003792138304561E-005
  0.14620000000000000          8.2410842878744006E-005
  0.14730000000000004          7.4806077464018017E-005
  0.14840000000000003          6.7280474468134344E-005
  0.14950000000000002          5.9898171457462013E-005
  0.15060000000000001          5.2711653552250937E-005
  0.15170000000000000          4.5781674998579547E-005
  0.15280000000000005          3.9168586226878688E-005
  0.15390000000000004          3.2907522836467251E-005
  0.15500000000000003          2.7009609766537324E-005
  0.15610000000000002          2.1490030121640302E-005
  0.15720000000000001          1.6383466572733596E-005
  0.15830000000000000          1.1718379937519785E-005
  0.15940000000000004          7.4885283538606018E-006
  0.16050000000000003          3.6651440495916177E-006
  0.16160000000000002          2.3414132499510742E-007
  0.16270000000000001         -2.7971852887276327E-006
  0.16380000000000000         -5.4270249165710993E-006
  0.16490000000000005         -7.6828619057778269E-006
  0.16600000000000004         -9.6036264949361794E-006
  0.16710000000000003         -1.1212285244255327E-005
  0.16820000000000002         -1.2516019523900468E-005
  0.16930000000000001         -1.3533898709283676E-005
  0.17040000000000000         -1.4306386219686829E-005
  0.17150000000000004         -1.4866836863802746E-005
  0.17260000000000003         -1.5224781236611307E-005
  0.17370000000000002         -1.5386376617243513E-005
  0.17480000000000001         -1.5382711353595369E-005
  0.17590000000000000         -1.5258068742696196E-005
  0.17700000000000005         -1.5035554497444537E-005
  0.17810000000000004         -1.4709761671838351E-005
  0.17920000000000003         -1.4281221410783473E-005
  0.18030000000000002         -1.3779796972812619E-005
  0.18140000000000001         -1.3243258763395716E-005
  0.18250000000000000         -1.2682159649557434E-005
  0.18360000000000004         -1.2083462024747860E-005
  0.18470000000000003         -1.1447016731835902E-005
  0.18580000000000002         -1.0799251867865678E-005
  0.18690000000000001         -1.0165419553231914E-005
  0.18800000000000000         -9.5423902166658081E-006
  0.18910000000000005         -8.9144550656783395E-006
  0.19020000000000004         -8.2863862189697102E-006
  0.19130000000000003         -7.6823052950203419E-006
  0.19240000000000002         -7.1137133090815041E-006
  0.19350000000000001         -6.5662256929499563E-006
  0.19460000000000005         -6.0258685152803082E-006
  0.19570000000000004         -5.5037830861692782E-006
  0.19680000000000003         -5.0212656788062304E-006
  0.19790000000000002         -4.5783863242832012E-006
  0.19900000000000001         -4.1557286749593914E-006
  0.20010000000000000         -3.7461393276316812E-006
  0.20120000000000005         -3.3672522476990707E-006
  0.20230000000000004         -3.0347146093845367E-006
  0.20340000000000003         -2.7377348033041926E-006
  0.20450000000000002         -2.4544017378502758E-006
  0.20560000000000000         -2.1849516542715719E-006
  0.20670000000000005         -1.9516528482199647E-006
  0.20780000000000004         -1.7654523389865062E-006
  0.20890000000000003         -1.6099095319077605E-006
