 -0.12000000000000000          0.0000000000000000
 -0.11889999999999999          0.0000000000000000
 -0.11780000000000000          0.0000000000000000
 -0.11670000000000000          0.0000000000000000
 -0.11559999999999999         -1.6396099769230323E-014
 -0.11449999999999999          2.1678969722356035E-014
 -0.11340000000000000          1.2450507476131217E-013
 -0.11230000000000000         -1.4875999195494705E-013
 -0.11119999999999999         -7.5565861077167562E-013
 -0.11009999999999999          1.9396078710168241E-013
 -0.10900000000000000          3.1764747082663192E-012
 -0.10790000000000000          2.0208476819022492E-012
 -0.10679999999999999         -8.5105186786726961E-012
 -0.10569999999999999         -1.4544769902369303E-011
 -0.10460000000000000          8.3655634502965981E-012
 -0.10349999999999999          4.6377145179743451E-011
 -0.10239999999999999          3.1755837542890575E-011
 -0.10130000000000000         -6.6460323355777007E-011
 -0.10020000000000000         -1.4168193007702001E-010
  -9.9099999999999994E-002    -3.8163618099051888E-011
  -9.7999999999999990E-002     2.0275020551352441E-010
  -9.6899999999999986E-002     2.9167251947015416E-010
  -9.5799999999999996E-002     3.1752465240453276E-011
  -9.4699999999999993E-002    -3.4510547197719177E-010
  -9.3599999999999989E-002    -3.9535819063019062E-010
  -9.2499999999999999E-002    -5.2329231226000417E-011
  -9.1399999999999995E-002     2.5030352790444965E-010
  -9.0299999999999991E-002     1.9362096648212201E-010
  -8.9200000000000002E-002     5.4075438571388190E-011
  -8.8099999999999984E-002     2.4755580918522924E-010
  -8.6999999999999994E-002     5.6480004007042339E-010
  -8.5899999999999990E-002     3.5876590587236024E-010
  -8.4799999999999986E-002    -4.5047959806865379E-010
  -8.3699999999999997E-002    -1.0953533635671420E-009
  -8.2599999999999993E-002    -9.6009944439146011E-010
  -8.1499999999999989E-002    -3.4731625908612784E-010
  -8.0399999999999999E-002     2.2505763919156152E-010
  -7.9299999999999995E-002     9.2577479016142661E-010
  -7.8199999999999992E-002     1.8414186842008462E-009
  -7.7100000000000002E-002     1.5221517379870875E-009
  -7.5999999999999984E-002    -2.3158108763965402E-009
  -7.4899999999999994E-002    -1.0041559583839899E-008
  -7.3799999999999991E-002    -1.9254560612580462E-008
  -7.2699999999999987E-002    -2.7822247616882123E-008
  -7.1599999999999997E-002    -3.6855020368875557E-008
  -7.0499999999999993E-002    -4.8887887516002593E-008
  -6.9399999999999989E-002    -6.3468519329035189E-008
  -6.8300000000000000E-002    -7.7072868975847086E-008
  -6.7199999999999996E-002    -8.8544872767215566E-008
  -6.6099999999999992E-002    -1.0255890003918466E-007
  -6.5000000000000002E-002    -1.2546379934974539E-007
  -6.3899999999999985E-002    -1.5878870840424497E-007
  -6.2799999999999995E-002    -1.9951411900365201E-007
  -6.1699999999999991E-002    -2.4643509277666453E-007
  -6.0599999999999994E-002    -3.0301100650831359E-007
  -5.9499999999999990E-002    -3.7302132227523543E-007
  -5.8399999999999994E-002    -4.5698186568188248E-007
  -5.7299999999999990E-002    -5.5577334023837466E-007
  -5.6199999999999986E-002    -6.7517709112507873E-007
  -5.5099999999999996E-002    -8.2239961329833022E-007
  -5.3999999999999992E-002    -9.9918963769596303E-007
  -5.2899999999999989E-002    -1.2042094112985069E-006
  -5.1799999999999985E-002    -1.4437680420087418E-006
  -5.0699999999999995E-002    -1.7342944147458184E-006
  -4.9599999999999991E-002    -2.0892625798296649E-006
  -4.8499999999999988E-002    -2.5078993530769367E-006
  -4.7399999999999998E-002    -2.9845678000128828E-006
  -4.6299999999999994E-002    -3.5290706819068873E-006
  -4.5199999999999990E-002    -4.1695643631101120E-006
  -4.4099999999999986E-002    -4.9321242840960622E-006
  -4.2999999999999997E-002    -5.8245768741471693E-006
  -4.1899999999999993E-002    -6.8469535108306445E-006
  -4.0799999999999989E-002    -8.0130403148359619E-006
  -3.9699999999999985E-002    -9.3523813120555133E-006
  -3.8599999999999995E-002    -1.0892681530094706E-005
  -3.7499999999999992E-002    -1.2651219549297821E-005
  -3.6399999999999988E-002    -1.4646877389168367E-005
  -3.5299999999999984E-002    -1.6909078112803400E-005
  -3.4199999999999994E-002    -1.9466599042061716E-005
  -3.3099999999999991E-002    -2.2335407265927643E-005
  -3.1999999999999987E-002    -2.5531577193760313E-005
  -3.0899999999999997E-002    -2.9093922421452589E-005
  -2.9799999999999993E-002    -3.3076787076424807E-005
  -2.8699999999999989E-002    -3.7513476854655892E-005
  -2.7599999999999986E-002    -4.2401243263157085E-005
  -2.6499999999999996E-002    -4.7735487896716222E-005
  -2.5399999999999992E-002    -5.3549130825558677E-005
  -2.4299999999999988E-002    -5.9899528423557058E-005
  -2.3199999999999985E-002    -6.6816726757679135E-005
  -2.2099999999999995E-002    -7.4284485890530050E-005
  -2.0999999999999991E-002    -8.2278202171437442E-005
  -1.9899999999999987E-002    -9.0801164333242923E-005
  -1.8799999999999983E-002    -9.9868157121818513E-005
  -1.7699999999999994E-002    -1.0946355178020895E-004
  -1.6599999999999990E-002    -1.1954074579989538E-004
  -1.5499999999999986E-002    -1.3005638902541250E-004
  -1.4399999999999996E-002    -1.4097701932769269E-004
  -1.3299999999999992E-002    -1.5224090020637959E-004
  -1.2199999999999989E-002    -1.6373851394746453E-004
  -1.1099999999999985E-002    -1.7535037477500737E-004
  -9.9999999999999950E-003    -1.8699256179388613E-004
  -8.8999999999999913E-003    -1.9858920131810009E-004
  -7.7999999999999875E-003    -2.1000411652494222E-004
  -6.6999999999999837E-003    -2.2102902585174888E-004
  -5.5999999999999939E-003    -2.3145882005337626E-004
  -4.4999999999999901E-003    -2.4113936524372548E-004
  -3.3999999999999864E-003    -2.4993324768729508E-004
  -2.2999999999999826E-003    -2.5763551821000874E-004
  -1.1999999999999927E-003    -2.6398917543701828E-004
  -9.9999999999988987E-005    -2.6875638286583126E-004
   1.0000000000000148E-003    -2.7175087598152459E-004
   2.1000000000000185E-003    -2.7278385823592544E-004
   3.2000000000000084E-003    -2.7161248726770282E-004
   4.3000000000000121E-003    -2.6799185434356332E-004
   5.4000000000000159E-003    -2.6174489175900817E-004
   6.5000000000000058E-003    -2.5275396183133125E-004
   7.6000000000000234E-003    -2.4087179917842150E-004
   8.7000000000000133E-003    -2.2590381558984518E-004
   9.8000000000000032E-003    -2.0770284754689783E-004
   1.0900000000000021E-002    -1.8624211952555925E-004
   1.2000000000000011E-002    -1.6156843048520386E-004
   1.3100000000000001E-002    -1.3369547377806157E-004
   1.4200000000000018E-002    -1.0261398711008951E-004
   1.5300000000000008E-002    -6.8393623223528266E-005
   1.6400000000000026E-002    -3.1239011150319129E-005
   1.7500000000000016E-002     8.5982992459321395E-006
   1.8600000000000005E-002     5.0891994760604575E-005
   1.9700000000000023E-002     9.5392540970351547E-005
   2.0800000000000013E-002     1.4173155068419874E-004
   2.1900000000000003E-002     1.8944199837278575E-004
   2.3000000000000020E-002     2.3806878016330302E-004
   2.4100000000000010E-002     2.8721435228362679E-004
   2.5200000000000000E-002     3.3643344067968428E-004
   2.6300000000000018E-002     3.8513800245709717E-004
   2.7400000000000008E-002     4.3267593719065189E-004
   2.8500000000000025E-002     4.7848423128016293E-004
   2.9600000000000015E-002     5.2210188005119562E-004
   3.0700000000000005E-002     5.6303117889910936E-004
   3.1800000000000023E-002     6.0066557489335537E-004
   3.2900000000000013E-002     6.3440646044909954E-004
   3.4000000000000002E-002     6.6379754571244121E-004
   3.5100000000000020E-002     6.8849028320983052E-004
   3.6200000000000010E-002     7.0810457691550255E-004
   3.7300000000000028E-002     7.2222540620714426E-004
   3.8400000000000017E-002     7.3055352549999952E-004
   3.9500000000000007E-002     7.3297531343996525E-004
   4.0600000000000025E-002     7.2944915154948831E-004
   4.1700000000000015E-002     7.1987131377682090E-004
   4.2800000000000005E-002     7.0416927337646484E-004
   4.3900000000000022E-002     6.8245979491621256E-004
   4.5000000000000012E-002     6.5506034297868609E-004
   4.6100000000000002E-002     6.2230939511209726E-004
   4.7200000000000020E-002     5.8446038747206330E-004
   4.8300000000000010E-002     5.4181227460503578E-004
   4.9400000000000027E-002     4.9487088108435273E-004
   5.0500000000000017E-002     4.4428129331208766E-004
   5.1600000000000007E-002     3.9063004078343511E-004
   5.2700000000000025E-002     3.3440702827647328E-004
   5.3800000000000014E-002     2.7618685271590948E-004
   5.4900000000000004E-002     2.1671052672900259E-004
   5.6000000000000022E-002     1.5673563757445663E-004
   5.7100000000000012E-002     9.6852832939475775E-005
   5.8200000000000002E-002     3.7553571019088849E-005
   5.9300000000000019E-002    -2.0562099962262437E-005
   6.0400000000000009E-002    -7.6769458246417344E-005
   6.1500000000000027E-002    -1.3044505612924695E-004
   6.2600000000000017E-002    -1.8119494779966772E-004
   6.3700000000000007E-002    -2.2871841792948544E-004
   6.4800000000000024E-002    -2.7260711067356169E-004
   6.5900000000000014E-002    -3.1239821691997349E-004
   6.7000000000000004E-002    -3.4780552960000932E-004
   6.8100000000000022E-002    -3.7876603892073035E-004
   6.9200000000000012E-002    -4.0523867937736213E-004
   7.0300000000000029E-002    -4.2707633110694587E-004
   7.1400000000000019E-002    -4.4415777665562928E-004
   7.2500000000000009E-002    -4.5659719035029411E-004
   7.3600000000000027E-002    -4.6467193169519305E-004
   7.4700000000000016E-002    -4.6857426059432328E-004
   7.5800000000000006E-002    -4.6836087130941451E-004
   7.6900000000000024E-002    -4.6417856356129050E-004
   7.8000000000000014E-002    -4.5642489567399025E-004
   7.9100000000000004E-002    -4.4557824730873108E-004
   8.0200000000000021E-002    -4.3194842874072492E-004
   8.1300000000000011E-002    -4.1571210022084415E-004
   8.2400000000000029E-002    -3.9716772153042257E-004
   8.3500000000000019E-002    -3.7680967943742871E-004
   8.4600000000000009E-002    -3.5510183079168200E-004
   8.5700000000000026E-002    -3.3230011467821896E-004
   8.6800000000000016E-002    -3.0859166872687638E-004
   8.7900000000000006E-002    -2.8432428371161222E-004
   8.9000000000000024E-002    -2.5995544274337590E-004
   9.0100000000000013E-002    -2.3579118715133518E-004
   9.1200000000000003E-002    -2.1191709674894810E-004
   9.2300000000000021E-002    -1.8843676662072539E-004
   9.3400000000000011E-002    -1.6565124678891152E-004
   9.4500000000000028E-002    -1.4390006253961474E-004
   9.5600000000000018E-002    -1.2329852324910462E-004
   9.6700000000000008E-002    -1.0377309081377462E-004
   9.7800000000000026E-002    -8.5339073848444968E-005
   9.8900000000000016E-002    -6.8200635723769665E-005
  0.10000000000000001         -5.2525079809129238E-005
  0.10110000000000002         -3.8246031181188300E-005
  0.10220000000000001         -2.5200291929650120E-005
  0.10330000000000003         -1.3386298633122351E-005
  0.10440000000000002         -2.9388254461082397E-006
  0.10550000000000001          6.1323462432483211E-006
  0.10660000000000003          1.4033894331078045E-005
  0.10770000000000002          2.0955721993232146E-005
  0.10880000000000001          2.6870609872275963E-005
  0.10990000000000003          3.1677573133492842E-005
  0.11100000000000002          3.5465644032228738E-005
  0.11210000000000001          3.8495938497362658E-005
  0.11320000000000002          4.0923518099589273E-005
  0.11430000000000001          4.2685642256401479E-005
  0.11540000000000003          4.3717715016100556E-005
  0.11650000000000002          4.4164175051264465E-005
  0.11760000000000001          4.4259111746214330E-005
  0.11870000000000003          4.4067917770007625E-005
  0.11980000000000002          4.3487612856552005E-005
  0.12090000000000001          4.2503492295509204E-005
  0.12200000000000003          4.1301420424133539E-005
  0.12310000000000001          4.0058857848634943E-005
  0.12420000000000003          3.8738773582736030E-005
  0.12530000000000002          3.7206667911959812E-005
  0.12640000000000001          3.5491808375809342E-005
  0.12750000000000003          3.3791082387324423E-005
  0.12860000000000002          3.2212374208029360E-005
  0.12970000000000001          3.0648792744614184E-005
  0.13080000000000003          2.8977154215681367E-005
  0.13190000000000002          2.7270270948065445E-005
  0.13300000000000001          2.5700808691908605E-005
  0.13410000000000000          2.4290304281748831E-005
  0.13520000000000004          2.2893011191627011E-005
  0.13630000000000003          2.1435129383462481E-005
  0.13740000000000002          2.0037668946315534E-005
  0.13850000000000001          1.8833346985047683E-005
  0.13960000000000000          1.7762557035894133E-005
  0.14070000000000005          1.6664347640471533E-005
  0.14180000000000004          1.5521409295615740E-005
  0.14290000000000003          1.4483498489425983E-005
  0.14400000000000002          1.3637045412906446E-005
  0.14510000000000001          1.2874863386969082E-005
  0.14620000000000000          1.2061144843755756E-005
  0.14730000000000004          1.1232205906708259E-005
  0.14840000000000003          1.0528106940910220E-005
  0.14950000000000002          9.9688768386840820E-006
  0.15060000000000001          9.4232864285004325E-006
  0.15170000000000000          8.8125389083870687E-006
  0.15280000000000005          8.2280048445682041E-006
  0.15390000000000004          7.7827608038205653E-006
  0.15500000000000003          7.4296740422141738E-006
  0.15610000000000002          7.0290197982103564E-006
  0.15720000000000001          6.5607378019194584E-006
  0.15830000000000000          6.1523278418462723E-006
  0.15940000000000004          5.8818445722863544E-006
  0.16050000000000003          5.6580606724310201E-006
  0.16160000000000002          5.3573744480672758E-006
  0.16270000000000001          5.0050275604007766E-006
  0.16380000000000000          4.7275652832468040E-006
  0.16490000000000005          4.5570077418233268E-006
  0.16600000000000004          4.3877125790459104E-006
  0.16710000000000003          4.1426956158829853E-006
  0.16820000000000002          3.8870703065185808E-006
  0.16930000000000001          3.7192282889009221E-006
  0.17040000000000000          3.6157375689072069E-006
  0.17150000000000004          3.4700390187936136E-006
  0.17260000000000003          3.2590544378763298E-006
  0.17370000000000002          3.0764565508434316E-006
  0.17480000000000001          2.9849620659661014E-006
  0.17590000000000000          2.9189018277975265E-006
  0.17700000000000005          2.7856128781422740E-006
  0.17810000000000004          2.6061857170134317E-006
  0.17920000000000003          2.4801929612294771E-006
  0.18030000000000002          2.4331529857590795E-006
  0.18140000000000001          2.3804491320333909E-006
  0.18250000000000000          2.2585977603739593E-006
  0.18360000000000004          2.1181133433856303E-006
  0.18470000000000003          2.0414483969943831E-006
  0.18580000000000002          2.0172353742964333E-006
  0.18690000000000001          1.9627423171186820E-006
  0.18800000000000000          1.8520103139962885E-006
  0.18910000000000005          1.7511306396045256E-006
  0.19020000000000004          1.7123653606176958E-006
  0.19130000000000003          1.6955470982793486E-006
  0.19240000000000002          1.6337409078914789E-006
  0.19350000000000001          1.5363531247203355E-006
  0.19460000000000005          1.4711241647091811E-006
  0.19570000000000004          1.4586439647246152E-006
  0.19680000000000003          1.4439666529142414E-006
  0.19790000000000002          1.3835850722898613E-006
  0.19900000000000001          1.3101329159326269E-006
  0.20010000000000000          1.2782702469849028E-006
  0.20120000000000005          1.2810228326998185E-006
  0.20230000000000004          1.2648575875573442E-006
  0.20340000000000003          1.2143339063186431E-006
  0.20450000000000002          1.1738477496692212E-006
  0.20560000000000000          1.1769149068641127E-006
  0.20670000000000005          1.1961740256083431E-006
  0.20780000000000004          1.1885285857715644E-006
  0.20890000000000003          1.1623160389717668E-006
