 -0.12000000000000000          0.0000000000000000
 -0.11889999999999999          0.0000000000000000
 -0.11780000000000000          0.0000000000000000
 -0.11670000000000000          0.0000000000000000
 -0.11559999999999999          0.0000000000000000
 -0.11449999999999999          0.0000000000000000
 -0.11340000000000000          0.0000000000000000
 -0.11230000000000000          4.5173334915543855E-021
 -0.11119999999999999         -2.1335217507987356E-021
 -0.11009999999999999         -5.0255093159369238E-020
 -0.10900000000000000          6.3247356507830386E-021
 -0.10790000000000000          3.2296866351523760E-019
 -0.10679999999999999          1.0674545438911759E-019
 -0.10569999999999999         -1.4623046727246917E-018
 -0.10460000000000000         -1.2596291892296786E-018
 -0.10349999999999999          4.7662452952132099E-018
 -0.10239999999999999          7.2483702952041428E-018
 -0.10130000000000000         -1.0592413357572268E-017
 -0.10020000000000000         -2.7792534045397783E-017
  -9.9099999999999994E-002     1.2570429676855009E-017
  -9.7999999999999990E-002     7.9820454186974412E-017
  -9.6899999999999986E-002     1.2145893289532581E-017
  -9.5799999999999996E-002    -1.8955652388419461E-016
  -9.4699999999999993E-002    -1.2844021153382026E-016
  -9.3599999999999989E-002     3.9215269647489555E-016
  -9.2499999999999999E-002     5.3948957778724880E-016
  -9.1399999999999995E-002    -6.0574322437205929E-016
  -9.0299999999999991E-002    -1.6980234441964096E-015
  -8.9200000000000002E-002     1.2997053537171276E-016
  -8.8099999999999984E-002     3.8443733805615214E-015
  -8.6999999999999994E-002     2.7951615038523817E-015
  -8.5899999999999990E-002    -5.4412934898660000E-015
  -8.4799999999999986E-002    -9.5917477316320200E-015
  -8.3699999999999997E-002     2.5227923421903675E-015
  -8.2599999999999993E-002     1.8417181367751286E-014
  -8.1499999999999989E-002     8.2132532789854287E-015
  -8.0399999999999999E-002    -2.5318133277819205E-014
  -7.9299999999999995E-002    -2.8646847399652411E-014
  -7.8199999999999992E-002     2.6885403422321520E-014
  -7.7100000000000002E-002     6.7104504732854592E-014
  -7.5999999999999984E-002    -4.8577093885479421E-015
  -7.4899999999999994E-002    -1.2584730349832207E-013
  -7.3799999999999991E-002    -8.8558866728587204E-014
  -7.2699999999999987E-002     1.4607451804139054E-013
  -7.1599999999999997E-002     2.6607240174135460E-013
  -7.0499999999999993E-002    -1.4646061937567158E-014
  -6.9399999999999989E-002    -4.1285182737771375E-013
  -6.8300000000000000E-002    -2.8991471224572296E-013
  -6.7199999999999996E-002     3.7689420811712337E-013
  -6.6099999999999992E-002     6.6022832817189125E-013
  -6.5000000000000002E-002    -1.0487629238361065E-013
  -6.3899999999999985E-002    -1.0222468488016445E-012
  -6.2799999999999995E-002    -5.2546741914280548E-013
  -6.1699999999999991E-002     1.1612622755757807E-012
  -6.0599999999999994E-002     1.6429044539731374E-012
  -5.9499999999999990E-002    -4.3080418247500030E-013
  -5.8399999999999994E-002    -2.6582672695008025E-012
  -5.7299999999999990E-002    -1.4798652754610675E-012
  -5.6199999999999986E-002     2.3741798457765917E-012
  -5.5099999999999996E-002     3.6569909427075498E-012
  -5.3999999999999992E-002    -3.4669578948161306E-013
  -5.2899999999999989E-002    -4.7691733374988221E-012
  -5.1799999999999985E-002    -2.8353883910897659E-012
  -5.0699999999999995E-002     3.9462586844118963E-012
  -4.9599999999999991E-002     6.1617841905226012E-012
  -4.8499999999999988E-002    -6.3211735108412159E-013
  -4.7399999999999998E-002    -7.9608515959894710E-012
  -4.6299999999999994E-002    -4.8449391200355851E-012
  -4.5199999999999990E-002     5.9952849976174782E-012
  -4.4099999999999986E-002     1.0003430375715716E-011
  -4.2999999999999997E-002     7.0884736882298460E-013
  -4.1899999999999993E-002    -9.9523488408803651E-012
  -4.0799999999999989E-002    -7.5309827818337283E-012
  -3.9699999999999985E-002     4.1719969492981512E-012
  -3.8599999999999995E-002     8.2179263394266400E-012
  -3.7499999999999992E-002    -6.3618684972843731E-013
  -3.6399999999999988E-002    -8.0510433389524572E-012
  -3.5299999999999984E-002    -1.8640540500047820E-012
  -3.4199999999999994E-002     9.1509144012347221E-012
  -3.3099999999999991E-002     8.9054917953856894E-012
  -3.1999999999999987E-002    -8.5697226225034395E-013
  -3.0899999999999997E-002    -4.3739066188375197E-012
  -2.9799999999999993E-002     6.2586822660234964E-013
  -2.8699999999999989E-002    -1.9755590392744882E-012
  -2.7599999999999986E-002    -1.6762572233042228E-011
  -2.6499999999999996E-002    -2.0915059614767806E-011
  -2.5399999999999992E-002     2.9936372391431432E-012
  -2.4299999999999988E-002     3.0773061182598482E-011
  -2.3199999999999985E-002     2.1650204198864209E-011
  -2.2099999999999995E-002    -1.9671904730178547E-011
  -2.0999999999999991E-002    -3.8418952047480914E-011
  -1.9899999999999987E-002    -5.0696547654327517E-012
  -1.8799999999999983E-002     3.2673162786434062E-011
  -1.7699999999999994E-002     9.1698966128705983E-012
  -1.6599999999999990E-002    -5.9848806466256121E-011
  -1.5499999999999986E-002    -8.4297735458704892E-011
  -1.4399999999999996E-002    -1.9526772560007899E-011
  -1.3299999999999992E-002     6.4592393933526893E-011
  -1.2199999999999989E-002     6.8628172589235703E-011
  -1.1099999999999985E-002    -7.4422343288027548E-012
  -9.9999999999999950E-003    -7.1732703110782836E-011
  -8.8999999999999913E-003    -6.8137578912441654E-011
  -7.7999999999999875E-003    -4.2644988235140957E-011
  -6.6999999999999837E-003    -6.0994896633470574E-011
  -5.5999999999999939E-003    -1.1023234408602534E-010
  -4.4999999999999901E-003    -1.3042837643251204E-010
  -3.3999999999999864E-003    -1.1116352283124797E-010
  -2.2999999999999826E-003    -9.0995086465817110E-011
  -1.1999999999999927E-003    -8.0088921605714347E-011
  -9.9999999999988987E-005    -4.8979976324803332E-011
   1.0000000000000148E-003    -2.2864174095693635E-011
   2.1000000000000185E-003    -9.6922747605532322E-011
   3.2000000000000084E-003    -3.0069874368265914E-010
   4.3000000000000121E-003    -4.9858628337062783E-010
   5.4000000000000159E-003    -5.2091281288468849E-010
   6.5000000000000058E-003    -3.9217085134879426E-010
   7.6000000000000234E-003    -3.3296687629302824E-010
   8.7000000000000133E-003    -4.5393783176805869E-010
   9.8000000000000032E-003    -6.1491367553401233E-010
   1.0900000000000021E-002    -6.1189442401854421E-010
   1.2000000000000011E-002    -4.6783782403636565E-010
   1.3100000000000001E-002    -4.5468717679852944E-010
   1.4200000000000018E-002    -7.3544709211503800E-010
   1.5300000000000008E-002    -1.1659129217633790E-009
   1.6400000000000026E-002    -1.4732191022659435E-009
   1.7500000000000016E-002    -1.5575002398904303E-009
   1.8600000000000005E-002    -1.5423379240431245E-009
   1.9700000000000023E-002    -1.5608447867521136E-009
   2.0800000000000013E-002    -1.5870266212303363E-009
   2.1900000000000003E-002    -1.6275314429492482E-009
   2.3000000000000020E-002    -1.7213405145710681E-009
   2.4100000000000010E-002    -1.9135020234983813E-009
   2.5200000000000000E-002    -2.1204047406797599E-009
   2.6300000000000018E-002    -2.2607546945607737E-009
   2.7400000000000008E-002    -2.4869022396956098E-009
   2.8500000000000025E-002    -2.9287818836820634E-009
   2.9600000000000015E-002    -3.3652984843257627E-009
   3.0700000000000005E-002    -3.4455274189326701E-009
   3.1800000000000023E-002    -3.2840961061708640E-009
   3.2900000000000013E-002    -3.0352351743090367E-009
   3.4000000000000002E-002    -2.9723399297409969E-009
   3.5100000000000020E-002    -2.9828632897022089E-009
   3.6200000000000010E-002    -2.9635827125673586E-009
   3.7300000000000028E-002    -2.6603703684457969E-009
   3.8400000000000017E-002    -2.6462305680041709E-009
   3.9500000000000007E-002    -2.8226689874344402E-009
   4.0600000000000025E-002    -2.8718043498798806E-009
   4.1700000000000015E-002    -2.6109245876426712E-009
   4.2800000000000005E-002    -2.2462485205210214E-009
   4.3900000000000022E-002    -1.4879075749263393E-009
   4.5000000000000012E-002    -9.1406376911962184E-010
   4.6100000000000002E-002    -9.0983559575263939E-010
   4.7200000000000020E-002    -8.3618598156753876E-011
   4.8300000000000010E-002     9.2867102896576625E-010
   4.9400000000000027E-002     2.1386283854951671E-009
   5.0500000000000017E-002     3.0609164092254559E-009
   5.1600000000000007E-002     3.9373704296963297E-009
   5.2700000000000025E-002     4.9823394299153279E-009
   5.3800000000000014E-002     5.1777573339961691E-009
   5.4900000000000004E-002     4.9223847220503103E-009
   5.6000000000000022E-002     6.6407737087104124E-009
   5.7100000000000012E-002     9.0213401193750542E-009
   5.8200000000000002E-002     1.0066982802925395E-008
   5.9300000000000019E-002     8.9838971817357560E-009
   6.0400000000000009E-002     1.0625138990860705E-008
   6.1500000000000027E-002     1.3411781907279874E-008
   6.2600000000000017E-002     1.4008354476402474E-008
   6.3700000000000007E-002     1.2576439445410870E-008
   6.4800000000000024E-002     1.3081088212629766E-008
   6.5900000000000014E-002     1.4415912019671850E-008
   6.7000000000000004E-002     1.5750874382547408E-008
   6.8100000000000022E-002     1.4442673723635835E-008
   6.9200000000000012E-002     1.3025108991371326E-008
   7.0300000000000029E-002     1.3502571505341621E-008
   7.1400000000000019E-002     1.5139510978201542E-008
   7.2500000000000009E-002     1.3621411554254337E-008
   7.3600000000000027E-002     9.6601580068522708E-009
   7.4700000000000016E-002     7.4434987062943492E-009
   7.5800000000000006E-002     9.8668975212490295E-009
   7.6900000000000024E-002     1.2606840016360366E-008
   7.8000000000000014E-002     1.0974395614482546E-008
   7.9100000000000004E-002     3.4944420690408151E-009
   8.0200000000000021E-002    -2.2501442931144311E-009
   8.1300000000000011E-002    -2.1435593300367373E-009
   8.2400000000000029E-002     1.0011780293694983E-009
   8.3500000000000019E-002     1.0034465480757149E-009
   8.4600000000000009E-002    -4.2704817460048616E-009
   8.5700000000000026E-002    -1.0284447071740033E-008
   8.6800000000000016E-002    -1.3055900360825490E-008
   8.7900000000000006E-002    -1.3562216238938163E-008
   8.9000000000000024E-002    -1.3678223886870455E-008
   9.0100000000000013E-002    -1.3616753946621429E-008
   9.1200000000000003E-002    -1.3501352036371372E-008
   9.2300000000000021E-002    -1.5564475930318622E-008
   9.3400000000000011E-002    -2.1432933650089581E-008
   9.4500000000000028E-002    -2.7843048755471500E-008
   9.5600000000000018E-002    -2.6545766473873300E-008
   9.6700000000000008E-002    -1.7393059437154079E-008
   9.7800000000000026E-002    -1.0978898679070426E-008
   9.8900000000000016E-002    -1.5029451461145982E-008
  0.10000000000000001         -2.6140543951669315E-008
  0.10110000000000002         -3.0868868350353296E-008
  0.10220000000000001         -2.3441971919169191E-008
  0.10330000000000003         -1.2116836423103905E-008
  0.10440000000000002         -6.9337540153924238E-009
  0.10550000000000001         -1.0128658800567791E-008
  0.10660000000000003         -1.5261562680279894E-008
  0.10770000000000002         -1.8400729828726980E-008
  0.10880000000000001         -1.4165220107997811E-008
  0.10990000000000003         -5.1918633836578465E-009
  0.11100000000000002          2.1249382253785143E-009
  0.11210000000000001          6.2392375710373926E-009
  0.11320000000000002          2.9485305308440957E-009
  0.11430000000000001         -5.6783613366917507E-009
  0.11540000000000003         -1.0720389020946186E-008
  0.11650000000000002         -1.6065099250894832E-009
  0.11760000000000001          1.5670762465447297E-008
  0.11870000000000003          2.5261689629019202E-008
  0.11980000000000002          1.6645676836901657E-008
  0.12090000000000001         -1.0057713689670678E-010
  0.12200000000000003         -5.3791726628560355E-009
  0.12310000000000001          4.6708961143338001E-009
  0.12420000000000003          1.8544019653177202E-008
  0.12530000000000002          2.4854285740616433E-008
  0.12640000000000001          2.0715527071502038E-008
  0.12750000000000003          1.2581808483957957E-008
  0.12860000000000002          6.3336313971262825E-009
  0.12970000000000001          4.6240407058917299E-009
  0.13080000000000003          7.8278077353388653E-009
  0.13190000000000002          1.4865963571253360E-008
  0.13300000000000001          2.0167899350553853E-008
  0.13410000000000000          1.5889074944652748E-008
  0.13520000000000004          2.3799866522011826E-009
  0.13630000000000003         -8.4467854932768205E-009
  0.13740000000000002         -4.0554573033091401E-009
  0.13850000000000001          1.1923204645825081E-008
  0.13960000000000000          2.1920117276863493E-008
  0.14070000000000005          1.4545152637879255E-008
  0.14180000000000004         -1.8290171599488758E-009
  0.14290000000000003         -1.0349253898311872E-008
  0.14400000000000002         -5.2959858720669217E-009
  0.14510000000000001          3.7871843439063468E-009
  0.14620000000000000          6.2140461665194380E-009
  0.14730000000000004          2.9834752446333823E-009
  0.14840000000000003         -1.6814125092246002E-010
  0.14950000000000002         -2.9848883364991252E-009
  0.15060000000000001         -7.2727752709056404E-009
  0.15170000000000000         -9.1546770164541158E-009
  0.15280000000000005         -2.4907307327737271E-009
  0.15390000000000004          8.1944060426053511E-009
  0.15500000000000003          9.6988381770302112E-009
  0.15610000000000002         -2.9918041377641202E-009
  0.15720000000000001         -1.7428853027467994E-008
  0.15830000000000000         -1.6874613706363562E-008
  0.15940000000000004         -1.1035806712911267E-009
  0.16050000000000003          1.0739241496082741E-008
  0.16160000000000002          6.3833174301919371E-009
  0.16270000000000001         -5.7953251086928503E-009
  0.16380000000000000         -1.0432203545462926E-008
  0.16490000000000005         -5.8591376195238354E-009
  0.16600000000000004         -1.9379271520847396E-009
  0.16710000000000003         -2.4048114610764060E-009
  0.16820000000000002         -1.0117502391437938E-009
  0.16930000000000001          4.1614325319017098E-009
  0.17040000000000000          5.0395447814821637E-009
  0.17150000000000004         -3.7214591408485376E-009
  0.17260000000000003         -1.1904009333818522E-008
  0.17370000000000002         -6.0492113540533410E-009
  0.17480000000000001          8.8589482416523424E-009
  0.17590000000000000          1.3199998427637638E-008
  0.17700000000000005         -7.4364497892887016E-010
  0.17810000000000004         -1.5647305673383016E-008
  0.17920000000000003         -1.2446158770273996E-008
  0.18030000000000002          4.1622034707700095E-009
  0.18140000000000001          1.2510029456791472E-008
  0.18250000000000000          5.1053796745748059E-009
  0.18360000000000004         -4.3040198072219482E-009
  0.18470000000000003         -3.1699047831068583E-009
  0.18580000000000002          2.0244288467807792E-009
  0.18690000000000001         -4.7590981155920531E-010
  0.18800000000000000         -6.9545866843157000E-009
  0.18910000000000005         -3.9659271422465281E-009
  0.19020000000000004          7.5548740596786956E-009
  0.19130000000000003          1.0797038818566307E-008
  0.19240000000000002         -1.1248233455773970E-009
  0.19350000000000001         -1.2347086020270126E-008
  0.19460000000000005         -5.7792712837567706E-009
  0.19570000000000004          1.0377842585285180E-008
  0.19680000000000003          1.3382000396688909E-008
  0.19790000000000002         -1.4925094493634106E-009
  0.19900000000000001         -1.3513760777073003E-008
  0.20010000000000000         -7.0376291461116125E-009
  0.20120000000000005          6.8058505497958777E-009
  0.20230000000000004          7.9565145583160302E-009
  0.20340000000000003         -2.6424897825449989E-009
  0.20450000000000002         -6.3576504061302330E-009
  0.20560000000000000          2.4199342529840351E-009
  0.20670000000000005          7.9092750127074396E-009
  0.20780000000000004         -7.0521682937751962E-010
  0.20890000000000003         -1.0622132506910020E-008
