 -0.12000000000000000          0.0000000000000000
 -0.11889999999999999          0.0000000000000000
 -0.11780000000000000          0.0000000000000000
 -0.11670000000000000          0.0000000000000000
 -0.11559999999999999          0.0000000000000000
 -0.11449999999999999          0.0000000000000000
 -0.11340000000000000          0.0000000000000000
 -0.11230000000000000          0.0000000000000000
 -0.11119999999999999          0.0000000000000000
 -0.11009999999999999          0.0000000000000000
 -0.10900000000000000          0.0000000000000000
 -0.10790000000000000          1.9595432523687732E-030
 -0.10679999999999999         -4.4594181876975378E-030
 -0.10569999999999999         -3.0723168733656484E-029
 -0.10460000000000000          6.4258760928039496E-029
 -0.10349999999999999          2.9027105750369156E-028
 -0.10239999999999999         -4.6664724032818852E-028
 -0.10130000000000000         -2.0752628930081278E-027
 -0.10020000000000000          2.0507525455708836E-027
  -9.9099999999999994E-002     1.1726671578863000E-026
  -9.7999999999999990E-002    -4.6992039678727352E-027
  -9.6899999999999986E-002    -5.2944301046295055E-026
  -9.5799999999999996E-002    -4.7411819221265883E-027
  -9.4699999999999993E-002     1.9614081007829358E-025
  -9.3599999999999989E-002     9.7819787627343566E-026
  -9.2499999999999999E-002    -6.3135851460639503E-025
  -9.1399999999999995E-002    -5.6938402417042190E-025
  -9.0299999999999991E-002     1.8606501267583867E-024
  -8.9200000000000002E-002     2.6774759538542571E-024
  -8.8099999999999984E-002    -4.7387821209712444E-024
  -8.6999999999999994E-002    -1.1244339723764349E-023
  -8.5899999999999990E-002     7.5621405443062128E-024
  -8.4799999999999986E-002     3.8791155852524913E-023
  -8.3699999999999997E-002     7.0800360906894436E-024
  -8.2599999999999993E-002    -9.9121540255159860E-023
  -8.1499999999999989E-002    -9.3908551755954920E-023
  -8.0399999999999999E-002     1.6725550081530934E-022
  -7.9299999999999995E-002     3.3376182358437391E-022
  -7.8199999999999992E-002    -1.3471319618296594E-022
  -7.7100000000000002E-002    -7.7046037750793341E-022
  -7.5999999999999984E-002    -1.3724265027656453E-022
  -7.4899999999999994E-002     1.5122195466596766E-021
  -7.3799999999999991E-002     9.2447005806569157E-022
  -7.2699999999999987E-002    -3.0605335313228237E-021
  -7.1599999999999997E-002    -3.8644694800901877E-021
  -7.0499999999999993E-002     5.0086904884176046E-021
  -6.9399999999999989E-002     1.3157968466229547E-020
  -6.8300000000000000E-002    -6.3021767027615164E-022
  -6.7199999999999996E-002    -2.9442983378290710E-020
  -6.6099999999999992E-002    -2.4788656175717899E-020
  -6.5000000000000002E-002     3.5229573821019432E-020
  -6.3899999999999985E-002     7.4170610115336265E-020
  -6.2799999999999995E-002    -1.9731886621989216E-021
  -6.1699999999999991E-002    -1.1983194928054373E-019
  -6.0599999999999994E-002    -6.7404389026926139E-020
  -5.9499999999999990E-002     1.5570222295359950E-019
  -5.8399999999999994E-002     1.7528051530287276E-019
  -5.7299999999999990E-002    -2.2764279291158401E-019
  -5.6199999999999986E-002    -4.9464299446480594E-019
  -5.5099999999999996E-002     1.4486324887231383E-019
  -5.3999999999999992E-002     1.1741730567492487E-018
  -5.2899999999999989E-002     7.8317889496463422E-019
  -5.1799999999999985E-002    -1.4747682166043345E-018
  -5.0699999999999995E-002    -2.7673873332165826E-018
  -4.9599999999999991E-002    -1.2249883127420297E-019
  -4.8499999999999988E-002     4.1183540124795196E-018
  -4.7399999999999998E-002     3.5007147926984249E-018
  -4.6299999999999994E-002    -3.0219496851879392E-018
  -4.5199999999999990E-002    -6.4421458898798398E-018
  -4.4099999999999986E-002     6.6811253998816162E-019
  -4.2999999999999997E-002     9.3954383434549589E-018
  -4.1899999999999993E-002     2.9375352832914433E-018
  -4.0799999999999989E-002    -1.5047922465415645E-017
  -3.9699999999999985E-002    -1.5278245943897360E-017
  -3.8599999999999995E-002     1.5953074776869146E-017
  -3.7499999999999992E-002     4.0582351045855944E-017
  -3.6399999999999988E-002     8.1815102626833757E-018
  -3.5299999999999984E-002    -5.9322058340073331E-017
  -3.4199999999999994E-002    -6.6170227074395743E-017
  -3.3099999999999991E-002     3.0271875582627475E-017
  -3.1999999999999987E-002     1.2269180920238915E-016
  -3.0899999999999997E-002     6.5905112379350048E-017
  -2.9799999999999993E-002    -1.0320108477770016E-016
  -2.8699999999999989E-002    -1.6215151402961057E-016
  -2.7599999999999986E-002    -6.7996040299812349E-019
  -2.6499999999999996E-002     1.6911963057019807E-016
  -2.5399999999999992E-002     7.0321303938317554E-017
  -2.4299999999999988E-002    -1.8749020024425755E-016
  -2.3199999999999985E-002    -1.6165468950137652E-016
  -2.2099999999999995E-002     2.7199143790709803E-016
  -2.0999999999999991E-002     5.5430804862254836E-016
  -1.9899999999999987E-002     9.0519565571759895E-017
  -1.8799999999999983E-002    -7.8513532641942270E-016
  -1.7699999999999994E-002    -9.7998503860034824E-016
  -1.6599999999999990E-002    -4.5216183750153502E-017
  -1.5499999999999986E-002     1.0112116493547069E-015
  -1.4399999999999996E-002     8.9498189421159018E-016
  -1.3299999999999992E-002    -1.5423501175567387E-016
  -1.2199999999999989E-002    -5.3296271247262159E-016
  -1.1099999999999985E-002     4.2856714580317035E-016
  -9.9999999999999950E-003     1.1794346161408975E-015
  -8.8999999999999913E-003    -8.5322091998068703E-017
  -7.7999999999999875E-003    -2.5302777841034905E-015
  -6.6999999999999837E-003    -3.1038726141163417E-015
  -5.5999999999999939E-003    -3.7225814247515818E-016
  -4.4999999999999901E-003     3.1982898944391209E-015
  -3.3999999999999864E-003     3.9514857789395112E-015
  -2.2999999999999826E-003     1.4794339925423470E-015
  -1.1999999999999927E-003    -1.1479256257777479E-015
  -9.9999999999988987E-005    -1.6275637496328895E-015
   1.0000000000000148E-003    -1.1448485668386099E-015
   2.1000000000000185E-003    -1.7971650507824996E-015
   3.2000000000000084E-003    -2.7321363233460310E-015
   4.3000000000000121E-003    -1.0019885193502916E-015
   5.4000000000000159E-003     3.7841484909787934E-015
   6.5000000000000058E-003     7.7371538470256788E-015
   7.6000000000000234E-003     6.4931995666221189E-015
   8.7000000000000133E-003    -5.3551011112192969E-016
   9.8000000000000032E-003    -1.0282514958579164E-014
   1.0900000000000021E-002    -1.8462041926703768E-014
   1.2000000000000011E-002    -2.0110591658758711E-014
   1.3100000000000001E-002    -9.9625101462712251E-015
   1.4200000000000018E-002     1.2962019830956364E-014
   1.5300000000000008E-002     3.9879859532960041E-014
   1.6400000000000026E-002     5.4890869003983503E-014
   1.7500000000000016E-002     4.6560547301358057E-014
   1.8600000000000005E-002     1.6280625461597038E-014
   1.9700000000000023E-002    -2.6411956050519624E-014
   2.0800000000000013E-002    -7.2566105414114540E-014
   2.1900000000000003E-002    -1.1175898395740166E-013
   2.3000000000000020E-002    -1.2282880333495949E-013
   2.4100000000000010E-002    -8.0365598344959294E-014
   2.5200000000000000E-002     1.9458096768500306E-014
   2.6300000000000018E-002     1.3881192202636061E-013
   2.7400000000000008E-002     2.1466251627806632E-013
   2.8500000000000025E-002     2.0288287651444581E-013
   2.9600000000000015E-002     1.0799994660517717E-013
   3.0700000000000005E-002    -2.6541833306388020E-014
   3.1800000000000023E-002    -1.4896680351934866E-013
   3.2900000000000013E-002    -2.1273548244174489E-013
   3.4000000000000002E-002    -1.7831459778790831E-013
   3.5100000000000020E-002    -3.2157988701401671E-014
   3.6200000000000010E-002     1.7826338278778553E-013
   3.7300000000000028E-002     3.4010535815594267E-013
   3.8400000000000017E-002     3.1619149030819027E-013
   3.9500000000000007E-002     2.1439618540252704E-014
   4.0600000000000025E-002    -5.1416184677910426E-013
   4.1700000000000015E-002    -1.1346160556230389E-012
   4.2800000000000005E-002    -1.6245289618729841E-012
   4.3900000000000022E-002    -1.7656305020471996E-012
   4.5000000000000012E-002    -1.4419867210013759E-012
   4.6100000000000002E-002    -6.9851313318561314E-013
   4.7200000000000020E-002     2.0398128173539087E-013
   4.8300000000000010E-002     8.8550174137669302E-013
   4.9400000000000027E-002     8.8502333716808379E-013
   5.0500000000000017E-002    -7.7474498713127338E-014
   5.1600000000000007E-002    -1.8545165403338615E-012
   5.2700000000000025E-002    -3.9987362379645397E-012
   5.3800000000000014E-002    -5.8560968574372652E-012
   5.4900000000000004E-002    -6.8734826857985709E-012
   5.6000000000000022E-002    -6.7949699686375986E-012
   5.7100000000000012E-002    -5.5748153489354468E-012
   5.8200000000000002E-002    -4.0238424571514830E-012
   5.9300000000000019E-002    -3.1581894217869166E-012
   6.0400000000000009E-002    -4.0281419692866915E-012
   6.1500000000000027E-002    -7.1507032066431275E-012
   6.2600000000000017E-002    -1.2869327131737052E-011
   6.3700000000000007E-002    -1.9809110948787456E-011
   6.4800000000000024E-002    -2.7238759858771999E-011
   6.5900000000000014E-002    -3.1993963034437911E-011
   6.7000000000000004E-002    -3.3831531326411479E-011
   6.8100000000000022E-002    -3.1516612236659469E-011
   6.9200000000000012E-002    -2.8992631212476638E-011
   7.0300000000000029E-002    -3.0163361391943866E-011
   7.1400000000000019E-002    -3.4098883439082073E-011
   7.2500000000000009E-002    -4.4052442249586932E-011
   7.3600000000000027E-002    -5.9095200954928373E-011
   7.4700000000000016E-002    -8.1558877706999766E-011
   7.5800000000000006E-002    -1.0334331307371158E-010
   7.6900000000000024E-002    -1.2164168283756993E-010
   7.8000000000000014E-002    -1.3524024955469116E-010
   7.9100000000000004E-002    -1.3752661509602859E-010
   8.0200000000000021E-002    -1.3153265976395545E-010
   8.1300000000000011E-002    -1.2432761764546996E-010
   8.2400000000000029E-002    -1.3068622572998123E-010
   8.3500000000000019E-002    -1.4489895394653729E-010
   8.4600000000000009E-002    -1.8847827465418021E-010
   8.5700000000000026E-002    -2.4330756853707669E-010
   8.6800000000000016E-002    -2.8348551284196333E-010
   8.7900000000000006E-002    -3.1676039569106251E-010
   8.9000000000000024E-002    -3.6341440967646577E-010
   9.0100000000000013E-002    -3.7650579876036261E-010
   9.1200000000000003E-002    -3.6052189011925861E-010
   9.2300000000000021E-002    -3.4873440246663279E-010
   9.3400000000000011E-002    -3.1732702576725558E-010
   9.4500000000000028E-002    -3.3014377343043577E-010
   9.5600000000000018E-002    -3.3470021199022426E-010
   9.6700000000000008E-002    -4.4487036277018888E-010
   9.7800000000000026E-002    -5.2621029755783866E-010
   9.8900000000000016E-002    -5.6823845628883873E-010
  0.10000000000000001         -5.9997318224702667E-010
  0.10110000000000002         -5.8237825673046473E-010
  0.10220000000000001         -5.7536631015153716E-010
  0.10330000000000003         -4.5291112527046096E-010
  0.10440000000000002         -3.0811098117311531E-010
  0.10550000000000001         -1.7739820723505773E-010
  0.10660000000000003         -1.6643501854485265E-010
  0.10770000000000002         -2.6371199668417944E-010
  0.10880000000000001         -1.9328405542751170E-010
  0.10990000000000003         -1.4791641522737820E-010
  0.11100000000000002         -1.9441775966910768E-010
  0.11210000000000001         -2.1313456555205335E-010
  0.11320000000000002          3.9188784162202950E-011
  0.11430000000000001          2.4978877299908220E-010
  0.11540000000000003          1.6772956634714120E-010
  0.11650000000000002          4.3838679908425604E-010
  0.11760000000000001          6.3522614945910050E-010
  0.11870000000000003          6.6649180618938431E-010
  0.11980000000000002          1.1925147536118175E-009
  0.12090000000000001          1.3129795028987701E-009
  0.12200000000000003          1.4183442198500984E-009
  0.12310000000000001          8.4701295977041013E-010
  0.12420000000000003          5.5669230336619080E-010
  0.12530000000000002          1.5336475422955687E-009
  0.12640000000000001          1.8970596205036827E-009
  0.12750000000000003          2.4044333191142186E-009
  0.12860000000000002          2.5868651665206244E-009
  0.12970000000000001          2.4882857996288976E-009
  0.13080000000000003          2.4575055324049799E-009
  0.13190000000000002          2.1186039589338179E-009
  0.13300000000000001          2.5996249597426413E-009
  0.13410000000000000          2.3106581092946499E-009
  0.13520000000000004          2.0337083128652012E-009
  0.13630000000000003          1.8006609536769247E-009
  0.13740000000000002          1.7120013184879213E-009
  0.13850000000000001          1.6122251311756486E-009
  0.13960000000000000          2.0643375897577698E-009
  0.14070000000000005          1.9632375725109341E-009
  0.14180000000000004          1.5940214703746847E-009
  0.14290000000000003          7.5178918645946169E-010
  0.14400000000000002          9.7835750612063066E-010
  0.14510000000000001          8.4367157704434703E-010
  0.14620000000000000          9.0935470264952301E-010
  0.14730000000000004          4.6609138770747904E-010
  0.14840000000000003         -3.6296060601515023E-010
  0.14950000000000002         -9.7030639079065395E-010
  0.15060000000000001         -1.3037774193591645E-009
  0.15170000000000000         -1.4419069271909279E-009
  0.15280000000000005         -1.7934986829004629E-009
  0.15390000000000004         -2.1607522437960824E-009
  0.15500000000000003         -2.4658228792162618E-009
  0.15610000000000002         -2.5683140059129528E-009
  0.15720000000000001         -2.6735142988343341E-009
  0.15830000000000000         -2.9949713820087709E-009
  0.15940000000000004         -3.1105431563815955E-009
  0.16050000000000003         -3.3054985415503779E-009
  0.16160000000000002         -3.8337719665548775E-009
  0.16270000000000001         -4.3405128380413771E-009
  0.16380000000000000         -3.5304004164515845E-009
  0.16490000000000005         -3.5373919349268590E-009
  0.16600000000000004         -3.4726705955279158E-009
  0.16710000000000003         -3.2397426963370890E-009
  0.16820000000000002         -2.3570614349210928E-009
  0.16930000000000001         -2.2491168927274430E-009
  0.17040000000000000         -3.0562650188414864E-009
  0.17150000000000004         -3.5434768452802246E-009
  0.17260000000000003         -3.6623752919240360E-009
  0.17370000000000002         -1.5755641236125939E-009
  0.17480000000000001          4.4193027015637654E-010
  0.17590000000000000          9.3888430363620046E-010
  0.17700000000000005         -1.1519433185114281E-009
  0.17810000000000004         -2.0484687279775926E-009
  0.17920000000000003         -1.6233107080765308E-009
  0.18030000000000002          6.6080990679395768E-010
  0.18140000000000001          2.8319124822928643E-009
  0.18250000000000000          2.9547597701906625E-009
  0.18360000000000004          1.8138039958870422E-009
  0.18470000000000003          6.8228378502510623E-010
  0.18580000000000002          4.8613690850629609E-010
  0.18690000000000001          1.9589780908546572E-009
  0.18800000000000000          2.8620887881913859E-009
  0.18910000000000005          2.1497552626925653E-009
  0.19020000000000004          6.5398114701409327E-010
  0.19130000000000003          2.8460817036446429E-010
  0.19240000000000002          1.6426988658224673E-009
  0.19350000000000001          3.5742357962220694E-009
  0.19460000000000005          4.2913503861541358E-009
  0.19570000000000004          3.5217266880493980E-009
  0.19680000000000003          1.8145006608349945E-009
  0.19790000000000002         -3.1028588986375949E-012
  0.19900000000000001         -7.5121867060268244E-011
  0.20010000000000000          1.3361259876276677E-009
  0.20120000000000005          2.7731228424698884E-009
  0.20230000000000004          2.6241682160588198E-009
  0.20340000000000003          1.1817414824477623E-009
  0.20450000000000002         -5.0630260400863492E-011
  0.20560000000000000          9.3922605803875570E-011
  0.20670000000000005          1.2461638387861740E-009
  0.20780000000000004          1.8942594159909731E-009
  0.20890000000000003          1.0274779915775412E-009
