 -0.12000000000000000          0.0000000000000000
 -0.11889999999999999          0.0000000000000000
 -0.11780000000000000          0.0000000000000000
 -0.11670000000000000          0.0000000000000000
 -0.11559999999999999          0.0000000000000000
 -0.11449999999999999          0.0000000000000000
 -0.11340000000000000          0.0000000000000000
 -0.11230000000000000          4.5173367227286533E-021
 -0.11119999999999999         -2.1335585054060316E-021
 -0.11009999999999999         -5.0255093159369238E-020
 -0.10900000000000000          6.3249081147095817E-021
 -0.10790000000000000          3.2296879276220831E-019
 -0.10679999999999999          1.0674503433646278E-019
 -0.10569999999999999         -1.4623059134956105E-018
 -0.10460000000000000         -1.2596261906999581E-018
 -0.10349999999999999          4.7662514990678041E-018
 -0.10239999999999999          7.2483628505786299E-018
 -0.10130000000000000         -1.0592433209906969E-017
 -0.10020000000000000         -2.7792567132622285E-017
  -9.9099999999999994E-002     1.2570451183550935E-017
  -9.7999999999999990E-002     7.9820487274198914E-017
  -9.6899999999999986E-002     1.2145859375127466E-017
  -9.5799999999999996E-002    -1.8955670917265182E-016
  -9.4699999999999993E-002    -1.2844009241981205E-016
  -9.3599999999999989E-002     3.9215229942820152E-016
  -9.2499999999999999E-002     5.3949026600151845E-016
  -9.1399999999999995E-002    -6.0574322437205929E-016
  -9.0299999999999991E-002    -1.6980255617787777E-015
  -8.9200000000000002E-002     1.2997041625770455E-016
  -8.8099999999999984E-002     3.8443754981438896E-015
  -8.6999999999999994E-002     2.7951547275888037E-015
  -8.5899999999999990E-002    -5.4413002661295781E-015
  -8.4799999999999986E-002    -9.5917426494343365E-015
  -8.3699999999999997E-002     2.5228179649370219E-015
  -8.2599999999999993E-002     1.8417230495662226E-014
  -8.1499999999999989E-002     8.2132575141501650E-015
  -8.0399999999999999E-002    -2.5318190876059618E-014
  -7.9299999999999995E-002    -2.8646860952179568E-014
  -7.8199999999999992E-002     2.6885462714627828E-014
  -7.7100000000000002E-002     6.7104619929335418E-014
  -7.5999999999999984E-002    -4.8576907538231025E-015
  -7.4899999999999994E-002    -1.2584727639326776E-013
  -7.3799999999999991E-002    -8.8558900609905095E-014
  -7.2699999999999987E-002     1.4607455869897201E-013
  -7.1599999999999997E-002     2.6607229332113735E-013
  -7.0499999999999993E-002    -1.4646290636462916E-014
  -6.9399999999999989E-002    -4.1285120396146457E-013
  -6.8300000000000000E-002    -2.8991365514860479E-013
  -6.7199999999999996E-002     3.7689499416369843E-013
  -6.6099999999999992E-002     6.6022854501232575E-013
  -6.5000000000000002E-002    -1.0487738336204672E-013
  -6.3899999999999985E-002    -1.0222491256262067E-012
  -6.2799999999999995E-002    -5.2546834071465209E-013
  -6.1699999999999991E-002     1.1612621671555634E-012
  -6.0599999999999994E-002     1.6429056465955272E-012
  -5.9499999999999990E-002    -4.3080491431146672E-013
  -5.8399999999999994E-002    -2.6582687873838440E-012
  -5.7299999999999990E-002    -1.4798648417801985E-012
  -5.6199999999999986E-002     2.3741883025535371E-012
  -5.5099999999999996E-002     3.6569926774310257E-012
  -5.3999999999999992E-002    -3.4671514249039193E-013
  -5.2899999999999989E-002    -4.7691898173718439E-012
  -5.1799999999999985E-002    -2.8353621533971918E-012
  -5.0699999999999995E-002     3.9462998840944508E-012
  -4.9599999999999991E-002     6.1617963335869330E-012
  -4.8499999999999988E-002    -6.3214413087778198E-013
  -4.7399999999999998E-002    -7.9608594022451129E-012
  -4.6299999999999994E-002    -4.8448896804165198E-012
  -4.5199999999999990E-002     5.9953418098113165E-012
  -4.4099999999999986E-002     1.0003349711074083E-011
  -4.2999999999999997E-002     7.0871081355936005E-013
  -4.1899999999999993E-002    -9.9524563937358757E-012
  -4.0799999999999989E-002    -7.5308197178269864E-012
  -3.9699999999999985E-002     4.1725143305748613E-012
  -3.8599999999999995E-002     8.2181622618193728E-012
  -3.7499999999999992E-002    -6.3640466594488965E-013
  -3.6399999999999988E-002    -8.0517250852785160E-012
  -3.5299999999999984E-002    -1.8646915608822034E-012
  -3.4199999999999994E-002     9.1502118382269515E-012
  -3.3099999999999991E-002     8.9047606094405651E-012
  -3.1999999999999987E-002    -8.5699280788151255E-013
  -3.0899999999999997E-002    -4.3744361431785617E-012
  -2.9799999999999993E-002     6.2600971498585900E-013
  -2.8699999999999989E-002    -1.9757938774650485E-012
  -2.7599999999999986E-002    -1.6761952936761304E-011
  -2.6499999999999996E-002    -2.0915724013859105E-011
  -2.5399999999999992E-002     2.9934837161155192E-012
  -2.4299999999999988E-002     3.0767586395308300E-011
  -2.3199999999999985E-002     2.1649073159157872E-011
  -2.2099999999999995E-002    -1.9663394176805404E-011
  -2.0999999999999991E-002    -3.8422508230606667E-011
  -1.9899999999999987E-002    -5.0993866247683872E-012
  -1.8799999999999983E-002     3.2629482449308966E-011
  -1.7699999999999994E-002     9.1993600237483264E-012
  -1.6599999999999990E-002    -5.9728555434901409E-011
  -1.5499999999999986E-002    -8.4303113101480420E-011
  -1.4399999999999996E-002    -1.9608141499372067E-011
  -1.3299999999999992E-002     6.4485819462056782E-011
  -1.2199999999999989E-002     6.8670187591823861E-011
  -1.1099999999999985E-002    -7.2478767779160513E-012
  -9.9999999999999950E-003    -7.1512476496060629E-011
  -8.8999999999999913E-003    -6.8296340804963052E-011
  -7.7999999999999875E-003    -4.3230675983441103E-011
  -6.6999999999999837E-003    -6.1403694628925365E-011
  -5.5999999999999939E-003    -1.0979242515141152E-010
  -4.4999999999999901E-003    -1.2998492560090114E-010
  -3.3999999999999864E-003    -1.1081398992862646E-010
  -2.2999999999999826E-003    -9.1565019455508434E-011
  -1.1999999999999927E-003    -8.0921006007095286E-011
  -9.9999999999988987E-005    -4.8800252033798230E-011
   1.0000000000000148E-003    -2.1894834903446458E-011
   2.1000000000000185E-003    -9.5507650399451194E-011
   3.2000000000000084E-003    -3.0150115737370697E-010
   4.3000000000000121E-003    -5.0070331214513430E-010
   5.4000000000000159E-003    -5.2284299112415056E-010
   6.5000000000000058E-003    -3.9008773988769008E-010
   7.6000000000000234E-003    -3.2865923871305824E-010
   8.7000000000000133E-003    -4.5802472925515758E-010
   9.8000000000000032E-003    -6.1889310343232751E-010
   1.0900000000000021E-002    -6.0947180635650966E-010
   1.2000000000000011E-002    -4.6004347553640912E-010
   1.3100000000000001E-002    -4.4869852278139888E-010
   1.4200000000000018E-002    -7.5087769335624444E-010
   1.5300000000000008E-002    -1.1850568304438980E-009
   1.6400000000000026E-002    -1.4794796499018048E-009
   1.7500000000000016E-002    -1.5418885057627563E-009
   1.8600000000000005E-002    -1.5395301700138475E-009
   1.9700000000000023E-002    -1.5773510275707281E-009
   2.0800000000000013E-002    -1.6110270895097756E-009
   2.1900000000000003E-002    -1.6422256887693720E-009
   2.3000000000000020E-002    -1.7269100593964026E-009
   2.4100000000000010E-002    -1.8594784600978187E-009
   2.5200000000000000E-002    -2.1039674447109746E-009
   2.6300000000000018E-002    -2.3246962133072202E-009
   2.7400000000000008E-002    -2.5508439804866612E-009
   2.8500000000000025E-002    -2.9014308733366079E-009
   2.9600000000000015E-002    -3.3553366751704061E-009
   3.0700000000000005E-002    -3.4144189697826732E-009
   3.1800000000000023E-002    -3.2577429642799416E-009
   3.2900000000000013E-002    -3.0771698522613633E-009
   3.4000000000000002E-002    -2.9746947127762269E-009
   3.5100000000000020E-002    -3.0015174790065657E-009
   3.6200000000000010E-002    -2.9573283821804353E-009
   3.7300000000000028E-002    -2.7567312876897176E-009
   3.8400000000000017E-002    -2.5473310127921422E-009
   3.9500000000000007E-002    -2.7049316120297817E-009
   4.0600000000000025E-002    -3.0071107826046273E-009
   4.1700000000000015E-002    -2.9413076418904893E-009
   4.2800000000000005E-002    -2.2034953861549411E-009
   4.3900000000000022E-002    -1.0910400360941708E-009
   4.5000000000000012E-002    -5.1412352153334950E-010
   4.6100000000000002E-002    -4.1099576519876280E-010
   4.7200000000000020E-002    -2.0172363779380476E-010
   4.8300000000000010E-002     5.4466281484977230E-010
   4.9400000000000027E-002     2.0752337626106510E-009
   5.0500000000000017E-002     3.4029066231511251E-009
   5.1600000000000007E-002     4.0388083988318613E-009
   5.2700000000000025E-002     4.3787884429491442E-009
   5.3800000000000014E-002     4.6209334136904090E-009
   5.4900000000000004E-002     5.3650777154246043E-009
   5.6000000000000022E-002     6.6654237684815598E-009
   5.7100000000000012E-002     8.8018303756598470E-009
   5.8200000000000002E-002     9.7713863667081569E-009
   5.9300000000000019E-002     1.0496014724026281E-008
   6.0400000000000009E-002     1.0572966502309100E-008
   6.1500000000000027E-002     1.2195995324759679E-008
   6.2600000000000017E-002     1.3225842643294072E-008
   6.3700000000000007E-002     1.3964640999120093E-008
   6.4800000000000024E-002     1.4818526850035596E-008
   6.5900000000000014E-002     1.4421723371071948E-008
   6.7000000000000004E-002     1.2921566039381105E-008
   6.8100000000000022E-002     1.2379911318305403E-008
   6.9200000000000012E-002     1.4035815176782762E-008
   7.0300000000000029E-002     1.6694144733264693E-008
   7.1400000000000019E-002     1.6614688291838320E-008
   7.2500000000000009E-002     1.2536824023356985E-008
   7.3600000000000027E-002     8.4944060674274624E-009
   7.4700000000000016E-002     7.4659434190493812E-009
   7.5800000000000006E-002     9.5190619830987089E-009
   7.6900000000000024E-002     1.1359856166848203E-008
   7.8000000000000014E-002     9.2209910818041863E-009
   7.9100000000000004E-002     4.5696784134463542E-009
   8.0200000000000021E-002     1.3400036635857759E-010
   8.1300000000000011E-002    -1.4081080745853569E-009
   8.2400000000000029E-002    -7.8876655207338331E-010
   8.3500000000000019E-002    -2.3875967869457781E-010
   8.4600000000000009E-002    -2.7061917151627313E-009
   8.5700000000000026E-002    -7.8756192678497428E-009
   8.6800000000000016E-002    -1.3592241110416126E-008
   8.7900000000000006E-002    -1.6700749227993583E-008
   8.9000000000000024E-002    -1.5527593433262155E-008
   9.0100000000000013E-002    -1.1951260425746568E-008
   9.1200000000000003E-002    -1.0569537245430638E-008
   9.2300000000000021E-002    -1.4950437332572619E-008
   9.3400000000000011E-002    -2.2533853893946798E-008
   9.4500000000000028E-002    -2.6913806294714959E-008
   9.5600000000000018E-002    -2.5245944001994758E-008
   9.6700000000000008E-002    -1.7945174235478589E-008
   9.7800000000000026E-002    -1.3202519077992747E-008
   9.8900000000000016E-002    -1.6098876898240633E-008
  0.10000000000000001         -2.3014905536911101E-008
  0.10110000000000002         -2.7990326501026175E-008
  0.10220000000000001         -2.4340451432180998E-008
  0.10330000000000003         -1.5452634727353143E-008
  0.10440000000000002         -7.7799944264711485E-009
  0.10550000000000001         -7.4231993885121028E-009
  0.10660000000000003         -1.2163445362034508E-008
  0.10770000000000002         -1.8845629057295810E-008
  0.10880000000000001         -1.8225547293582167E-008
  0.10990000000000003         -7.7870989656503298E-009
  0.11100000000000002          4.1204328837807225E-009
  0.11210000000000001          6.6870753379077996E-009
  0.11320000000000002          1.8690200498383547E-009
  0.11430000000000001         -4.8740704805538826E-009
  0.11540000000000003         -7.3338206618700497E-009
  0.11650000000000002          1.3236725049381448E-009
  0.11760000000000001          1.3971204637641677E-008
  0.11870000000000003          1.8487492425833807E-008
  0.11980000000000002          1.2347944888801976E-008
  0.12090000000000001          3.9164689269455266E-009
  0.12200000000000003         -2.1948584616460209E-010
  0.12310000000000001          5.0944297669275329E-009
  0.12420000000000003          1.4503148904054797E-008
  0.12530000000000002          2.3626963496781173E-008
  0.12640000000000001          2.4763654238313393E-008
  0.12750000000000003          1.5463520242064988E-008
  0.12860000000000002          2.1194326293993981E-009
  0.12970000000000001         -9.5009200506979141E-010
  0.13080000000000003          9.4379508652764343E-009
  0.13190000000000002          2.2136308786002701E-008
  0.13300000000000001          2.2259676768499048E-008
  0.13410000000000000          9.4355963042858093E-009
  0.13520000000000004         -3.7178196077292114E-009
  0.13630000000000003         -5.6678697291090430E-009
  0.13740000000000002          3.6805369862946691E-009
  0.13850000000000001          1.4846281537472805E-008
  0.13960000000000000          1.8420271530317223E-008
  0.14070000000000005          1.1742646854884242E-008
  0.14180000000000004         -6.9388250700797016E-010
  0.14290000000000003         -1.0160164265471394E-008
  0.14400000000000002         -9.3002174850198571E-009
  0.14510000000000001          1.4170561390969283E-009
  0.14620000000000000          1.1530483234878375E-008
  0.14730000000000004          9.9873576075992787E-009
  0.14840000000000003         -2.5896138566849913E-009
  0.14950000000000002         -1.3492271300208358E-008
  0.15060000000000001         -1.2121188497360436E-008
  0.15170000000000000         -1.1204458472136025E-009
  0.15280000000000005          7.7591550962097244E-009
  0.15390000000000004          7.2260450956207478E-009
  0.15500000000000003         -1.1467520266705833E-009
  0.15610000000000002         -9.5379366626957562E-009
  0.15720000000000001         -1.1735987293093331E-008
  0.15830000000000000         -6.5474048405178564E-009
  0.15940000000000004          1.7697450171993978E-009
  0.16050000000000003          6.5095759893551985E-009
  0.16160000000000002          3.5709759593771651E-009
  0.16270000000000001         -5.2103845682438532E-009
  0.16380000000000000         -1.1743628292038011E-008
  0.16490000000000005         -9.5876382388837555E-009
  0.16600000000000004         -1.1635795660325243E-009
  0.16710000000000003          5.3486624018717066E-009
  0.16820000000000002          4.8912034422698980E-009
  0.16930000000000001          2.7203251803942230E-011
  0.17040000000000000         -4.0366434639338422E-009
  0.17150000000000004         -5.6448752339122166E-009
  0.17260000000000003         -5.2889550516965755E-009
  0.17370000000000002         -2.5297806072188678E-009
  0.17480000000000001          2.4883504146089308E-009
  0.17590000000000000          5.8097220367869795E-009
  0.17700000000000005          2.8536610852114563E-009
  0.17810000000000004         -4.4286836420326381E-009
  0.17920000000000003         -7.8713906503935505E-009
  0.18030000000000002         -2.6868731684004388E-009
  0.18140000000000001          5.8865574636968176E-009
  0.18250000000000000          8.3896267710770189E-009
  0.18360000000000004          2.7791624557238492E-009
  0.18470000000000003         -4.7987258611215111E-009
  0.18580000000000002         -7.6502679746681679E-009
  0.18690000000000001         -5.5926325792654552E-009
  0.18800000000000000         -1.8713601779296596E-009
  0.18910000000000005          2.6250974727304310E-009
  0.19020000000000004          6.5699343743119698E-009
  0.19130000000000003          6.1812226448410001E-009
  0.19240000000000002         -1.5418912813203178E-009
  0.19350000000000001         -9.4145748974483467E-009
  0.19460000000000005         -7.3225518981701043E-009
  0.19570000000000004          4.3738541677385001E-009
  0.19680000000000003          1.1841130742595851E-008
  0.19790000000000002          4.5438870444058921E-009
  0.19900000000000001         -1.0375059922296259E-008
  0.20010000000000000         -1.5016887289220904E-008
  0.20120000000000005         -4.6724832891698043E-009
  0.20230000000000004          8.4750491069485179E-009
  0.20340000000000003          1.0907347913757803E-008
  0.20450000000000002          3.2299869445751028E-009
  0.20560000000000000         -3.8609591079818983E-009
  0.20670000000000005         -5.2098236835718126E-009
  0.20780000000000004         -4.6929256036776223E-009
  0.20890000000000003         -3.4394023185058131E-009
