 -0.12000000000000000          0.0000000000000000
 -0.11889999999999999          0.0000000000000000
 -0.11780000000000000          0.0000000000000000
 -0.11670000000000000          0.0000000000000000
 -0.11559999999999999          0.0000000000000000
 -0.11449999999999999          0.0000000000000000
 -0.11340000000000000          0.0000000000000000
 -0.11230000000000000          0.0000000000000000
 -0.11119999999999999          0.0000000000000000
 -0.11009999999999999          0.0000000000000000
 -0.10900000000000000          0.0000000000000000
 -0.10790000000000000          0.0000000000000000
 -0.10679999999999999          0.0000000000000000
 -0.10569999999999999          0.0000000000000000
 -0.10460000000000000          0.0000000000000000
 -0.10349999999999999          0.0000000000000000
 -0.10239999999999999          0.0000000000000000
 -0.10130000000000000          1.9314121957161312E-038
 -0.10020000000000000         -7.5781256857342652E-038
  -9.9099999999999994E-002    -2.3686053775225580E-037
  -9.7999999999999990E-002     2.3040955601513076E-036
  -9.6899999999999986E-002     5.7889943295933543E-038
  -9.5799999999999996E-002    -3.4944961751831832E-035
  -9.4699999999999993E-002     2.8432806274194752E-035
  -9.3599999999999989E-002     3.9417053097307192E-034
  -9.2499999999999999E-002    -4.1312657124153136E-034
  -9.1399999999999995E-002    -3.7573909179286539E-033
  -9.0299999999999991E-002     3.4174489719303874E-033
  -8.9200000000000002E-002     3.1596338938414799E-032
  -8.8099999999999984E-002    -1.6453964543219707E-032
  -8.6999999999999994E-002    -2.3471843317275738E-031
  -8.5899999999999990E-002    -3.1437534794406493E-033
  -8.4799999999999986E-002     1.5118062938580821E-030
  -8.3699999999999997E-002     9.6947758705536566E-031
  -8.2599999999999993E-002    -8.1690605632993569E-030
  -8.1499999999999989E-002    -1.1438210034857088E-029
  -8.0399999999999999E-002     3.4766285502970761E-029
  -7.9299999999999995E-002     8.7477814467289545E-029
  -7.8199999999999992E-002    -9.6454862827570109E-029
  -7.7100000000000002E-002    -5.0348662089742201E-028
  -7.5999999999999984E-002    -2.3846316885074819E-029
  -7.4899999999999994E-002     2.2161866537128417E-027
  -7.3799999999999991E-002     2.2836546759666487E-027
  -7.2699999999999987E-002    -6.9387920185608429E-027
  -7.1599999999999997E-002    -1.6393025730046299E-026
  -7.0499999999999993E-002     9.9998589091940935E-027
  -6.9399999999999989E-002     7.3272963076952715E-026
  -6.8300000000000000E-002     4.2752332165892290E-026
  -6.7199999999999996E-002    -2.1728798925382790E-025
  -6.6099999999999992E-002    -3.9428342865929534E-025
  -6.5000000000000002E-002     2.9600886272009186E-025
  -6.3899999999999985E-002     1.6577880368783354E-024
  -6.2799999999999995E-002     9.6610039846903199E-025
  -6.1699999999999991E-002    -4.1325038611245410E-024
  -6.0599999999999994E-002    -7.9081041717608449E-024
  -5.9499999999999990E-002     3.0338766055154158E-024
  -5.8399999999999994E-002     2.7065599932523074E-023
  -5.7299999999999990E-002     2.4240648010159559E-023
  -5.6199999999999986E-002    -4.6631423508463088E-023
  -5.5099999999999996E-002    -1.2461344156785754E-022
  -5.3999999999999992E-002    -2.9612412121480144E-023
  -5.2899999999999989E-002     2.9122242985057119E-022
  -5.1799999999999985E-002     4.4413192081369743E-022
  -5.0699999999999995E-002    -1.6841956921060243E-022
  -4.9599999999999991E-002    -1.3077783039755012E-021
  -4.8499999999999988E-002    -1.2784091513136423E-021
  -4.7399999999999998E-002     1.4145183283762618E-021
  -4.6299999999999994E-002     4.7750333719008984E-021
  -4.5199999999999990E-002     3.0985761654613770E-021
  -4.4099999999999986E-002    -6.3425309391660825E-021
  -4.2999999999999997E-002    -1.5058559710825044E-020
  -4.1899999999999993E-002    -7.0256617638934083E-021
  -4.0799999999999989E-002     2.1064180148056992E-020
  -3.9699999999999985E-002     4.2842236551792854E-020
  -3.8599999999999995E-002     1.8789796970641292E-020
  -3.7499999999999992E-002    -5.4608454250356325E-020
  -3.6399999999999988E-002    -1.1360081065087884E-019
  -3.5299999999999984E-002    -6.7716501074148589E-020
  -3.4199999999999994E-002     1.0299799663447706E-019
  -3.3099999999999991E-002     2.8347321910887990E-019
  -3.1999999999999987E-002     2.7091398077212243E-019
  -3.0899999999999997E-002    -7.3058885834413532E-020
  -2.9799999999999993E-002    -6.4252412132913999E-019
  -2.8699999999999989E-002    -9.8929219278420602E-019
  -2.7599999999999986E-002    -4.7437034861477977E-019
  -2.6499999999999996E-002     1.1668177667424272E-018
  -2.5399999999999992E-002     3.0402353398090364E-018
  -2.4299999999999988E-002     2.9736237258510599E-018
  -2.3199999999999985E-002    -9.1920611006077711E-019
  -2.2099999999999995E-002    -7.4135276578483180E-018
  -2.0999999999999991E-002    -1.0854286331797368E-017
  -1.9899999999999987E-002    -4.4719952310418653E-018
  -1.8799999999999983E-002     1.2324350062065384E-017
  -1.7699999999999994E-002     2.8849948800926370E-017
  -1.6599999999999990E-002     2.7391998303548581E-017
  -1.5499999999999986E-002    -2.9333733240393827E-018
  -1.4399999999999996E-002    -5.2092145753057696E-017
  -1.3299999999999992E-002    -8.7133346224318916E-017
  -1.2199999999999989E-002    -6.7578902422683749E-017
  -1.1099999999999985E-002     2.7003547670448779E-017
  -9.9999999999999950E-003     1.6931198645856360E-016
  -8.8999999999999913E-003     2.7278259314961314E-016
  -7.7999999999999875E-003     2.1641715625149015E-016
  -6.6999999999999837E-003    -8.0199627162323819E-017
  -5.5999999999999939E-003    -5.5099572628231042E-016
  -4.4999999999999901E-003    -9.1909332232989428E-016
  -3.3999999999999864E-003    -7.7278495077374456E-016
  -2.2999999999999826E-003     1.7499283791245118E-016
  -1.1999999999999927E-003     1.7388301034633328E-015
  -9.9999999999988987E-005     3.0624020927770080E-015
   1.0000000000000148E-003     2.8381528728485105E-015
   2.1000000000000185E-003     5.3843895914763295E-017
   3.2000000000000084E-003    -4.9650204161520630E-015
   4.3000000000000121E-003    -9.8359075197769139E-015
   5.4000000000000159E-003    -1.0521842423759972E-014
   6.5000000000000058E-003    -3.3292782457760781E-015
   7.6000000000000234E-003     1.1960211941382075E-014
   8.7000000000000133E-003     2.9482069319490198E-014
   9.8000000000000032E-003     3.7523569727760872E-014
   1.0900000000000021E-002     2.3234991269318814E-014
   1.2000000000000011E-002    -1.8785505174535345E-014
   1.3100000000000001E-002    -7.7669736419337665E-014
   1.4200000000000018E-002    -1.2313801779455236E-013
   1.5300000000000008E-002    -1.1368801679147861E-013
   1.6400000000000026E-002    -1.7686966122384615E-014
   1.7500000000000016E-002     1.5864665538298933E-013
   1.8600000000000005E-002     3.5069608892226989E-013
   1.9700000000000023E-002     4.4054324532978584E-013
   2.0800000000000013E-002     3.0007721025897272E-013
   2.1900000000000003E-002    -1.3280354463698907E-013
   2.3000000000000020E-002    -7.7358686947567867E-013
   2.4100000000000010E-002    -1.3536792129939523E-012
   2.5200000000000000E-002    -1.4736816367905137E-012
   2.6300000000000018E-002    -7.6680567277775946E-013
   2.7400000000000008E-002     8.6273935044622885E-013
   2.8500000000000025E-002     3.0244771530990588E-012
   2.9600000000000015E-002     4.7866190178158519E-012
   3.0700000000000005E-002     4.8986110307014386E-012
   3.1800000000000023E-002     2.3125396996642733E-012
   3.2900000000000013E-002    -3.1295964084132599E-012
   3.4000000000000002E-002    -1.0129809317749316E-011
   3.5100000000000020E-002    -1.5848223774983516E-011
   3.6200000000000010E-002    -1.6574925459922341E-011
   3.7300000000000028E-002    -9.1790524833768039E-012
   3.8400000000000017E-002     7.0256920940703349E-012
   3.9500000000000007E-002     2.8727530770877863E-011
   4.0600000000000025E-002     4.8272951608252512E-011
   4.1700000000000015E-002     5.5237387580620023E-011
   4.2800000000000005E-002     4.0006047086205143E-011
   4.3900000000000022E-002    -1.4370846092987000E-012
   4.5000000000000012E-002    -6.3189328769475139E-011
   4.6100000000000002E-002    -1.2770232094005962E-010
   4.7200000000000020E-002    -1.6843318406678520E-010
   4.8300000000000010E-002    -1.5741824510584479E-010
   4.9400000000000027E-002    -7.6404417514996936E-011
   5.0500000000000017E-002     7.1805124346457916E-011
   5.1600000000000007E-002     2.5637333922468031E-010
   5.2700000000000025E-002     4.2017639367841753E-010
   5.3800000000000014E-002     4.9261661416721836E-010
   5.4900000000000004E-002     4.1232017800041376E-010
   5.6000000000000022E-002     1.5443717138463597E-010
   5.7100000000000012E-002    -2.4606061632681531E-010
   5.8200000000000002E-002    -6.8483180237777219E-010
   5.9300000000000019E-002    -1.0000575922930466E-009
   6.0400000000000009E-002    -1.0082013002232770E-009
   6.1500000000000027E-002    -5.5865334580573744E-010
   6.2600000000000017E-002     4.0508801868455180E-010
   6.3700000000000007E-002     1.7948548203250425E-009
   6.4800000000000024E-002     3.3552476352838312E-009
   6.5900000000000014E-002     4.6811585718842252E-009
   6.7000000000000004E-002     5.2776121250985852E-009
   6.8100000000000022E-002     4.6519401664113502E-009
   6.9200000000000012E-002     2.4171111778770182E-009
   7.0300000000000029E-002    -1.6214803943981337E-009
   7.1400000000000019E-002    -7.4228965196709851E-009
   7.2500000000000009E-002    -1.4729607755725738E-008
   7.3600000000000027E-002    -2.3152058048481194E-008
   7.4700000000000016E-002    -3.2304136254879268E-008
   7.5800000000000006E-002    -4.1959843599670421E-008
   7.6900000000000024E-002    -5.2192692834296395E-008
   7.8000000000000014E-002    -6.3462564980909519E-008
   7.9100000000000004E-002    -7.6628090539543336E-008
   8.0200000000000021E-002    -9.2882835645013984E-008
   8.1300000000000011E-002    -1.1363638918737706E-007
   8.2400000000000029E-002    -1.4038022300155717E-007
   8.3500000000000019E-002    -1.7458205547882244E-007
   8.4600000000000009E-002    -2.1764820701264398E-007
   8.5700000000000026E-002    -2.7097803467768244E-007
   8.6800000000000016E-002    -3.3610561445129861E-007
   8.7900000000000006E-002    -4.1489607838229858E-007
   8.9000000000000024E-002    -5.0975086196558550E-007
   9.0100000000000013E-002    -6.2377097265198245E-007
   9.1200000000000003E-002    -7.6084774036644376E-007
   9.2300000000000021E-002    -9.2567915999097750E-007
   9.3400000000000011E-002    -1.1237173112021992E-006
   9.4500000000000028E-002    -1.3611069107355434E-006
   9.5600000000000018E-002    -1.6446582549178856E-006
   9.6700000000000008E-002    -1.9818824057438178E-006
   9.7800000000000026E-002    -2.3811380742699839E-006
   9.8900000000000016E-002    -2.8518350063677644E-006
  0.10000000000000001         -3.4046777273033513E-006
  0.10110000000000002         -4.0518907553632744E-006
  0.10220000000000001         -4.8073820835270453E-006
  0.10330000000000003         -5.6868325373216067E-006
  0.10440000000000002         -6.7076716732117347E-006
  0.10550000000000001         -7.8890043369028717E-006
  0.10660000000000003         -9.2515265350812115E-006
  0.10770000000000002         -1.0817461770784575E-005
  0.10880000000000001         -1.2610521480382886E-005
  0.10990000000000003         -1.4655936865892727E-005
  0.11100000000000002         -1.6980429791146889E-005
  0.11210000000000001         -1.9612169126048684E-005
  0.11320000000000002         -2.2580696168006398E-005
  0.11430000000000001         -2.5916679078363813E-005
  0.11540000000000003         -2.9651533623109572E-005
  0.11650000000000002         -3.3817035728134215E-005
  0.11760000000000001         -3.8444690289907157E-005
  0.11870000000000003         -4.3565098167164251E-005
  0.11980000000000002         -4.9207308620680124E-005
  0.12090000000000001         -5.5397893447661772E-005
  0.12200000000000003         -6.2160310335457325E-005
  0.12310000000000001         -6.9513771450147033E-005
  0.12420000000000003         -7.7472039265558124E-005
  0.12530000000000002         -8.6042811744846404E-005
  0.12640000000000001         -9.5226176199503243E-005
  0.12750000000000003         -1.0501374345039949E-004
  0.12860000000000002         -1.1538741819094867E-004
  0.12970000000000001         -1.2631811841856688E-004
  0.13080000000000003         -1.3776453852187842E-004
  0.13190000000000002         -1.4967197785153985E-004
  0.13300000000000001         -1.6197135846596211E-004
  0.13410000000000000         -1.7457804642617702E-004
  0.13520000000000004         -1.8739090592134744E-004
  0.13630000000000003         -2.0029157167300582E-004
  0.13740000000000002         -2.1314395416993648E-004
  0.13850000000000001         -2.2579444339498878E-004
  0.13960000000000000         -2.3807262186892331E-004
  0.14070000000000005         -2.4979136651381850E-004
  0.14180000000000004         -2.6074794004671276E-004
  0.14290000000000003         -2.7072531520389020E-004
  0.14400000000000002         -2.7949421200901270E-004
  0.14510000000000001         -2.8681603725999594E-004
  0.14620000000000000         -2.9244468896649778E-004
  0.14730000000000004         -2.9612967045977712E-004
  0.14840000000000003         -2.9761929181404412E-004
  0.14950000000000002         -2.9666576301679015E-004
  0.15060000000000001         -2.9302909388206899E-004
  0.15170000000000000         -2.8648186707869172E-004
  0.15280000000000005         -2.7681444771587849E-004
  0.15390000000000004         -2.6384004740975797E-004
  0.15500000000000003         -2.4739981745369732E-004
  0.15610000000000002         -2.2736827668268234E-004
  0.15720000000000001         -2.0365798263810575E-004
  0.15830000000000000         -1.7622434825170785E-004
  0.15940000000000004         -1.4506983279716223E-004
  0.16050000000000003         -1.1024781269952655E-004
  0.16160000000000002         -7.1864844358060509E-005
  0.16270000000000001         -3.0083625460974872E-005
  0.16380000000000000          1.4874940461595543E-005
  0.16490000000000005          6.2730709032621235E-005
  0.16600000000000004          1.1314512812532485E-004
  0.16710000000000003          1.6572342428844422E-004
  0.16820000000000002          2.2001721663400531E-004
  0.16930000000000001          2.7552811661735177E-004
  0.17040000000000000          3.3171256654895842E-004
  0.17150000000000004          3.8798895548097789E-004
  0.17260000000000003          4.4374456047080457E-004
  0.17370000000000002          4.9834325909614563E-004
  0.17480000000000001          5.5113516282290220E-004
  0.17590000000000000          6.0146412579342723E-004
  0.17700000000000005          6.4867991022765636E-004
  0.17810000000000004          6.9214735412970185E-004
  0.17920000000000003          7.3125871131196618E-004
  0.18030000000000002          7.6544203329831362E-004
  0.18140000000000001          7.9417298547923565E-004
  0.18250000000000000          8.1698381109163165E-004
  0.18360000000000004          8.3347270265221596E-004
  0.18470000000000003          8.4331433754414320E-004
  0.18580000000000002          8.4626243915408850E-004
  0.18690000000000001          8.4215740207582712E-004
  0.18800000000000000          8.3092803834006190E-004
  0.18910000000000005          8.1259722355753183E-004
  0.19020000000000004          7.8728119842708111E-004
  0.19130000000000003          7.5519009260460734E-004
  0.19240000000000002          7.1662373375147581E-004
  0.19350000000000001          6.7196931922808290E-004
  0.19460000000000005          6.2169454758986831E-004
  0.19570000000000004          5.6633935309946537E-004
  0.19680000000000003          5.0651084166020155E-004
  0.19790000000000002          4.4287240598350763E-004
  0.19900000000000001          3.7613481981679797E-004
  0.20010000000000000          3.0704177333973348E-004
  0.20120000000000005          2.3635633988305926E-004
  0.20230000000000004          1.6485102241858840E-004
  0.20340000000000003          9.3298469437286258E-005
  0.20450000000000002          2.2459542378783226E-005
  0.20560000000000000         -4.6928995288908482E-005
  0.20670000000000005         -1.1416711640777066E-004
  0.20780000000000004         -1.7860221851151437E-004
  0.20890000000000003         -2.3963664716575295E-004
