 -0.12000000000000000          0.0000000000000000
 -0.11889999999999999          0.0000000000000000
 -0.11780000000000000          0.0000000000000000
 -0.11670000000000000          0.0000000000000000
 -0.11559999999999999          0.0000000000000000
 -0.11449999999999999          0.0000000000000000
 -0.11340000000000000          0.0000000000000000
 -0.11230000000000000          0.0000000000000000
 -0.11119999999999999          0.0000000000000000
 -0.11009999999999999          0.0000000000000000
 -0.10900000000000000          0.0000000000000000
 -0.10790000000000000          1.9595432523687732E-030
 -0.10679999999999999         -4.4594351148161897E-030
 -0.10569999999999999         -3.0723135631735565E-029
 -0.10460000000000000          6.4259031761937925E-029
 -0.10349999999999999          2.9027103342956726E-028
 -0.10239999999999999         -4.6664931070287874E-028
 -0.10130000000000000         -2.0752615448571667E-027
 -0.10020000000000000          2.0507700715333776E-027
  -9.9099999999999994E-002     1.1726668497375089E-026
  -9.7999999999999990E-002    -4.6992447975875562E-027
  -9.6899999999999986E-002    -5.2944301046295055E-026
  -9.5799999999999996E-002    -4.7410979515810130E-027
  -9.4699999999999993E-002     1.9614088403400344E-025
  -9.3599999999999989E-002     9.7820527184442211E-026
  -9.2499999999999999E-002    -6.3135930346730025E-025
  -9.1399999999999995E-002    -5.6938629214552441E-025
  -9.0299999999999991E-002     1.8606556487847232E-024
  -8.9200000000000002E-002     2.6774852229698934E-024
  -8.8099999999999984E-002    -4.7387994759111593E-024
  -8.6999999999999994E-002    -1.1244378377948705E-023
  -8.5899999999999990E-002     7.5621342334189710E-024
  -8.4799999999999986E-002     3.8791133764419567E-023
  -8.3699999999999997E-002     7.0802609160474316E-024
  -8.2599999999999993E-002    -9.9121231021685014E-023
  -8.1499999999999989E-002    -9.3908842056768041E-023
  -8.0399999999999999E-002     1.6725517264917277E-022
  -7.9299999999999995E-002     3.3376179834082494E-022
  -7.8199999999999992E-002    -1.3471329715716181E-022
  -7.7100000000000002E-002    -7.7046073091761895E-022
  -7.5999999999999984E-002    -1.3724030262651059E-022
  -7.4899999999999994E-002     1.5122244943952741E-021
  -7.3799999999999991E-002     9.2447813600136103E-022
  -7.2699999999999987E-002    -3.0605309059937311E-021
  -7.1599999999999997E-002    -3.8644294943086238E-021
  -7.0499999999999993E-002     5.0087187611924478E-021
  -6.9399999999999989E-002     1.3157973312990948E-020
  -6.8300000000000000E-002    -6.3033984905315228E-022
  -6.7199999999999996E-002    -2.9443002765336317E-020
  -6.6099999999999992E-002    -2.4788581858709740E-020
  -6.5000000000000002E-002     3.5229415493480310E-020
  -6.3899999999999985E-002     7.4170455018971412E-020
  -6.2799999999999995E-002    -1.9732011829992093E-021
  -6.1699999999999991E-002    -1.1983145814205503E-019
  -6.0599999999999994E-002    -6.7405028799431161E-020
  -5.9499999999999990E-002     1.5570261069451163E-019
  -5.8399999999999994E-002     1.7528076087211711E-019
  -5.7299999999999990E-002    -2.2764424047765598E-019
  -5.6199999999999986E-002    -4.9464283936844108E-019
  -5.5099999999999996E-002     1.4487082274479752E-019
  -5.3999999999999992E-002     1.1741653019310060E-018
  -5.2899999999999989E-002     7.8315035723350114E-019
  -5.1799999999999985E-002    -1.4747789699522976E-018
  -5.0699999999999995E-002    -2.7673848516747449E-018
  -4.9599999999999991E-002    -1.2247683343978789E-019
  -4.8499999999999988E-002     4.1183287834708367E-018
  -4.7399999999999998E-002     3.5007061073019931E-018
  -4.6299999999999994E-002    -3.0219449288994170E-018
  -4.5199999999999990E-002    -6.4421959343068993E-018
  -4.4099999999999986E-002     6.6814464493568634E-019
  -4.2999999999999997E-002     9.3955673836305172E-018
  -4.1899999999999993E-002     2.9375400395799655E-018
  -4.0799999999999989E-002    -1.5047900958719719E-017
  -3.9699999999999985E-002    -1.5278123521166702E-017
  -3.8599999999999995E-002     1.5953579357042804E-017
  -3.7499999999999992E-002     4.0582314649908991E-017
  -3.6399999999999988E-002     8.1816558464711850E-018
  -3.5299999999999984E-002    -5.9321178219901575E-017
  -3.4199999999999994E-002    -6.6169605034575103E-017
  -3.3099999999999991E-002     3.0272408286941959E-017
  -3.1999999999999987E-002     1.2269166361860134E-016
  -3.0899999999999997E-002     6.5905125614239849E-017
  -2.9799999999999993E-002    -1.0320202445487602E-016
  -2.8699999999999989E-002    -1.6215049494309590E-016
  -2.7599999999999986E-002    -6.7820005925703408E-019
  -2.6499999999999996E-002     1.6911438955383694E-016
  -2.5399999999999992E-002     7.0323156822889673E-017
  -2.4299999999999988E-002    -1.8748468129521059E-016
  -2.3199999999999985E-002    -1.6165492772939294E-016
  -2.2099999999999995E-002     2.7199019382745675E-016
  -2.0999999999999991E-002     5.5429550194701716E-016
  -1.9899999999999987E-002     9.0512491523161341E-017
  -1.8799999999999983E-002    -7.8511875633739204E-016
  -1.7699999999999994E-002    -9.7995200431540532E-016
  -1.6599999999999990E-002    -4.5190011755572325E-017
  -1.5499999999999986E-002     1.0111932263881041E-015
  -1.4399999999999996E-002     8.9497321212388082E-016
  -1.3299999999999992E-002    -1.5429953184345301E-016
  -1.2199999999999989E-002    -5.3301999307567966E-016
  -1.1099999999999985E-002     4.2846372837426652E-016
  -9.9999999999999950E-003     1.1796207516310566E-015
  -8.8999999999999913E-003    -8.5380126989845423E-017
  -7.7999999999999875E-003    -2.5303118771796175E-015
  -6.6999999999999837E-003    -3.1044291147626878E-015
  -5.5999999999999939E-003    -3.7264478654580016E-016
  -4.4999999999999901E-003     3.1978346142299717E-015
  -3.3999999999999864E-003     3.9518902371718252E-015
  -2.2999999999999826E-003     1.4802239566447800E-015
  -1.1999999999999927E-003    -1.1476164587520001E-015
  -9.9999999999988987E-005    -1.6264146435608206E-015
   1.0000000000000148E-003    -1.1437426594468510E-015
   2.1000000000000185E-003    -1.7979519443904989E-015
   3.2000000000000084E-003    -2.7288305655111342E-015
   4.3000000000000121E-003    -1.0014303246380510E-015
   5.4000000000000159E-003     3.7794355996602705E-015
   6.5000000000000058E-003     7.7329068238281458E-015
   7.6000000000000234E-003     6.4885031924460674E-015
   8.7000000000000133E-003    -5.2957193370564422E-016
   9.8000000000000032E-003    -1.0273239947806729E-014
   1.0900000000000021E-002    -1.8456648020895652E-014
   1.2000000000000011E-002    -2.0111459020496700E-014
   1.3100000000000001E-002    -9.9661329061866318E-015
   1.4200000000000018E-002     1.2977210519832423E-014
   1.5300000000000008E-002     3.9891531646973205E-014
   1.6400000000000026E-002     5.4864309438889397E-014
   1.7500000000000016E-002     4.6525849443706732E-014
   1.8600000000000005E-002     1.6260913310848536E-014
   1.9700000000000023E-002    -2.6421727422599149E-014
   2.0800000000000013E-002    -7.2553833600774720E-014
   2.1900000000000003E-002    -1.1167310836907723E-013
   2.3000000000000020E-002    -1.2285830718657825E-013
   2.4100000000000010E-002    -8.0484752163715451E-014
   2.5200000000000000E-002     1.9408342053178589E-014
   2.6300000000000018E-002     1.3892042355877210E-013
   2.7400000000000008E-002     2.1480850410059149E-013
   2.8500000000000025E-002     2.0311734878677296E-013
   2.9600000000000015E-002     1.0822444421751745E-013
   3.0700000000000005E-002    -2.6938280301086817E-014
   3.1800000000000023E-002    -1.5000380223974957E-013
   3.2900000000000013E-002    -2.1309343178899098E-013
   3.4000000000000002E-002    -1.7744139491071564E-013
   3.5100000000000020E-002    -3.0666085854480149E-014
   3.6200000000000010E-002     1.8181186807811334E-013
   3.7300000000000028E-002     3.4131947485374625E-013
   3.8400000000000017E-002     3.1347943988888072E-013
   3.9500000000000007E-002     1.7174191010841701E-014
   4.0600000000000025E-002    -5.1281179823392531E-013
   4.1700000000000015E-002    -1.1363298539970867E-012
   4.2800000000000005E-002    -1.6283686638668415E-012
   4.3900000000000022E-002    -1.7676114478365479E-012
   4.5000000000000012E-002    -1.4405492857610946E-012
   4.6100000000000002E-002    -7.0855691106097574E-013
   4.7200000000000020E-002     1.8149429170926518E-013
   4.8300000000000010E-002     8.6948232901756795E-013
   4.9400000000000027E-002     8.8932377087513892E-013
   5.0500000000000017E-002    -1.4877693261389213E-014
   5.1600000000000007E-002    -1.7925160054194089E-012
   5.2700000000000025E-002    -3.9633131845850933E-012
   5.3800000000000014E-002    -5.9138956752524674E-012
   5.4900000000000004E-002    -6.8994423889356948E-012
   5.6000000000000022E-002    -6.6869352936815840E-012
   5.7100000000000012E-002    -5.5471308969823330E-012
   5.8200000000000002E-002    -4.1502287717598563E-012
   5.9300000000000019E-002    -3.2445125145580400E-012
   6.0400000000000009E-002    -4.1098660932825659E-012
   6.1500000000000027E-002    -7.3981749545981579E-012
   6.2600000000000017E-002    -1.2917797907741058E-011
   6.3700000000000007E-002    -1.9958762073613023E-011
   6.4800000000000024E-002    -2.7117063802761798E-011
   6.5900000000000014E-002    -3.2194562987752917E-011
   6.7000000000000004E-002    -3.3735306215199046E-011
   6.8100000000000022E-002    -3.1750806844810242E-011
   6.9200000000000012E-002    -2.9019509018013423E-011
   7.0300000000000029E-002    -2.9518047728327446E-011
   7.1400000000000019E-002    -3.3943233640476578E-011
   7.2500000000000009E-002    -4.4246325353602955E-011
   7.3600000000000027E-002    -6.0971644399998581E-011
   7.4700000000000016E-002    -8.1462586676295246E-011
   7.5800000000000006E-002    -1.0088940100017041E-010
   7.6900000000000024E-002    -1.1649901876520374E-010
   7.8000000000000014E-002    -1.2835134344246768E-010
   7.9100000000000004E-002    -1.3561338163547987E-010
   8.0200000000000021E-002    -1.3234784101978647E-010
   8.1300000000000011E-002    -1.2765047352480963E-010
   8.2400000000000029E-002    -1.4037714046732930E-010
   8.3500000000000019E-002    -1.5911827411230206E-010
   8.4600000000000009E-002    -1.9798809813842411E-010
   8.5700000000000026E-002    -2.2925837617204792E-010
   8.6800000000000016E-002    -2.6737592695447177E-010
   8.7900000000000006E-002    -3.0762425939911964E-010
   8.9000000000000024E-002    -3.4367039769556129E-010
   9.0100000000000013E-002    -3.6486771937127571E-010
   9.1200000000000003E-002    -3.8155600901035314E-010
   9.2300000000000021E-002    -3.5933078734728952E-010
   9.3400000000000011E-002    -3.2973540564640302E-010
   9.4500000000000028E-002    -3.3431052370858083E-010
   9.5600000000000018E-002    -3.8605385555001703E-010
   9.6700000000000008E-002    -4.0081063468200284E-010
   9.7800000000000026E-002    -5.1303372661237745E-010
   9.8900000000000016E-002    -5.6180882168632706E-010
  0.10000000000000001         -5.8819943360433058E-010
  0.10110000000000002         -5.6344839904909350E-010
  0.10220000000000001         -5.1160425895702133E-010
  0.10330000000000003         -4.4276562971568012E-010
  0.10440000000000002         -4.3743855759892369E-010
  0.10550000000000001         -5.7888333016009597E-010
  0.10660000000000003         -1.8762777442837830E-010
  0.10770000000000002         -4.1096109154592497E-011
  0.10880000000000001         -5.9063226531819168E-011
  0.10990000000000003         -1.7183142408949692E-010
  0.11100000000000002         -2.2322600712332274E-010
  0.11210000000000001         -2.4900706496744363E-010
  0.11320000000000002          1.1452744134998749E-012
  0.11430000000000001          1.6030822502788311E-010
  0.11540000000000003          3.3727165504870982E-010
  0.11650000000000002          4.1266828842978498E-010
  0.11760000000000001          5.9103710814412125E-010
  0.11870000000000003          4.7376969014578663E-010
  0.11980000000000002          9.2661156525508659E-010
  0.12090000000000001          1.1840193270273858E-009
  0.12200000000000003          1.2259895321165004E-009
  0.12310000000000001          1.1419081236141437E-009
  0.12420000000000003          1.6311938466628817E-009
  0.12530000000000002          2.0944457279625794E-009
  0.12640000000000001          2.1992025978079255E-009
  0.12750000000000003          2.2964821155824211E-009
  0.12860000000000002          2.9918825195096588E-009
  0.12970000000000001          2.2803328114662236E-009
  0.13080000000000003          1.6699162053157579E-009
  0.13190000000000002          1.5904045858050608E-009
  0.13300000000000001          2.0199886208160933E-009
  0.13410000000000000          2.8757984882332721E-009
  0.13520000000000004          2.7502875532547932E-009
  0.13630000000000003          2.5454973684446713E-009
  0.13740000000000002          2.0663164512768617E-009
  0.13850000000000001          2.0976713699383254E-009
  0.13960000000000000          2.4461748182602605E-009
  0.14070000000000005          1.5205442460697327E-009
  0.14180000000000004          1.3534693366068495E-009
  0.14290000000000003          9.4451135801421060E-010
  0.14400000000000002          8.4575646486229061E-010
  0.14510000000000001          1.2718688324753202E-009
  0.14620000000000000          1.2368488455649640E-009
  0.14730000000000004          9.3851160176683379E-010
  0.14840000000000003         -3.4916572411169966E-010
  0.14950000000000002         -1.4865143560527372E-009
  0.15060000000000001         -2.1846211506471036E-009
  0.15170000000000000         -1.9892947289434915E-009
  0.15280000000000005         -1.6692480730995385E-009
  0.15390000000000004         -1.5043779555412584E-009
  0.15500000000000003         -1.9251209515402934E-009
  0.15610000000000002         -2.6541875364216594E-009
  0.15720000000000001         -3.2183804510310665E-009
  0.15830000000000000         -3.0754003788047157E-009
  0.15940000000000004         -2.8801450113746796E-009
  0.16050000000000003         -2.9595339512411556E-009
  0.16160000000000002         -3.8645673328119301E-009
  0.16270000000000001         -4.1850993781622492E-009
  0.16380000000000000         -4.0339496187868917E-009
  0.16490000000000005         -3.7815510722793988E-009
  0.16600000000000004         -2.3075861221855121E-009
  0.16710000000000003         -2.1963704188721067E-009
  0.16820000000000002         -2.7417708103882887E-009
  0.16930000000000001         -3.3460636483795270E-009
  0.17040000000000000         -3.3352280937037904E-009
  0.17150000000000004         -2.3161341733413110E-009
  0.17260000000000003         -8.4756263118990205E-010
  0.17370000000000002         -7.3874251160788162E-010
  0.17480000000000001         -1.4534946579658481E-009
  0.17590000000000000         -1.7651051731348844E-009
  0.17700000000000005         -8.9542523395991225E-010
  0.17810000000000004         -9.2393231954090993E-010
  0.17920000000000003         -5.5528825981809860E-010
  0.18030000000000002          2.3915955327247218E-010
  0.18140000000000001          3.9673211937873987E-010
  0.18250000000000000          2.4495835915239184E-010
  0.18360000000000004          8.5086060419570231E-010
  0.18470000000000003          2.0233896780297300E-009
  0.18580000000000002          3.0720213040069666E-009
  0.18690000000000001          3.2182525533386297E-009
  0.18800000000000000          1.8702210891063942E-009
  0.18910000000000005          1.2281625716425992E-009
  0.19020000000000004          1.8509298538305075E-009
  0.19130000000000003          2.1821702222979411E-009
  0.19240000000000002          2.5360344935165813E-009
  0.19350000000000001          2.6909863226620701E-009
  0.19460000000000005          2.1952202278185950E-009
  0.19570000000000004          1.6404302360939482E-009
  0.19680000000000003          1.2859339149073890E-009
  0.19790000000000002          1.8386802080883058E-009
  0.19900000000000001          2.7524171830606292E-009
  0.20010000000000000          3.3578058111771725E-009
  0.20120000000000005          2.5835074080049480E-009
  0.20230000000000004          6.3026206476024527E-010
  0.20340000000000003         -1.0274492368012034E-009
  0.20450000000000002         -1.1097504026835736E-009
  0.20560000000000000          3.8989933504041119E-010
  0.20670000000000005          1.9236912063291811E-009
  0.20780000000000004          2.0407950884759885E-009
  0.20890000000000003          6.0955979153121120E-010
