 -0.12000000000000000          0.0000000000000000
 -0.11889999999999999          0.0000000000000000
 -0.11780000000000000          0.0000000000000000
 -0.11670000000000000          0.0000000000000000
 -0.11559999999999999          0.0000000000000000
 -0.11449999999999999          0.0000000000000000
 -0.11340000000000000          0.0000000000000000
 -0.11230000000000000          0.0000000000000000
 -0.11119999999999999          0.0000000000000000
 -0.11009999999999999          0.0000000000000000
 -0.10900000000000000          0.0000000000000000
 -0.10790000000000000          0.0000000000000000
 -0.10679999999999999          0.0000000000000000
 -0.10569999999999999          0.0000000000000000
 -0.10460000000000000          0.0000000000000000
 -0.10349999999999999          0.0000000000000000
 -0.10239999999999999          0.0000000000000000
 -0.10130000000000000          1.9314131766250562E-038
 -0.10020000000000000         -7.6036595858318063E-038
  -9.9099999999999994E-002    -2.3711987886164533E-037
  -9.7999999999999990E-002     2.3040675790235720E-036
  -9.6899999999999986E-002     5.8111326032521435E-038
  -9.5799999999999996E-002    -3.4944691985061868E-035
  -9.4699999999999993E-002     2.8432886630253891E-035
  -9.3599999999999989E-002     3.9416997996009498E-034
  -9.2499999999999999E-002    -4.1312670899477560E-034
  -9.1399999999999995E-002    -3.7573912852706386E-033
  -9.0299999999999991E-002     3.4174493392723720E-033
  -8.9200000000000002E-002     3.1596338938414799E-032
  -8.8099999999999984E-002    -1.6454001277418170E-032
  -8.6999999999999994E-002    -2.3471850370241843E-031
  -8.5899999999999990E-002    -3.1433596888331238E-033
  -8.4799999999999986E-002     1.5118058236603417E-030
  -8.3699999999999997E-002     9.6947476586892369E-031
  -8.2599999999999993E-002    -8.1690628202485104E-030
  -8.1499999999999989E-002    -1.1438197245478551E-029
  -8.0399999999999999E-002     3.4766291521501837E-029
  -7.9299999999999995E-002     8.7477796411696316E-029
  -7.8199999999999992E-002    -9.6454923012880871E-029
  -7.7100000000000002E-002    -5.0348642830442757E-028
  -7.5999999999999984E-002    -2.3845808319198879E-029
  -7.4899999999999994E-002     2.2161860759338584E-027
  -7.3799999999999991E-002     2.2836539055946710E-027
  -7.2699999999999987E-002    -6.9387912481888652E-027
  -7.1599999999999997E-002    -1.6393013404094655E-026
  -7.0499999999999993E-002     9.9998481239864050E-027
  -6.9399999999999989E-002     7.3272932262073605E-026
  -6.8300000000000000E-002     4.2752347573331845E-026
  -6.7199999999999996E-002    -2.1728791529811804E-025
  -6.6099999999999992E-002    -3.9428335470358547E-025
  -6.5000000000000002E-002     2.9600878876438199E-025
  -6.3899999999999985E-002     1.6577878396631091E-024
  -6.2799999999999995E-002     9.6610000403857938E-025
  -6.1699999999999991E-002    -4.1325030722636358E-024
  -6.0599999999999994E-002    -7.9081041717608449E-024
  -5.9499999999999990E-002     3.0338781832372262E-024
  -5.8399999999999994E-002     2.7065599932523074E-023
  -5.7299999999999990E-002     2.4240641699272318E-023
  -5.6199999999999986E-002    -4.6631432974793950E-023
  -5.5099999999999996E-002    -1.2461347943318099E-022
  -5.3999999999999992E-002    -2.9612415276923764E-023
  -5.2899999999999989E-002     2.9122250558121809E-022
  -5.1799999999999985E-002     4.4413202178789330E-022
  -5.0699999999999995E-002    -1.6841961969770037E-022
  -4.9599999999999991E-002    -1.3077787078722847E-021
  -4.8499999999999988E-002    -1.2784098581330134E-021
  -4.7399999999999998E-002     1.4145191361698288E-021
  -4.6299999999999994E-002     4.7750345835912488E-021
  -4.5199999999999990E-002     3.0985777810485109E-021
  -4.4099999999999986E-002    -6.3425301313725155E-021
  -4.2999999999999997E-002    -1.5058564557586446E-020
  -4.1899999999999993E-002    -7.0256706496226448E-021
  -4.0799999999999989E-002     2.1064180148056992E-020
  -3.9699999999999985E-002     4.2842249476489925E-020
  -3.8599999999999995E-002     1.8789824435622568E-020
  -3.7499999999999992E-002    -5.4608454250356325E-020
  -3.6399999999999988E-002    -1.1360086234966713E-019
  -3.5299999999999984E-002    -6.7716526923542731E-020
  -3.4199999999999994E-002     1.0299802248387120E-019
  -3.3099999999999991E-002     2.8347327080766819E-019
  -3.1999999999999987E-002     2.7091395492272829E-019
  -3.0899999999999997E-002    -7.3058943995550352E-020
  -2.9799999999999993E-002    -6.4252427642550484E-019
  -2.8699999999999989E-002    -9.8929250297693573E-019
  -2.7599999999999986E-002    -4.7437003842205006E-019
  -2.6499999999999996E-002     1.1668186973206163E-018
  -2.5399999999999992E-002     3.0402361669896490E-018
  -2.4299999999999988E-002     2.9736231054656005E-018
  -2.3199999999999985E-002    -9.1920879839776791E-019
  -2.2099999999999995E-002    -7.4135301393901557E-018
  -2.0999999999999991E-002    -1.0854283850255530E-017
  -1.9899999999999987E-002    -4.4719890271872712E-018
  -1.8799999999999983E-002     1.2324352543607221E-017
  -1.7699999999999994E-002     2.8849942183481470E-017
  -1.6599999999999990E-002     2.7391980105575105E-017
  -1.5499999999999986E-002    -2.9333828366164271E-018
  -1.4399999999999996E-002    -5.2092142444335246E-017
  -1.3299999999999992E-002    -8.7133313137094414E-017
  -1.2199999999999989E-002    -6.7578862718014346E-017
  -1.1099999999999985E-002     2.7003554287893679E-017
  -9.9999999999999950E-003     1.6931190704922480E-016
  -8.8999999999999913E-003     2.7278240786115593E-016
  -7.7999999999999875E-003     2.1641701066770234E-016
  -6.6999999999999837E-003    -8.0199461726201309E-017
  -5.5999999999999939E-003    -5.5099519688671839E-016
  -4.4999999999999901E-003    -9.1909258117606543E-016
  -3.3999999999999864E-003    -7.7278500371330376E-016
  -2.2999999999999826E-003     1.7499167324214871E-016
  -1.1999999999999927E-003     1.7388286211556751E-015
  -9.9999999999988987E-005     3.0624008222275871E-015
   1.0000000000000148E-003     2.8381526610902737E-015
   2.1000000000000185E-003     5.3845669389996609E-017
   3.2000000000000084E-003    -4.9650161809873267E-015
   4.3000000000000121E-003    -9.8359007435133358E-015
   5.4000000000000159E-003    -1.0521838188595235E-014
   6.5000000000000058E-003    -3.3292837514902352E-015
   7.6000000000000234E-003     1.1960202624019655E-014
   8.7000000000000133E-003     2.9482065931358409E-014
   9.8000000000000032E-003     3.7523569727760872E-014
   1.0900000000000021E-002     2.3234977716791658E-014
   1.2000000000000011E-002    -1.8785518727062502E-014
   1.3100000000000001E-002    -7.7669709314283353E-014
   1.4200000000000018E-002    -1.2313793647938942E-013
   1.5300000000000008E-002    -1.1368794902884283E-013
   1.6400000000000026E-002    -1.7686988145241243E-014
   1.7500000000000016E-002     1.5864651985771777E-013
   1.8600000000000005E-002     3.5069589918688970E-013
   1.9700000000000023E-002     4.4054316401462290E-013
   2.0800000000000013E-002     3.0007721025897272E-013
   2.1900000000000003E-002    -1.3280323292886448E-013
   2.3000000000000020E-002    -7.7358600211394069E-013
   2.4100000000000010E-002    -1.3536780203715626E-012
   2.5200000000000000E-002    -1.4736808778489929E-012
   2.6300000000000018E-002    -7.6680697382036644E-013
   2.7400000000000008E-002     8.6273609783971139E-013
   2.8500000000000025E-002     3.0244734668116724E-012
   2.9600000000000015E-002     4.7866172830923759E-012
   3.0700000000000005E-002     4.8986136327866525E-012
   3.1800000000000023E-002     2.3125479396007842E-012
   3.2900000000000013E-002    -3.1295892526789215E-012
   3.4000000000000002E-002    -1.0129809317749316E-011
   3.5100000000000020E-002    -1.5848232448600896E-011
   3.6200000000000010E-002    -1.6574937602986672E-011
   3.7300000000000028E-002    -9.1790594222707078E-012
   3.8400000000000017E-002     7.0256955635172869E-012
   3.9500000000000007E-002     2.8727551587559574E-011
   4.0600000000000025E-002     4.8272979363828128E-011
   4.1700000000000015E-002     5.5237387580620023E-011
   4.2800000000000005E-002     4.0005998513947816E-011
   4.3900000000000022E-002    -1.4371111722519259E-012
   4.5000000000000012E-002    -6.3189314891687332E-011
   4.6100000000000002E-002    -1.2770232094005962E-010
   4.7200000000000020E-002    -1.6843314243342178E-010
   4.8300000000000010E-002    -1.5741806469460329E-010
   4.9400000000000027E-002    -7.6404098325877357E-011
   5.0500000000000017E-002     7.1805290879911610E-011
   5.1600000000000007E-002     2.5637306166892415E-010
   5.2700000000000025E-002     4.2017581081132960E-010
   5.3800000000000014E-002     4.9261594803340358E-010
   5.4900000000000004E-002     4.1231942859987214E-010
   5.6000000000000022E-002     1.5443661627312366E-010
   5.7100000000000012E-002    -2.4606111592717639E-010
   5.8200000000000002E-002    -6.8483030357668895E-010
   5.9300000000000019E-002    -1.0000531514009481E-009
   6.0400000000000009E-002    -1.0081947499074317E-009
   6.1500000000000027E-002    -5.5864696202334585E-010
   6.2600000000000017E-002     4.0508868481836657E-010
   6.3700000000000007E-002     1.7948478259199874E-009
   6.4800000000000024E-002     3.3552298717154372E-009
   6.5900000000000014E-002     4.6811368115129426E-009
   6.7000000000000004E-002     5.2775988024222897E-009
   6.8100000000000022E-002     4.6519526009092260E-009
   6.9200000000000012E-002     2.4171424861663127E-009
   7.0300000000000029E-002    -1.6214578568707338E-009
   7.1400000000000019E-002    -7.4228911906004669E-009
   7.2500000000000009E-002    -1.4729609532082577E-008
   7.3600000000000027E-002    -2.3152042061269640E-008
   7.4700000000000016E-002    -3.2304111385883516E-008
   7.5800000000000006E-002    -4.1959854257811458E-008
   7.6900000000000024E-002    -5.2192781652138365E-008
   7.8000000000000014E-002    -6.3462714194884029E-008
   7.9100000000000004E-002    -7.6628076328688621E-008
   8.0200000000000021E-002    -9.2882679325612116E-008
   8.1300000000000011E-002    -1.1363635366024027E-007
   8.2400000000000029E-002    -1.4038063511634391E-007
   8.3500000000000019E-002    -1.7458255285873747E-007
   8.4600000000000009E-002    -2.1764815016922512E-007
   8.5700000000000026E-002    -2.7097769361716928E-007
   8.6800000000000016E-002    -3.3610552918617032E-007
   8.7900000000000006E-002    -4.1489658997306833E-007
   8.9000000000000024E-002    -5.0975080512216664E-007
   9.0100000000000013E-002    -6.2377006315728067E-007
   9.1200000000000003E-002    -7.6084819511379465E-007
   9.2300000000000021E-002    -9.2568103582379990E-007
   9.3400000000000011E-002    -1.1237191301916027E-006
   9.4500000000000028E-002    -1.3611065696750302E-006
   9.5600000000000018E-002    -1.6446545032522408E-006
   9.6700000000000008E-002    -1.9818774035229580E-006
   9.7800000000000026E-002    -2.3811342089175014E-006
   9.8900000000000016E-002    -2.8518343242467381E-006
  0.10000000000000001         -3.4046765904349741E-006
  0.10110000000000002         -4.0518866626371164E-006
  0.10220000000000001         -4.8073816287796944E-006
  0.10330000000000003         -5.6868393585318699E-006
  0.10440000000000002         -6.7076812229061034E-006
  0.10550000000000001         -7.8890143413445912E-006
  0.10660000000000003         -9.2515238065971062E-006
  0.10770000000000002         -1.0817441761901136E-005
  0.10880000000000001         -1.2610498743015341E-005
  0.10990000000000003         -1.4655921404482797E-005
  0.11100000000000002         -1.6980429791146889E-005
  0.11210000000000001         -1.9612189134932123E-005
  0.11320000000000002         -2.2580743461730890E-005
  0.11430000000000001         -2.5916717277141288E-005
  0.11540000000000003         -2.9651573640876450E-005
  0.11650000000000002         -3.3817068469943479E-005
  0.11760000000000001         -3.8444715755758807E-005
  0.11870000000000003         -4.3565116357058287E-005
  0.11980000000000002         -4.9207264964934438E-005
  0.12090000000000001         -5.5397827964043245E-005
  0.12200000000000003         -6.2160201196093112E-005
  0.12310000000000001         -6.9513647758867592E-005
  0.12420000000000003         -7.7472010161727667E-005
  0.12530000000000002         -8.6042833572719246E-005
  0.12640000000000001         -9.5226219855248928E-005
  0.12750000000000003         -1.0501388169359416E-004
  0.12860000000000002         -1.1538757098605856E-004
  0.12970000000000001         -1.2631823483388871E-004
  0.13080000000000003         -1.3776452396996319E-004
  0.13190000000000002         -1.4967177412472665E-004
  0.13300000000000001         -1.6197102377191186E-004
  0.13410000000000000         -1.7457774083595723E-004
  0.13520000000000004         -1.8739070219453424E-004
  0.13630000000000003         -2.0029142615385354E-004
  0.13740000000000002         -2.1314401237759739E-004
  0.13850000000000001         -2.2579489450436085E-004
  0.13960000000000000         -2.3807332036085427E-004
  0.14070000000000005         -2.4979197769425809E-004
  0.14180000000000004         -2.6074817287735641E-004
  0.14290000000000003         -2.7072508237324655E-004
  0.14400000000000002         -2.7949389186687768E-004
  0.14510000000000001         -2.8681589174084365E-004
  0.14620000000000000         -2.9244448523968458E-004
  0.14730000000000004         -2.9612917569465935E-004
  0.14840000000000003         -2.9761873884126544E-004
  0.14950000000000002         -2.9666570480912924E-004
  0.15060000000000001         -2.9302964685484767E-004
  0.15170000000000000         -2.8648282750509679E-004
  0.15280000000000005         -2.7681505889631808E-004
  0.15390000000000004         -2.6383996009826660E-004
  0.15500000000000003         -2.4739949731156230E-004
  0.15610000000000002         -2.2736802930012345E-004
  0.15720000000000001         -2.0365793898236006E-004
  0.15830000000000000         -1.7622433369979262E-004
  0.15940000000000004         -1.4506973093375564E-004
  0.16050000000000003         -1.1024748528143391E-004
  0.16160000000000002         -7.1864327765069902E-005
  0.16270000000000001         -3.0083261663094163E-005
  0.16380000000000000          1.4874670341669116E-005
  0.16490000000000005          6.2729770434089005E-005
  0.16600000000000004          1.1314424045849591E-004
  0.16710000000000003          1.6572349704802036E-004
  0.16820000000000002          2.2001827892381698E-004
  0.16930000000000001          2.7552916435524821E-004
  0.17040000000000000          3.3171294489875436E-004
  0.17150000000000004          3.8798872265033424E-004
  0.17260000000000003          4.4374435674399137E-004
  0.17370000000000002          4.9834378296509385E-004
  0.17480000000000001          5.5113580310717225E-004
  0.17590000000000000          6.0146430041640997E-004
  0.17700000000000005          6.4867903711274266E-004
  0.17810000000000004          6.9214595714583993E-004
  0.17920000000000003          7.3125743074342608E-004
  0.18030000000000002          7.6544180046766996E-004
  0.18140000000000001          7.9417339293286204E-004
  0.18250000000000000          8.1698416033759713E-004
  0.18360000000000004          8.3347293548285961E-004
  0.18470000000000003          8.4331363905221224E-004
  0.18580000000000002          8.4626197349280119E-004
  0.18690000000000001          8.4215798415243626E-004
  0.18800000000000000          8.3093042485415936E-004
  0.18910000000000005          8.1259955186396837E-004
  0.19020000000000004          7.8728148946538568E-004
  0.19130000000000003          7.5518788071349263E-004
  0.19240000000000002          7.1662134723737836E-004
  0.19350000000000001          6.7196867894381285E-004
  0.19460000000000005          6.2169530428946018E-004
  0.19570000000000004          5.6634016800671816E-004
  0.19680000000000003          5.0651055062189698E-004
  0.19790000000000002          4.4287202763371170E-004
  0.19900000000000001          3.7613569293171167E-004
  0.20010000000000000          3.0704357777722180E-004
  0.20120000000000005          2.3635762045159936E-004
  0.20230000000000004          1.6485076048411429E-004
  0.20340000000000003          9.3296366685535759E-005
  0.20450000000000002          2.2456371880252846E-005
  0.20560000000000000         -4.6931712859077379E-005
  0.20670000000000005         -1.1416774941608310E-004
  0.20780000000000004         -1.7859999206848443E-004
  0.20890000000000003         -2.3963264538906515E-004
