 -0.12000000000000000          0.0000000000000000
 -0.11889999999999999          0.0000000000000000
 -0.11780000000000000          0.0000000000000000
 -0.11670000000000000          0.0000000000000000
 -0.11559999999999999          0.0000000000000000
 -0.11449999999999999          0.0000000000000000
 -0.11340000000000000          0.0000000000000000
 -0.11230000000000000          0.0000000000000000
 -0.11119999999999999          0.0000000000000000
 -0.11009999999999999          0.0000000000000000
 -0.10900000000000000          0.0000000000000000
 -0.10790000000000000          0.0000000000000000
 -0.10679999999999999          0.0000000000000000
 -0.10569999999999999          0.0000000000000000
 -0.10460000000000000          0.0000000000000000
 -0.10349999999999999          0.0000000000000000
 -0.10239999999999999          0.0000000000000000
 -0.10130000000000000          0.0000000000000000
 -0.10020000000000000         -5.0444850160169647E-038
  -9.9099999999999994E-002    -1.1939356628205564E-037
  -9.7999999999999990E-002     1.4431011929646396E-036
  -9.6899999999999986E-002    -5.6505663321198258E-037
  -9.5799999999999996E-002    -2.0509519476960627E-035
  -9.4699999999999993E-002     2.4620528287824966E-035
  -9.3599999999999989E-002     2.2016168896111599E-034
  -9.2499999999999999E-002    -3.1639013607782472E-034
  -9.1399999999999995E-002    -2.0285763151529458E-033
  -9.0299999999999991E-002     2.5908988334527497E-033
  -8.9200000000000002E-002     1.6717773393535060E-032
  -8.8099999999999984E-002    -1.4096979351018000E-032
  -8.6999999999999994E-002    -1.2283505718564467E-031
  -8.5899999999999990E-002     3.2413025393592092E-032
  -8.4799999999999986E-002     7.8670678831324295E-031
  -8.3699999999999997E-002     3.0523833761898280E-031
  -8.2599999999999993E-002    -4.2466273791252454E-030
  -8.1499999999999989E-002    -4.8053317566699450E-030
  -8.0399999999999999E-002     1.8242328687699138E-029
  -7.9299999999999995E-002     3.9089035263147911E-029
  -7.8199999999999992E-002    -5.3446511979345563E-029
  -7.7100000000000002E-002    -2.2873540503520764E-028
  -7.5999999999999984E-002     2.4204929554618030E-029
  -7.4899999999999994E-002     1.0079727994359810E-027
  -7.3799999999999991E-002     8.9808568867455902E-028
  -7.2699999999999987E-002    -3.1538518397850112E-027
  -7.1599999999999997E-002    -6.7883191120058682E-027
  -7.0499999999999993E-002     4.7749958593461838E-027
  -6.9399999999999989E-002     3.0179960096545567E-026
  -6.8300000000000000E-002     1.6038836428065798E-026
  -6.7199999999999996E-002    -8.7276741747750430E-026
  -6.6099999999999992E-002    -1.5318645864644275E-025
  -6.5000000000000002E-002     1.1245206040949701E-025
  -6.3899999999999985E-002     6.2342237668464535E-025
  -6.2799999999999995E-002     3.8030979310324322E-025
  -6.1699999999999991E-002    -1.4533817517763140E-024
  -6.0599999999999994E-002    -2.8792375827715250E-024
  -5.9499999999999990E-002     7.3283935639106274E-025
  -5.8399999999999994E-002     9.0653047440130829E-024
  -5.7299999999999990E-002     9.1766414167323556E-024
  -5.6199999999999986E-002    -1.3046610002016628E-023
  -5.5099999999999996E-002    -4.0613699067180467E-023
  -5.3999999999999992E-002    -1.7967870638722692E-023
  -5.2899999999999989E-002     7.9035709036829019E-023
  -5.1799999999999985E-002     1.4618984755470883E-022
  -5.0699999999999995E-002     1.4284111486824481E-024
  -4.9599999999999991E-002    -3.3984799275323713E-022
  -4.8499999999999988E-002    -4.5569866641170380E-022
  -4.7399999999999998E-002     1.4393012078182341E-022
  -4.6299999999999994E-002     1.1893595031064184E-021
  -4.5199999999999990E-002     1.3399095047911414E-021
  -4.4099999999999986E-002    -5.9760956833342557E-022
  -4.2999999999999997E-002    -3.6053070894907184E-021
  -4.1899999999999993E-002    -4.0787553029747378E-021
  -4.0799999999999989E-002     1.0823513922156275E-021
  -3.9699999999999985E-002     9.7922287148880973E-021
  -3.8599999999999995E-002     1.3379926712412953E-020
  -3.7499999999999992E-002     2.0967414960569276E-021
  -3.6399999999999988E-002    -2.3854766032971263E-020
  -3.5299999999999984E-002    -4.5041968294512777E-020
  -3.4199999999999994E-002    -2.7373225620492449E-020
  -3.3099999999999991E-002     4.8706601359147167E-020
  -3.1999999999999987E-002     1.4315320805222530E-019
  -3.0899999999999997E-002     1.4252321954288667E-019
  -2.9799999999999993E-002    -5.9845289471989794E-020
  -2.8699999999999989E-002    -3.9918206077675892E-019
  -2.7599999999999986E-002    -5.4727685873307308E-019
  -2.6499999999999996E-002    -1.0872978959279841E-019
  -2.5399999999999992E-002     8.9826096637274533E-019
  -2.4299999999999988E-002     1.6947366345878046E-018
  -2.3199999999999985E-002     1.1032709603515362E-018
  -2.2099999999999995E-002    -1.3130599903193523E-018
  -2.0999999999999991E-002    -4.1931501650084020E-018
  -1.9899999999999987E-002    -4.6717614169249529E-018
  -1.8799999999999983E-002    -4.6956939233952199E-019
  -1.7699999999999994E-002     7.4136442903146880E-018
  -1.6599999999999990E-002     1.3667341479452391E-017
  -1.5499999999999986E-002     1.1010010526735989E-017
  -1.4399999999999996E-002    -4.4063125409117859E-018
  -1.3299999999999992E-002    -2.7288661938344781E-017
  -1.2199999999999989E-002    -4.1693820400053646E-017
  -1.1099999999999985E-002    -2.7849248856916869E-017
  -9.9999999999999950E-003     2.2654008670879570E-017
  -8.8999999999999913E-003     9.0908194875872008E-017
  -7.7999999999999875E-003     1.2812941661662693E-016
  -6.6999999999999837E-003     7.8215095141355998E-017
  -5.5999999999999939E-003    -7.8101017008717585E-017
  -4.4999999999999901E-003    -2.8202329908768393E-016
  -3.3999999999999864E-003    -3.9418112862533278E-016
  -2.2999999999999826E-003    -2.5544647569727779E-016
  -1.1999999999999927E-003     1.9819723932803374E-016
  -9.9999999999988987E-005     8.2039031999180437E-016
   1.0000000000000148E-003     1.2260343454923296E-015
   2.1000000000000185E-003     9.3140685204236686E-016
   3.2000000000000084E-003    -3.2857048592660671E-016
   4.3000000000000121E-003    -2.2346533328746095E-015
   5.4000000000000159E-003    -3.7320885754911232E-015
   6.5000000000000058E-003    -3.3638179200245035E-015
   7.6000000000000234E-003    -1.4156574144024429E-016
   8.7000000000000133E-003     5.3883814592333920E-015
   9.8000000000000032E-003     1.0584984494813043E-014
   1.0900000000000021E-002     1.1377656561578457E-014
   1.2000000000000011E-002     4.3759382239733774E-015
   1.3100000000000001E-002    -1.0276213033451592E-014
   1.4200000000000018E-002    -2.6907138287748066E-014
   1.5300000000000008E-002    -3.5058107540055991E-014
   1.6400000000000026E-002    -2.3954417009003359E-014
   1.7500000000000016E-002     1.0305138361567379E-014
   1.8600000000000005E-002     5.8214514480660340E-014
   1.9700000000000023E-002     9.5679520350448050E-014
   2.0800000000000013E-002     9.1814285395428602E-014
   2.1900000000000003E-002     2.5410947760047542E-014
   2.3000000000000020E-002    -9.5925952727990427E-014
   2.4100000000000010E-002    -2.2482264259906376E-013
   2.5200000000000000E-002    -2.8272122056666182E-013
   2.6300000000000018E-002    -1.9297118156874626E-013
   2.7400000000000008E-002     6.9551650680108046E-014
   2.8500000000000025E-002     4.3491138424986420E-013
   2.9600000000000015E-002     7.3104760092701504E-013
   3.0700000000000005E-002     7.3607591376256831E-013
   3.1800000000000023E-002     2.8770361744021034E-013
   3.2900000000000013E-002    -5.8783170388612693E-013
   3.4000000000000002E-002    -1.5938623034242316E-012
   3.5100000000000020E-002    -2.1983708256567702E-012
   3.6200000000000010E-002    -1.8216055833880640E-012
   3.7300000000000028E-002    -1.4305203343504408E-013
   3.8400000000000017E-002     2.5855517813561102E-012
   3.9500000000000007E-002     5.3884071683774071E-012
   4.0600000000000025E-002     6.7306993312143959E-012
   4.1700000000000015E-002     5.0587940954305299E-012
   4.2800000000000005E-002    -3.9368676504544786E-013
   4.3900000000000022E-002    -8.8233543735216635E-012
   4.5000000000000012E-002    -1.7495413104362534E-011
   4.6100000000000002E-002    -2.2157010601264737E-011
   4.7200000000000020E-002    -1.8352040373481593E-011
   4.8300000000000010E-002    -3.3972286789252237E-012
   4.9400000000000027E-002     2.1605758848686207E-011
   5.0500000000000017E-002     5.0578888299845914E-011
   5.1600000000000007E-002     7.2895849079213093E-011
   5.2700000000000025E-002     7.5821779410567558E-011
   5.3800000000000014E-002     4.8689687698333373E-011
   5.4900000000000004E-002    -1.2193205646549021E-011
   5.6000000000000022E-002    -9.9452827917456688E-011
   5.7100000000000012E-002    -1.9302440201762749E-010
   5.8200000000000002E-002    -2.6222676807741152E-010
   5.9300000000000019E-002    -2.7184551831815895E-010
   6.0400000000000009E-002    -1.9138249318650935E-010
   6.1500000000000027E-002    -5.5569290488555190E-012
   6.2600000000000017E-002     2.7649044165301007E-010
   6.3700000000000007E-002     6.1579530363786716E-010
   6.4800000000000024E-002     9.4384011717352223E-010
   6.5900000000000014E-002     1.1691384527168225E-009
   6.7000000000000004E-002     1.1894099039011508E-009
   6.8100000000000022E-002     9.0722346302030132E-010
   6.9200000000000012E-002     2.4599836057070945E-010
   7.0300000000000029E-002    -8.3733930900109499E-010
   7.1400000000000019E-002    -2.3464290510588626E-009
   7.2500000000000009E-002    -4.2489696205905148E-009
   7.3600000000000027E-002    -6.4904024377199221E-009
   7.4700000000000016E-002    -9.0165457322655129E-009
   7.5800000000000006E-002    -1.1801518873255645E-008
   7.6900000000000024E-002    -1.4875476850306768E-008
   7.8000000000000014E-002    -1.8345863495028425E-008
   7.9100000000000004E-002    -2.2407318667205800E-008
   8.0200000000000021E-002    -2.7337577535035962E-008
   8.1300000000000011E-002    -3.3480716865597060E-008
   8.2400000000000029E-002    -4.1224840430231779E-008
   8.3500000000000019E-002    -5.0981068255850914E-008
   8.4600000000000009E-002    -6.3174041997626773E-008
   8.5700000000000026E-002    -7.8250323554129864E-008
   8.6800000000000016E-002    -9.6705875307634415E-008
   8.7900000000000006E-002    -1.1912553787851721E-007
   8.9000000000000024E-002    -1.4622855815105140E-007
   9.0100000000000013E-002    -1.7890471326609259E-007
   9.1200000000000003E-002    -2.1824040175033588E-007
   9.2300000000000021E-002    -2.6552467602414254E-007
   9.3400000000000011E-002    -3.2224738788499963E-007
   9.4500000000000028E-002    -3.9009455576888286E-007
   9.5600000000000018E-002    -4.7095753075154789E-007
   9.6700000000000008E-002    -5.6695995453992509E-007
   9.7800000000000026E-002    -6.8050013624088024E-007
   9.8900000000000016E-002    -8.1431170428913902E-007
  0.10000000000000001         -9.7152098987862701E-007
  0.10110000000000002         -1.1556918479982414E-006
  0.10220000000000001         -1.3708540791412815E-006
  0.10330000000000003         -1.6215004734476679E-006
  0.10440000000000002         -1.9125825474475278E-006
  0.10550000000000001         -2.2495087250717916E-006
  0.10660000000000003         -2.6381233055872144E-006
  0.10770000000000002         -3.0847431844449602E-006
  0.10880000000000001         -3.5961695630248869E-006
  0.10990000000000003         -4.1796838559093885E-006
  0.11100000000000002         -4.8430665628984571E-006
  0.11210000000000001         -5.5945884014363401E-006
  0.11320000000000002         -6.4429223129991442E-006
  0.11430000000000001         -7.3971018537122291E-006
  0.11540000000000003         -8.4664025052916259E-006
  0.11650000000000002         -9.6601115728844889E-006
  0.11760000000000001         -1.0987504538206849E-005
  0.11870000000000003         -1.2457665434340015E-005
  0.11980000000000002         -1.4079290849622339E-005
  0.12090000000000001         -1.5860425264691003E-005
  0.12200000000000003         -1.7808340999181382E-005
  0.12310000000000001         -1.9929011614294723E-005
  0.12420000000000003         -2.2227344743441790E-005
  0.12530000000000002         -2.4706321710254997E-005
  0.12640000000000001         -2.7366968424757943E-005
  0.12750000000000003         -3.0207724194042385E-005
  0.12860000000000002         -3.3224692742805928E-005
  0.12970000000000001         -3.6410721804713830E-005
  0.13080000000000003         -3.9755203033564612E-005
  0.13190000000000002         -4.3243762775091454E-005
  0.13300000000000001         -4.6857778215780854E-005
  0.13410000000000000         -5.0574188207974657E-005
  0.13520000000000004         -5.4365271353162825E-005
  0.13630000000000003         -5.8198278566123918E-005
  0.13740000000000002         -6.2035964219830930E-005
  0.13850000000000001         -6.5835811255965382E-005
  0.13960000000000000         -6.9550020270980895E-005
  0.14070000000000005         -7.3125927883666009E-005
  0.14180000000000004         -7.6506752520799637E-005
  0.14290000000000003         -7.9631478001829237E-005
  0.14400000000000002         -8.2434700743760914E-005
  0.14510000000000001         -8.4848470578435808E-005
  0.14620000000000000         -8.6801803263369948E-005
  0.14730000000000004         -8.8221677287947387E-005
  0.14840000000000003         -8.9036104327533394E-005
  0.14950000000000002         -8.9172855950891972E-005
  0.15060000000000001         -8.8561326265335083E-005
  0.15170000000000000         -8.7135100329760462E-005
  0.15280000000000005         -8.4830979176331311E-005
  0.15390000000000004         -8.1592668720986694E-005
  0.15500000000000003         -7.7371492807287723E-005
  0.15610000000000002         -7.2126735176425427E-005
  0.15720000000000001         -6.5828331571538001E-005
  0.15830000000000000         -5.8458299463381991E-005
  0.15940000000000004         -5.0012280553346500E-005
  0.16050000000000003         -4.0499835449736565E-005
  0.16160000000000002         -2.9944683774374425E-005
  0.16270000000000001         -1.8389360775472596E-005
  0.16380000000000000         -5.8879222706309520E-006
  0.16490000000000005          7.4860977292701136E-006
  0.16600000000000004          2.1640895283780992E-005
  0.16710000000000003          3.6471763451118022E-005
  0.16820000000000002          5.1856342906830832E-005
  0.16930000000000001          6.7656539613381028E-005
  0.17040000000000000          8.3724306023214012E-005
  0.17150000000000004          9.9898759799543768E-005
  0.17260000000000003          1.1600851576076820E-004
  0.17370000000000002          1.3187377771828324E-004
  0.17480000000000001          1.4731110422872007E-004
  0.17590000000000000          1.6213518392760307E-004
  0.17700000000000005          1.7616126569919288E-004
  0.17810000000000004          1.8920836737379432E-004
  0.17920000000000003          2.0110036712139845E-004
  0.18030000000000002          2.1167106751818210E-004
  0.18140000000000001          2.2076659661252052E-004
  0.18250000000000000          2.2824881307315081E-004
  0.18360000000000004          2.3399690689984709E-004
  0.18470000000000003          2.3791095009073615E-004
  0.18580000000000002          2.3991189664229751E-004
  0.18690000000000001          2.3994514776859432E-004
  0.18800000000000000          2.3798055190127343E-004
  0.18910000000000005          2.3401438375003636E-004
  0.19020000000000004          2.2806948982179165E-004
  0.19130000000000003          2.2019546304363757E-004
  0.19240000000000002          2.1046574693173170E-004
  0.19350000000000001          1.9897872698493302E-004
  0.19460000000000005          1.8585614452604204E-004
  0.19570000000000004          1.7124162695836276E-004
  0.19680000000000003          1.5529793745372444E-004
  0.19790000000000002          1.3820432650391012E-004
  0.19900000000000001          1.2015492393402383E-004
  0.20010000000000000          1.0135179036296904E-004
  0.20120000000000005          8.2005819422192872E-005
  0.20230000000000004          6.2329985667020082E-005
  0.20340000000000003          4.2541214497759938E-005
  0.20450000000000002          2.2850945242680609E-005
  0.20560000000000000          3.4672984838834964E-006
  0.20670000000000005         -1.5414030713145621E-005
  0.20780000000000004         -3.3607320801820606E-005
  0.20890000000000003         -5.0941100198542699E-005
