 -0.12000000000000000          0.0000000000000000
 -0.11889999999999999          0.0000000000000000
 -0.11780000000000000          0.0000000000000000
 -0.11670000000000000          1.2546763107634806E-011
 -0.11559999999999999          1.3697711367943732E-011
 -0.11449999999999999         -3.8519888667654101E-011
 -0.11340000000000000         -6.0437016502490337E-011
 -0.11230000000000000          8.1728193657149006E-011
 -0.11119999999999999          2.1664815774702362E-010
 -0.11009999999999999         -3.4040614077524012E-011
 -0.10900000000000000         -4.8208054215237439E-010
 -0.10790000000000000         -2.7206706332272290E-010
 -0.10679999999999999          7.1667355383553399E-010
 -0.10569999999999999          1.0246070658581630E-009
 -0.10460000000000000         -4.2161413249530710E-010
 -0.10349999999999999         -1.8818480107540836E-009
 -0.10239999999999999         -6.0493338116529571E-010
 -0.10130000000000000          2.4258657305153974E-009
 -0.10020000000000000          2.5024646799209904E-009
  -9.9099999999999994E-002    -1.8537392731943214E-009
  -9.7999999999999990E-002    -4.8300972110837392E-009
  -9.6899999999999986E-002    -6.5601130083692283E-010
  -9.5799999999999996E-002     6.4044076708569264E-009
  -9.4699999999999993E-002     5.8165898764173107E-009
  -9.3599999999999989E-002    -3.7803706831596173E-009
  -9.2499999999999999E-002    -9.8755315036669344E-009
  -9.1399999999999995E-002    -2.5646533785561587E-009
  -9.0299999999999991E-002     9.5435064295656957E-009
  -8.9200000000000002E-002     9.3253387234426555E-009
  -8.8099999999999984E-002    -4.2171426350989805E-009
  -8.6999999999999994E-002    -1.2694440165716969E-008
  -8.5899999999999990E-002    -3.9120702233219617E-009
  -8.4799999999999986E-002     9.9854604584947992E-009
  -8.3699999999999997E-002     9.7387156117179074E-009
  -8.2599999999999993E-002    -2.9504683141112764E-009
  -8.1499999999999989E-002    -8.7990539299198645E-009
  -8.0399999999999999E-002    -8.1161039000576807E-010
  -7.9299999999999995E-002     5.8461169238910315E-009
  -7.8199999999999992E-002    -3.1187788462894162E-010
  -7.7100000000000002E-002    -7.3376864584417945E-009
  -7.5999999999999984E-002     2.9691941180048920E-012
  -7.4899999999999994E-002     1.1607462546692204E-008
  -7.3799999999999991E-002     4.7746384623792437E-009
  -7.2699999999999987E-002    -1.6708165517798079E-008
  -7.1599999999999997E-002    -2.0920309040661778E-008
  -7.0499999999999993E-002     5.0183723843133521E-009
  -6.9399999999999989E-002     2.8316698319486022E-008
  -6.8300000000000000E-002     1.2550958494728093E-008
  -6.7199999999999996E-002    -2.6887942539133292E-008
  -6.6099999999999992E-002    -3.8679164759969353E-008
  -6.5000000000000002E-002    -6.8538561492914596E-009
  -6.3899999999999985E-002     2.4600396386631473E-008
  -6.2799999999999995E-002     1.2652751735231504E-008
  -6.1699999999999991E-002    -2.5253452662354903E-008
  -6.0599999999999994E-002    -3.9293038156529292E-008
  -5.9499999999999990E-002    -1.9400914652578649E-008
  -5.8399999999999994E-002    -3.7838399080669660E-009
  -5.7299999999999990E-002    -1.5919523477236908E-008
  -5.6199999999999986E-002    -3.1369257413871310E-008
  -5.5099999999999996E-002    -2.4939522447198215E-008
  -5.3999999999999992E-002    -1.7682884490000106E-008
  -5.2899999999999989E-002    -4.2286462331730945E-008
  -5.1799999999999985E-002    -8.0362298149339040E-008
  -5.0699999999999995E-002    -7.9882468639880244E-008
  -4.9599999999999991E-002    -3.7831284771527862E-008
  -4.8499999999999988E-002    -1.9347170976402595E-008
  -4.7399999999999998E-002    -6.9011790060358180E-008
  -4.6299999999999994E-002    -1.3945387422609201E-007
  -4.5199999999999990E-002    -1.5015395149475808E-007
  -4.4099999999999986E-002    -1.0027047636640418E-007
  -4.2999999999999997E-002    -7.1666931944491807E-008
  -4.1899999999999993E-002    -1.1474452321635908E-007
  -4.0799999999999989E-002    -1.8237510346352792E-007
  -3.9699999999999985E-002    -2.0388004884352995E-007
  -3.8599999999999995E-002    -1.8465661355548946E-007
  -3.7499999999999992E-002    -1.8540903568009526E-007
  -3.6399999999999988E-002    -2.2214078398974380E-007
  -3.5299999999999984E-002    -2.4801934728202468E-007
  -3.4199999999999994E-002    -2.3923982439555402E-007
  -3.3099999999999991E-002    -2.4121229103002406E-007
  -3.1999999999999987E-002    -2.9318422889446083E-007
  -3.0899999999999997E-002    -3.5208702797717706E-007
  -2.9799999999999993E-002    -3.4674403082135541E-007
  -2.8699999999999989E-002    -2.9049104455225461E-007
  -2.7599999999999986E-002    -2.7545084435587341E-007
  -2.6499999999999996E-002    -3.4248205338371918E-007
  -2.5399999999999992E-002    -4.1515204429742880E-007
  -2.4299999999999988E-002    -4.0524611222281237E-007
  -2.3199999999999985E-002    -3.3571558333278517E-007
  -2.2099999999999995E-002    -3.0304008191706089E-007
  -2.0999999999999991E-002    -3.3726442438819504E-007
  -1.9899999999999987E-002    -3.6610245501833560E-007
  -1.8799999999999983E-002    -3.3274599786636827E-007
  -1.7699999999999994E-002    -2.7657031864691817E-007
  -1.6599999999999990E-002    -2.5848984819276666E-007
  -1.5499999999999986E-002    -2.6027734634226363E-007
  -1.4399999999999996E-002    -2.1478064127222751E-007
  -1.3299999999999992E-002    -1.2105300584153156E-007
  -1.2199999999999989E-002    -5.5594554737581348E-008
  -1.1099999999999985E-002    -5.3948753020449658E-008
  -9.9999999999999950E-003    -4.6930264119282583E-008
  -8.8999999999999913E-003     4.4146634792241457E-008
  -7.7999999999999875E-003     1.8381598465566640E-007
  -6.6999999999999837E-003     2.7294689175505482E-007
  -5.5999999999999939E-003     2.9075033580738818E-007
  -4.4999999999999901E-003     3.1965078051143792E-007
  -3.3999999999999864E-003     4.1699919961502019E-007
  -2.2999999999999826E-003     5.4522678283319692E-007
  -1.1999999999999927E-003     6.2424891211776412E-007
  -9.9999999999988987E-005     6.5646048597045592E-007
   1.0000000000000148E-003     7.1318436312139966E-007
   2.1000000000000185E-003     8.1598585666142753E-007
   3.2000000000000084E-003     9.0017709908352117E-007
   4.3000000000000121E-003     9.2065471335445181E-007
   5.4000000000000159E-003     9.2411386276580743E-007
   6.5000000000000058E-003     9.7955614819511538E-007
   7.6000000000000234E-003     1.0640048913046485E-006
   8.7000000000000133E-003     1.0929903737633140E-006
   9.8000000000000032E-003     1.0448736702528549E-006
   1.0900000000000021E-002     9.9647934348467970E-007
   1.2000000000000011E-002     1.0080314041260863E-006
   1.3100000000000001E-002     1.0344176644139225E-006
   1.4200000000000018E-002     9.9647274964809185E-007
   1.5300000000000008E-002     8.9729655883274972E-007
   1.6400000000000026E-002     8.1030304954765597E-007
   1.7500000000000016E-002     7.6809271831734804E-007
   1.8600000000000005E-002     7.1729988349034102E-007
   1.9700000000000023E-002     6.0983080629739561E-007
   2.0800000000000013E-002     4.7799539970583282E-007
   2.1900000000000003E-002     3.8044950656512810E-007
   2.3000000000000020E-002     3.0972381637184299E-007
   2.4100000000000010E-002     2.0685543233867065E-007
   2.5200000000000000E-002     5.5824397549031346E-008
   2.6300000000000018E-002    -8.2064389061997645E-008
   2.7400000000000008E-002    -1.6387151902108599E-007
   2.8500000000000025E-002    -2.3072466603935027E-007
   2.9600000000000015E-002    -3.3789441999942937E-007
   3.0700000000000005E-002    -4.7550506110383139E-007
   3.1800000000000023E-002    -5.7879600490196026E-007
   3.2900000000000013E-002    -6.2533001710107783E-007
   3.4000000000000002E-002    -6.6240761498193024E-007
   3.5100000000000020E-002    -7.3492225283189327E-007
   3.6200000000000010E-002    -8.1517725902813254E-007
   3.7300000000000028E-002    -8.5230021795723587E-007
   3.8400000000000017E-002    -8.5257198634280940E-007
   3.9500000000000007E-002    -8.5643222291764687E-007
   4.0600000000000025E-002    -8.7535363491042517E-007
   4.1700000000000015E-002    -8.7494743183924584E-007
   4.2800000000000005E-002    -8.3770225955959177E-007
   4.3900000000000022E-002    -7.8578489137726137E-007
   4.5000000000000012E-002    -7.5855615477848914E-007
   4.6100000000000002E-002    -7.4056526955246227E-007
   4.7200000000000020E-002    -6.9102645738894353E-007
   4.8300000000000010E-002    -6.0754990727218683E-007
   4.9400000000000027E-002    -5.3098835905984743E-007
   5.0500000000000017E-002    -4.7668450520177430E-007
   5.1600000000000007E-002    -4.2288183976779692E-007
   5.2700000000000025E-002    -3.5542799992072105E-007
   5.3800000000000014E-002    -2.8155281484032457E-007
   5.4900000000000004E-002    -2.1510018655135354E-007
   5.6000000000000022E-002    -1.5103626083146082E-007
   5.7100000000000012E-002    -7.9293315025097399E-008
   5.8200000000000002E-002    -1.4285348903797512E-008
   5.9300000000000019E-002     2.4737056847357053E-008
   6.0400000000000009E-002     4.9410129321358909E-008
   6.1500000000000027E-002     9.1840142601995467E-008
   6.2600000000000017E-002     1.5357205995769618E-007
   6.3700000000000007E-002     2.0028106462177675E-007
   6.4800000000000024E-002     2.0984776938348659E-007
   6.5900000000000014E-002     2.0611352624655410E-007
   6.7000000000000004E-002     2.2040029534764471E-007
   6.8100000000000022E-002     2.4578838520028512E-007
   6.9200000000000012E-002     2.5203746645274805E-007
   7.0300000000000029E-002     2.3899499979052052E-007
   7.1400000000000019E-002     2.3603196552812733E-007
   7.2500000000000009E-002     2.4865852310540504E-007
   7.3600000000000027E-002     2.4384235075558536E-007
   7.4700000000000016E-002     2.0348151963389682E-007
   7.5800000000000006E-002     1.6283809145534178E-007
   7.6900000000000024E-002     1.6239735600720451E-007
   7.8000000000000014E-002     1.8353391340042435E-007
   7.9100000000000004E-002     1.7102689753301092E-007
   8.0200000000000021E-002     1.1795979304451976E-007
   8.1300000000000011E-002     7.7164990841538383E-008
   8.2400000000000029E-002     8.1531950968383171E-008
   8.3500000000000019E-002     9.2311026378411043E-008
   8.4600000000000009E-002     6.2772052444870496E-008
   8.5700000000000026E-002     1.6143008707558693E-008
   8.6800000000000016E-002     1.2094719004096532E-008
   8.7900000000000006E-002     4.3467931476470767E-008
   8.9000000000000024E-002     4.1484081947373852E-008
   9.0100000000000013E-002    -1.8621502562155001E-008
   9.1200000000000003E-002    -6.9468079288981244E-008
   9.2300000000000021E-002    -4.4174747415581805E-008
   9.3400000000000011E-002     1.6352872833635956E-008
   9.4500000000000028E-002     2.0782561449550485E-008
   9.5600000000000018E-002    -4.0895127284557020E-008
   9.6700000000000008E-002    -8.3470567346921598E-008
   9.7800000000000026E-002    -5.3286314027900517E-008
   9.8900000000000016E-002    -6.8565011446253266E-009
  0.10000000000000001         -1.6699496896421806E-008
  0.10110000000000002         -5.9116413098081466E-008
  0.10220000000000001         -5.6623999711291617E-008
  0.10330000000000003         -8.1515709737800535E-009
  0.10440000000000002          5.8127969104759813E-009
  0.10550000000000001         -4.6637936179649842E-008
  0.10660000000000003         -8.5613464761991054E-008
  0.10770000000000002         -3.9280720898204891E-008
  0.10880000000000001          3.6905394296127270E-008
  0.10990000000000003          3.3861535797541364E-008
  0.11100000000000002         -4.6638657380526638E-008
  0.11210000000000001         -8.8854278601502301E-008
  0.11320000000000002         -3.1002141298586139E-008
  0.11430000000000001          4.1655923155303753E-008
  0.11540000000000003          2.7546334990802279E-008
  0.11650000000000002         -4.0578502336074962E-008
  0.11760000000000001         -5.0865256895349376E-008
  0.11870000000000003          1.1970050728393744E-008
  0.11980000000000002          4.5448064867059657E-008
  0.12090000000000001         -6.5870797705258610E-009
  0.12200000000000003         -6.2009206658331095E-008
  0.12310000000000001         -2.7416016123993359E-008
  0.12420000000000003          5.1528090239116864E-008
  0.12530000000000002          5.5467513249141120E-008
  0.12640000000000001         -2.5088526811600786E-008
  0.12750000000000003         -7.0769452520380582E-008
  0.12860000000000002         -1.3358895323278830E-008
  0.12970000000000001          6.0371384336121992E-008
  0.13080000000000003          4.1497742131468840E-008
  0.13190000000000002         -3.5450721469487689E-008
  0.13300000000000001         -4.8838508348580945E-008
  0.13410000000000000          1.9689929686705909E-008
  0.13520000000000004          5.8035780625687039E-008
  0.13630000000000003          1.6230221611124307E-009
  0.13740000000000002         -6.2254805754946574E-008
  0.13850000000000001         -2.8855920319870165E-008
  0.13960000000000000          5.7334265335384771E-008
  0.14070000000000005          6.5520652015038650E-008
  0.14180000000000004         -2.1738889799394201E-008
  0.14290000000000003         -7.7949756871475984E-008
  0.14400000000000002         -2.1738541633453679E-008
  0.14510000000000001          6.1592942302013398E-008
  0.14620000000000000          5.0608399249085778E-008
  0.14730000000000004         -3.0880375589958931E-008
  0.14840000000000003         -5.6331256104158456E-008
  0.14950000000000002          7.8234068112692512E-009
  0.15060000000000001          5.5536595766625396E-008
  0.15170000000000000          1.0710107467559737E-008
  0.15280000000000005         -5.3877098338261931E-008
  0.15390000000000004         -3.2640055991350891E-008
  0.15500000000000003          4.4667224585737131E-008
  0.15610000000000002          5.6955641980493965E-008
  0.15720000000000001         -1.9421122487983666E-008
  0.15830000000000000         -7.0502238713743282E-008
  0.15940000000000004         -1.7675292340868509E-008
  0.16050000000000003          6.1620553992725036E-008
  0.16160000000000002          5.0730157852285629E-008
  0.16270000000000001         -3.0668839912095791E-008
  0.16380000000000000         -5.9730375312483375E-008
  0.16490000000000005          2.3380499758474116E-009
  0.16600000000000004          5.5747989335941384E-008
  0.16710000000000003          1.9510801863020788E-008
  0.16820000000000002         -4.5779628976561071E-008
  0.16930000000000001         -3.6153515736714326E-008
  0.17040000000000000          3.3192993242892044E-008
  0.17150000000000004          5.2871722999725534E-008
  0.17260000000000003         -9.6694687812259872E-009
  0.17370000000000002         -5.9215061298800720E-008
  0.17480000000000001         -1.9500909331782168E-008
  0.17590000000000000          4.9745789709731980E-008
  0.17700000000000005          4.4491955009107187E-008
  0.17810000000000004         -2.5590185970258972E-008
  0.17920000000000003         -5.4657213865993981E-008
  0.18030000000000002         -2.3760253764493200E-009
  0.18140000000000001          4.8568342236876560E-008
  0.18250000000000000          2.2193201942855012E-008
  0.18360000000000004         -3.6756549803840244E-008
  0.18470000000000003         -3.6479438136893805E-008
  0.18580000000000002          2.0007718148917775E-008
  0.18690000000000001          4.3234436475358962E-008
  0.18800000000000000         -2.3896233880549289E-009
  0.18910000000000005         -4.5126125058914113E-008
  0.19020000000000004         -1.8837495119328196E-008
  0.19130000000000003          3.5613322069139031E-008
  0.19240000000000002          3.5166685563581268E-008
  0.19350000000000001         -1.7812279651252538E-008
  0.19460000000000005         -4.1537834505334104E-008
  0.19570000000000004         -9.8511632184994369E-010
  0.19680000000000003          4.0703483250581485E-008
  0.19790000000000002          2.0957475754812549E-008
  0.19900000000000001         -2.8178778421761308E-008
  0.20010000000000000         -3.2285697670886293E-008
  0.20120000000000005          1.1928826815221782E-008
  0.20230000000000004          3.5357743399799801E-008
  0.20340000000000003          4.1095313818573231E-009
  0.20450000000000002         -3.1514165499402225E-008
  0.20560000000000000         -1.7190796341992609E-008
  0.20670000000000005          2.3342304089624122E-008
  0.20780000000000004          2.7879025310539873E-008
  0.20890000000000003         -8.7443785545815444E-009
