 -0.12000000000000000          0.0000000000000000
 -0.11889999999999999          0.0000000000000000
 -0.11780000000000000         -2.8803398555155013E-010
 -0.11670000000000000         -3.7413219744486526E-010
 -0.11559999999999999          3.5014199872840379E-010
 -0.11449999999999999          9.4073016043694224E-010
 -0.11340000000000000          9.4344004830659856E-011
 -0.11230000000000000         -1.0913597803252628E-009
 -0.11119999999999999         -5.3994958504333113E-010
 -0.11009999999999999          4.0800537948193494E-010
 -0.10900000000000000         -1.7057472101456028E-009
 -0.10790000000000000         -5.1608433082606098E-009
 -0.10679999999999999         -2.5409692128164352E-009
 -0.10569999999999999          7.8289570382139573E-009
 -0.10460000000000000          1.4875282339232854E-008
 -0.10349999999999999          7.4609012301607436E-009
 -0.10239999999999999         -7.8669240011208785E-009
 -0.10130000000000000         -1.2319269160343538E-008
 -0.10020000000000000         -5.1220849783817357E-010
  -9.9099999999999994E-002     1.0257104499089564E-008
  -9.7999999999999990E-002     3.9316976341297050E-009
  -9.6899999999999986E-002    -1.0295769570234370E-008
  -9.5799999999999996E-002    -1.0654827242717602E-008
  -9.4699999999999993E-002     4.9943960078735472E-009
  -9.3599999999999989E-002     1.5762271488029000E-008
  -9.2499999999999999E-002     8.8266656206315020E-009
  -9.1399999999999995E-002    -2.6693327548343859E-009
  -9.0299999999999991E-002    -2.5358068977965331E-009
  -8.9200000000000002E-002     1.5049547164025512E-009
  -8.8099999999999984E-002    -9.5547294520770265E-009
  -8.6999999999999994E-002    -3.3973915236629182E-008
  -8.5899999999999990E-002    -5.0857114075597565E-008
  -8.4799999999999986E-002    -5.4564850415772526E-008
  -8.3699999999999997E-002    -6.5483156674872589E-008
  -8.2599999999999993E-002    -9.6674341421021381E-008
  -8.1499999999999989E-002    -1.2998641807371314E-007
  -8.0399999999999999E-002    -1.4490642286091315E-007
  -7.9299999999999995E-002    -1.5748256032566132E-007
  -7.8199999999999992E-002    -2.0287137658669963E-007
  -7.7100000000000002E-002    -2.8165871412966226E-007
  -7.5999999999999984E-002    -3.5502640116646944E-007
  -7.4899999999999994E-002    -4.0535360312787816E-007
  -7.3799999999999991E-002    -4.7339014486169617E-007
  -7.2699999999999987E-002    -6.0896633158336044E-007
  -7.1599999999999997E-002    -8.0216420883516548E-007
  -7.0499999999999993E-002    -9.9893850347143598E-007
  -6.9399999999999989E-002    -1.1834122233267408E-006
  -6.8300000000000000E-002    -1.4076350680625183E-006
  -6.7199999999999996E-002    -1.7256284081668127E-006
  -6.6099999999999992E-002    -2.1305838799889898E-006
  -6.5000000000000002E-002    -2.5860933874355396E-006
  -6.3899999999999985E-002    -3.0978658287494909E-006
  -6.2799999999999995E-002    -3.7148834053368773E-006
  -6.1699999999999991E-002    -4.4658104343398008E-006
  -6.0599999999999994E-002    -5.3392113841255195E-006
  -5.9499999999999990E-002    -6.3407364905287977E-006
  -5.8399999999999994E-002    -7.5280327109794598E-006
  -5.7299999999999990E-002    -8.9556288003223017E-006
  -5.6199999999999986E-002    -1.0613592166919261E-005
  -5.5099999999999996E-002    -1.2469089597288985E-005
  -5.3999999999999992E-002    -1.4562010619556531E-005
  -5.2899999999999989E-002    -1.7006905181915499E-005
  -5.1799999999999985E-002    -1.9883864297298715E-005
  -5.0699999999999995E-002    -2.3173781301011331E-005
  -4.9599999999999991E-002    -2.6839208658202551E-005
  -4.8499999999999988E-002    -3.0936942494008690E-005
  -4.7399999999999998E-002    -3.5597320675151423E-005
  -4.6299999999999994E-002    -4.0901679312810302E-005
  -4.5199999999999990E-002    -4.6839279093546793E-005
  -4.4099999999999986E-002    -5.3402578487293795E-005
  -4.2999999999999997E-002    -6.0669895901810378E-005
  -4.1899999999999993E-002    -6.8749301135540009E-005
  -4.0799999999999989E-002    -7.7678938396275043E-005
  -3.9699999999999985E-002    -8.7439038907177746E-005
  -3.8599999999999995E-002    -9.8054588306695223E-005
  -3.7499999999999992E-002    -1.0961812949972227E-004
  -3.6399999999999988E-002    -1.2218955089338124E-004
  -3.5299999999999984E-002    -1.3573023898061365E-004
  -3.4199999999999994E-002    -1.5017796249594539E-004
  -3.3099999999999991E-002    -1.6554954345338047E-004
  -3.1999999999999987E-002    -1.8190105038229376E-004
  -3.0899999999999997E-002    -1.9920022168662399E-004
  -2.9799999999999993E-002    -2.1730444859713316E-004
  -2.8699999999999989E-002    -2.3608304036315531E-004
  -2.7599999999999986E-002    -2.5549545534886420E-004
  -2.6499999999999996E-002    -2.7549968217499554E-004
  -2.5399999999999992E-002    -2.9592090868391097E-004
  -2.4299999999999988E-002    -3.1648448202759027E-004
  -2.3199999999999985E-002    -3.3696304308250546E-004
  -2.2099999999999995E-002    -3.5721459425985813E-004
  -2.0999999999999991E-002    -3.7705618888139725E-004
  -1.9899999999999987E-002    -3.9616250433027744E-004
  -1.8799999999999983E-002    -4.1414241422899067E-004
  -1.7699999999999994E-002    -4.3067528167739511E-004
  -1.6599999999999990E-002    -4.4549690210260451E-004
  -1.5499999999999986E-002    -4.5828154543414712E-004
  -1.4399999999999996E-002    -4.6860022121109068E-004
  -1.3299999999999992E-002    -4.7602335689589381E-004
  -1.2199999999999989E-002    -4.8021943075582385E-004
  -1.1099999999999985E-002    -4.8088282346725464E-004
  -9.9999999999999950E-003    -4.7762470785528421E-004
  -8.8999999999999913E-003    -4.7001554048620164E-004
  -7.7999999999999875E-003    -4.5772077282890677E-004
  -6.6999999999999837E-003    -4.4053487363271415E-004
  -5.5999999999999939E-003    -4.1827061795629561E-004
  -4.4999999999999901E-003    -3.9066554745659232E-004
  -3.3999999999999864E-003    -3.5747908987104893E-004
  -2.2999999999999826E-003    -3.1863243202678859E-004
  -1.1999999999999927E-003    -2.7419783873483539E-004
  -9.9999999999988987E-005    -2.2426784562412649E-004
   1.0000000000000148E-003    -1.6890589904505759E-004
   2.1000000000000185E-003    -1.0825985373230651E-004
   3.2000000000000084E-003    -4.2663948988774791E-005
   4.3000000000000121E-003     2.7417925593908876E-005
   5.4000000000000159E-003     1.0152736649615690E-004
   6.5000000000000058E-003     1.7919683887157589E-004
   7.6000000000000234E-003     2.5982316583395004E-004
   8.7000000000000133E-003     3.4263037377968431E-004
   9.8000000000000032E-003     4.2678200406953692E-004
   1.0900000000000021E-002     5.1148590864613652E-004
   1.2000000000000011E-002     5.9594039339572191E-004
   1.3100000000000001E-002     6.7922967718914151E-004
   1.4200000000000018E-002     7.6034030644223094E-004
   1.5300000000000008E-002     8.3828187780454755E-004
   1.6400000000000026E-002     9.1215182328596711E-004
   1.7500000000000016E-002     9.8106253426522017E-004
   1.8600000000000005E-002     1.0440788464620709E-003
   1.9700000000000023E-002     1.1002903338521719E-003
   2.0800000000000013E-002     1.1489208554849029E-003
   2.1900000000000003E-002     1.1893266346305609E-003
   2.3000000000000020E-002     1.2208991684019566E-003
   2.4100000000000010E-002     1.2430461356416345E-003
   2.5200000000000000E-002     1.2553016422316432E-003
   2.6300000000000018E-002     1.2574148131534457E-003
   2.7400000000000008E-002     1.2493026442825794E-003
   2.8500000000000025E-002     1.2309402227401733E-003
   2.9600000000000015E-002     1.2023727176710963E-003
   3.0700000000000005E-002     1.1637964053079486E-003
   3.1800000000000023E-002     1.1156075634062290E-003
   3.2900000000000013E-002     1.0583422845229506E-003
   3.4000000000000002E-002     9.9260511342436075E-004
   3.5100000000000020E-002     9.1908278409391642E-004
   3.6200000000000010E-002     8.3860277663916349E-004
   3.7300000000000028E-002     7.5210584327578545E-004
   3.8400000000000017E-002     6.6056917421519756E-004
   3.9500000000000007E-002     5.6498276535421610E-004
   4.0600000000000025E-002     4.6639112406410277E-004
   4.1700000000000015E-002     3.6590974195860326E-004
   4.2800000000000005E-002     2.6468193391337991E-004
   4.3900000000000022E-002     1.6379807493649423E-004
   4.5000000000000012E-002     6.4275431213900447E-005
   4.6100000000000002E-002    -3.2908472348935902E-005
   4.7200000000000020E-002    -1.2679053179454058E-004
   4.8300000000000010E-002    -2.1645508240908384E-004
   4.9400000000000027E-002    -3.0109734507277608E-004
   5.0500000000000017E-002    -3.8001642678864300E-004
   5.1600000000000007E-002    -4.5261281775310636E-004
   5.2700000000000025E-002    -5.1837495993822813E-004
   5.3800000000000014E-002    -5.7690712856128812E-004
   5.4900000000000004E-002    -6.2793685356155038E-004
   5.6000000000000022E-002    -6.7129544913768768E-004
   5.7100000000000012E-002    -7.0690241409465671E-004
   5.8200000000000002E-002    -7.3476717807352543E-004
   5.9300000000000019E-002    -7.5501063838601112E-004
   6.0400000000000009E-002    -7.6786876888945699E-004
   6.1500000000000027E-002    -7.7366543700918555E-004
   6.2600000000000017E-002    -7.7278498793020844E-004
   6.3700000000000007E-002    -7.6565385097637773E-004
   6.4800000000000024E-002    -7.5273448601365089E-004
   6.5900000000000014E-002    -7.3453725781291723E-004
   6.7000000000000004E-002    -7.1163446409627795E-004
   6.8100000000000022E-002    -6.8463862407952547E-004
   6.9200000000000012E-002    -6.5415626158937812E-004
   7.0300000000000029E-002    -6.2075664754956961E-004
   7.1400000000000019E-002    -5.8499083388596773E-004
   7.2500000000000009E-002    -5.4742651991546154E-004
   7.3600000000000027E-002    -5.0862942589446902E-004
   7.4700000000000016E-002    -4.6911954996176064E-004
   7.5800000000000006E-002    -4.2935236706398427E-004
   7.6900000000000024E-002    -3.8975570350885391E-004
   7.8000000000000014E-002    -3.5075042978860438E-004
   7.9100000000000004E-002    -3.1271346961148083E-004
   8.0200000000000021E-002    -2.7592902188189328E-004
   8.1300000000000011E-002    -2.4060958821792156E-004
   8.2400000000000029E-002    -2.0696858700830489E-004
   8.3500000000000019E-002    -1.7523295537102968E-004
   8.4600000000000009E-002    -1.4557153917849064E-004
   8.5700000000000026E-002    -1.1803683446487412E-004
   8.6800000000000016E-002    -9.2625785327982157E-005
   8.7900000000000006E-002    -6.9369023549370468E-005
   8.9000000000000024E-002    -4.8316986067220569E-005
   9.0100000000000013E-002    -2.9451661248458549E-005
   9.1200000000000003E-002    -1.2658281775657088E-005
   9.2300000000000021E-002     2.1783002921438310E-006
   9.3400000000000011E-002     1.5103054465726018E-005
   9.4500000000000028E-002     2.6158328182646073E-005
   9.5600000000000018E-002     3.5484787076711655E-005
   9.6700000000000008E-002     4.3292922782711685E-005
   9.7800000000000026E-002     4.9728885642252862E-005
   9.8900000000000016E-002     5.4832828027429059E-005
  0.10000000000000001          5.8660167269408703E-005
  0.10110000000000002          6.1385617300402373E-005
  0.10220000000000001          6.3230298110283911E-005
  0.10330000000000003          6.4312487666029483E-005
  0.10440000000000002          6.4648469560779631E-005
  0.10550000000000001          6.4296451455447823E-005
  0.10660000000000003          6.3421699451282620E-005
  0.10770000000000002          6.2182865804061294E-005
  0.10880000000000001          6.0616624978138134E-005
  0.10990000000000003          5.8705943956738338E-005
  0.11100000000000002          5.6526241678511724E-005
  0.11210000000000001          5.4237818403635174E-005
  0.11320000000000002          5.1925806474173442E-005
  0.11430000000000001          4.9538011808181182E-005
  0.11540000000000003          4.7024645027704537E-005
  0.11650000000000002          4.4474858441390097E-005
  0.11760000000000001          4.2033883801195771E-005
  0.11870000000000003          3.9724200178170577E-005
  0.11980000000000002          3.7443449400598183E-005
  0.12090000000000001          3.5145709261996672E-005
  0.12200000000000003          3.2931646273937076E-005
  0.12310000000000001          3.0907918699085712E-005
  0.12420000000000003          2.9032724341959693E-005
  0.12530000000000002          2.7187668820261024E-005
  0.12640000000000001          2.5367347916471772E-005
  0.12750000000000003          2.3692426111665554E-005
  0.12860000000000002          2.2223062842385843E-005
  0.12970000000000001          2.0859437427134253E-005
  0.13080000000000003          1.9487772078718990E-005
  0.13190000000000002          1.8148621165892109E-005
  0.13300000000000001          1.6969777789199725E-005
  0.13410000000000000          1.5965037164278328E-005
  0.13520000000000004          1.5007891306595411E-005
  0.13630000000000003          1.4020598428032827E-005
  0.13740000000000002          1.3085677892377134E-005
  0.13850000000000001          1.2308991244935896E-005
  0.13960000000000000          1.1646819984889589E-005
  0.14070000000000005          1.0966884474328253E-005
  0.14180000000000004          1.0248432772641536E-005
  0.14290000000000003          9.6109406513278373E-006
  0.14400000000000002          9.1237116066622548E-006
  0.14510000000000001          8.6909649326116778E-006
  0.14620000000000000          8.1910866356338374E-006
  0.14730000000000004          7.6582473411690444E-006
  0.14840000000000003          7.2268953772436362E-006
  0.14950000000000002          6.9232846726663411E-006
  0.15060000000000001          6.6240545493201353E-006
  0.15170000000000000          6.2431631704384927E-006
  0.15280000000000005          5.8585892475093715E-006
  0.15390000000000004          5.5859513850009535E-006
  0.15500000000000003          5.3962467063684016E-006
  0.15610000000000002          5.1593128773674835E-006
  0.15720000000000001          4.8442375373269897E-006
  0.15830000000000000          4.5659062379854731E-006
  0.15940000000000004          4.4064527173759416E-006
  0.16050000000000003          4.2871565710811410E-006
  0.16160000000000002          4.0874015212466475E-006
  0.16270000000000001          3.8266580304480158E-006
  0.16380000000000000          3.6316841942607425E-006
  0.16490000000000005          3.5414848298387369E-006
  0.16600000000000004          3.4504203085816698E-006
  0.16710000000000003          3.2716818623157451E-006
  0.16820000000000002          3.0670269097754499E-006
  0.16930000000000001          2.9459879442583770E-006
  0.17040000000000000          2.8956289952475345E-006
  0.17150000000000004          2.8034846764057875E-006
  0.17260000000000003          2.6337377221352654E-006
  0.17370000000000002          2.4818646124913357E-006
  0.17480000000000001          2.4248843146779109E-006
  0.17590000000000000          2.4011126242839964E-006
  0.17700000000000005          2.3047900867823046E-006
  0.17810000000000004          2.1477721929841209E-006
  0.17920000000000003          2.0397931166371563E-006
  0.18030000000000002          2.0203976873744978E-006
  0.18140000000000001          2.0005163605674170E-006
  0.18250000000000000          1.9001555529030156E-006
  0.18360000000000004          1.7683031501292135E-006
  0.18470000000000003          1.7042891613527900E-006
  0.18580000000000002          1.7059850279110833E-006
  0.18690000000000001          1.6768647128628800E-006
  0.18800000000000000          1.5750845250295242E-006
  0.18910000000000005          1.4741686982233659E-006
  0.19020000000000004          1.4468828339886386E-006
  0.19130000000000003          1.4551023923559114E-006
  0.19240000000000002          1.4117680393610499E-006
  0.19350000000000001          1.3138537724444177E-006
  0.19460000000000005          1.2426487501215888E-006
  0.19570000000000004          1.2370725244181813E-006
  0.19680000000000003          1.2378297924442450E-006
  0.19790000000000002          1.1828956303361338E-006
  0.19900000000000001          1.1018767054338241E-006
  0.20010000000000000          1.0656008271325845E-006
  0.20120000000000005          1.0749545253929682E-006
  0.20230000000000004          1.0616058716550469E-006
  0.20340000000000003          9.9514193152572261E-007
  0.20450000000000002          9.2923158945268369E-007
  0.20560000000000000          9.1800131940544816E-007
  0.20670000000000005          9.3420322855308768E-007
  0.20780000000000004          9.1277689762137015E-007
  0.20890000000000003          8.4921953202865552E-007
