 -0.12000000000000000          0.0000000000000000
 -0.11889999999999999          0.0000000000000000
 -0.11780000000000000          0.0000000000000000
 -0.11670000000000000          0.0000000000000000
 -0.11559999999999999         -1.6396096381098534E-014
 -0.11449999999999999          2.1678969722356035E-014
 -0.11340000000000000          1.2450511541889364E-013
 -0.11230000000000000         -1.4876001906000136E-013
 -0.11119999999999999         -7.5565855656156700E-013
 -0.11009999999999999          1.9396066512893800E-013
 -0.10900000000000000          3.1764738409045812E-012
 -0.10790000000000000          2.0208446461361662E-012
 -0.10679999999999999         -8.5105169439492201E-012
 -0.10569999999999999         -1.4544771637092779E-011
 -0.10460000000000000          8.3655591134879081E-012
 -0.10349999999999999          4.6377134771402595E-011
 -0.10239999999999999          3.1755830603996671E-011
 -0.10130000000000000         -6.6460302539095295E-011
 -0.10020000000000000         -1.4168190232144440E-010
  -9.9099999999999994E-002    -3.8163611160157984E-011
  -9.7999999999999990E-002     2.0275016388016098E-010
  -9.6899999999999986E-002     2.9167254722572977E-010
  -9.5799999999999996E-002     3.1752652590588681E-011
  -9.4699999999999993E-002    -3.4510549973276738E-010
  -9.3599999999999989E-002    -3.9535849594152239E-010
  -9.2499999999999999E-002    -5.2329182653743089E-011
  -9.1399999999999995E-002     2.5030413852711320E-010
  -9.0299999999999991E-002     1.9362141057133186E-010
  -8.9200000000000002E-002     5.4075063871117379E-011
  -8.8099999999999984E-002     2.4755505978468761E-010
  -8.6999999999999994E-002     5.6479942944775985E-010
  -8.5899999999999990E-002     3.5876548953872600E-010
  -8.4799999999999986E-002    -4.5047773844508754E-010
  -8.3699999999999997E-002    -1.0953502549426730E-009
  -8.2599999999999993E-002    -9.6009877825764534E-010
  -8.1499999999999989E-002    -3.4731525988540568E-010
  -8.0399999999999999E-002     2.2505067254208200E-010
  -7.9299999999999995E-002     9.2576130095167741E-010
  -7.8199999999999992E-002     1.8414201274907782E-009
  -7.7100000000000002E-002     1.5221577331914204E-009
  -7.5999999999999984E-002    -2.3157895601144673E-009
  -7.4899999999999994E-002    -1.0041565801088836E-008
  -7.3799999999999991E-002    -1.9254601468787769E-008
  -7.2699999999999987E-002    -2.7822270709521035E-008
  -7.1599999999999997E-002    -3.6855002605307163E-008
  -7.0499999999999993E-002    -4.8887777381878550E-008
  -6.9399999999999989E-002    -6.3468554856171977E-008
  -6.8300000000000000E-002    -7.7072918713838590E-008
  -6.7199999999999996E-002    -8.8544886978070281E-008
  -6.6099999999999992E-002    -1.0255871529807337E-007
  -6.5000000000000002E-002    -1.2546405514513026E-007
  -6.3899999999999985E-002    -1.5878904946475814E-007
  -6.2799999999999995E-002    -1.9951424690134445E-007
  -6.1699999999999991E-002    -2.4643466645102308E-007
  -6.0599999999999994E-002    -3.0301055176096270E-007
  -5.9499999999999990E-002    -3.7302157807062031E-007
  -5.8399999999999994E-002    -4.5698277517658425E-007
  -5.7299999999999990E-002    -5.5577288549102377E-007
  -5.6199999999999986E-002    -6.7517675006456557E-007
  -5.5099999999999996E-002    -8.2239944276807364E-007
  -5.3999999999999992E-002    -9.9919100193801569E-007
  -5.2899999999999989E-002    -1.2042086154906428E-006
  -5.1799999999999985E-002    -1.4437671325140400E-006
  -5.0699999999999995E-002    -1.7342921410090639E-006
  -4.9599999999999991E-002    -2.0892637166980421E-006
  -4.8499999999999988E-002    -2.5078984435822349E-006
  -4.7399999999999998E-002    -2.9845639346604003E-006
  -4.6299999999999994E-002    -3.5290725008962909E-006
  -4.5199999999999990E-002    -4.1695661820995156E-006
  -4.4099999999999986E-002    -4.9321242840960622E-006
  -4.2999999999999997E-002    -5.8245709624316078E-006
  -4.1899999999999993E-002    -6.8469480538624339E-006
  -4.0799999999999989E-002    -8.0130503192776814E-006
  -3.9699999999999985E-002    -9.3523940449813381E-006
  -3.8599999999999995E-002    -1.0892681530094706E-005
  -3.7499999999999992E-002    -1.2651200449909084E-005
  -3.6399999999999988E-002    -1.4646837371401489E-005
  -3.5299999999999984E-002    -1.6909076293813996E-005
  -3.4199999999999994E-002    -1.9466653611743823E-005
  -3.3099999999999991E-002    -2.2335438188747503E-005
  -3.1999999999999987E-002    -2.5531509891152382E-005
  -3.0899999999999997E-002    -2.9093866032781079E-005
  -2.9799999999999993E-002    -3.3076914405683056E-005
  -2.8699999999999989E-002    -3.7513564166147262E-005
  -2.7599999999999986E-002    -4.2401210521347821E-005
  -2.6499999999999996E-002    -4.7735360567457974E-005
  -2.5399999999999992E-002    -5.3549170843325555E-005
  -2.4299999999999988E-002    -5.9899564803345129E-005
  -2.3199999999999985E-002    -6.6816784965340048E-005
  -2.2099999999999995E-002    -7.4284405854996294E-005
  -2.0999999999999991E-002    -8.2278209447395056E-005
  -1.9899999999999987E-002    -9.0801280748564750E-005
  -1.8799999999999983E-002    -9.9867960670962930E-005
  -1.7699999999999994E-002    -1.0946331167360768E-004
  -1.6599999999999990E-002    -1.1954076762776822E-004
  -1.5499999999999986E-002    -1.3005669461563230E-004
  -1.4399999999999996E-002    -1.4097703387960792E-004
  -1.3299999999999992E-002    -1.5224103117361665E-004
  -1.2199999999999989E-002    -1.6373831022065133E-004
  -1.1099999999999985E-002    -1.7535041843075305E-004
  -9.9999999999999950E-003    -1.8699247448239475E-004
  -8.8999999999999913E-003    -1.9858893938362598E-004
  -7.7999999999999875E-003    -2.1000386914238334E-004
  -6.6999999999999837E-003    -2.2102947696112096E-004
  -5.5999999999999939E-003    -2.3145966406445950E-004
  -4.4999999999999901E-003    -2.4114031111821532E-004
  -3.3999999999999864E-003    -2.4993234546855092E-004
  -2.2999999999999826E-003    -2.5763569283299148E-004
  -1.1999999999999927E-003    -2.6398952468298376E-004
  -9.9999999999988987E-005    -2.6875562616623938E-004
   1.0000000000000148E-003    -2.7174959541298449E-004
   2.1000000000000185E-003    -2.7278295601718128E-004
   3.2000000000000084E-003    -2.7161344769410789E-004
   4.3000000000000121E-003    -2.6799275656230748E-004
   5.4000000000000159E-003    -2.6174544473178685E-004
   6.5000000000000058E-003    -2.5275416555814445E-004
   7.6000000000000234E-003    -2.4087290512397885E-004
   8.7000000000000133E-003    -2.2590499429497868E-004
   9.8000000000000032E-003    -2.0770114497281611E-004
   1.0900000000000021E-002    -1.8624057702254504E-004
   1.2000000000000011E-002    -1.6156809579115361E-004
   1.3100000000000001E-002    -1.3369818043429404E-004
   1.4200000000000018E-002    -1.0261431452818215E-004
   1.5300000000000008E-002    -6.8391818786039948E-005
   1.6400000000000026E-002    -3.1236431823344901E-005
   1.7500000000000016E-002     8.5992705862736329E-006
   1.8600000000000005E-002     5.0891278078779578E-005
   1.9700000000000023E-002     9.5390816568396986E-005
   2.0800000000000013E-002     1.4173095405567437E-004
   2.1900000000000003E-002     1.8944039766211063E-004
   2.3000000000000020E-002     2.3806808167137206E-004
   2.4100000000000010E-002     2.8721801936626434E-004
   2.5200000000000000E-002     3.3643885399214923E-004
   2.6300000000000018E-002     3.8513843901455402E-004
   2.7400000000000008E-002     4.3267017463222146E-004
   2.8500000000000025E-002     4.7847777022980154E-004
   2.9600000000000015E-002     5.2210222929716110E-004
   3.0700000000000005E-002     5.6303769815713167E-004
   3.1800000000000023E-002     6.0067040612921119E-004
   3.2900000000000013E-002     6.3440401572734118E-004
   3.4000000000000002E-002     6.6379172494634986E-004
   3.5100000000000020E-002     6.8848696537315845E-004
   3.6200000000000010E-002     7.0810545003041625E-004
   3.7300000000000028E-002     7.2222948074340820E-004
   3.8400000000000017E-002     7.3055760003626347E-004
   3.9500000000000007E-002     7.3297752533107996E-004
   4.0600000000000025E-002     7.2944606654345989E-004
   4.1700000000000015E-002     7.1986648254096508E-004
   4.2800000000000005E-002     7.0416688686236739E-004
   4.3900000000000022E-002     6.8246433511376381E-004
   4.5000000000000012E-002     6.5507023828104138E-004
   4.6100000000000002E-002     6.2231393530964851E-004
   4.7200000000000020E-002     5.8445299509912729E-004
   4.8300000000000010E-002     5.4180022561922669E-004
   4.9400000000000027E-002     4.9486523494124413E-004
   5.0500000000000017E-002     4.4428513501770794E-004
   5.1600000000000007E-002     3.9063574513420463E-004
   5.2700000000000025E-002     3.3441075356677175E-004
   5.3800000000000014E-002     2.7618897729553282E-004
   5.4900000000000004E-002     2.1671195281669497E-004
   5.6000000000000022E-002     1.5673374582547694E-004
   5.7100000000000012E-002     9.6849471447058022E-005
   5.8200000000000002E-002     3.7552093999693170E-005
   5.9300000000000019E-002    -2.0562027202686295E-005
   6.0400000000000009E-002    -7.6770149462390691E-005
   6.1500000000000027E-002    -1.3044956722296774E-004
   6.2600000000000017E-002    -1.8120004096999764E-004
   6.3700000000000007E-002    -2.2871817054692656E-004
   6.4800000000000024E-002    -2.7259867056272924E-004
   6.5900000000000014E-002    -3.1238791416399181E-004
   6.7000000000000004E-002    -3.4780136775225401E-004
   6.8100000000000022E-002    -3.7877121940255165E-004
   6.9200000000000012E-002    -4.0524746873416007E-004
   7.0300000000000029E-002    -4.2707903776317835E-004
   7.1400000000000019E-002    -4.4415597221814096E-004
   7.2500000000000009E-002    -4.5659596798941493E-004
   7.3600000000000027E-002    -4.6467361971735954E-004
   7.4700000000000016E-002    -4.6857490087859333E-004
   7.5800000000000006E-002    -4.6835769899189472E-004
   7.6900000000000024E-002    -4.6417675912380219E-004
   7.8000000000000014E-002    -4.5642664190381765E-004
   7.9100000000000004E-002    -4.4557987712323666E-004
   8.0200000000000021E-002    -4.3194464524276555E-004
   8.1300000000000011E-002    -4.1570642497390509E-004
   8.2400000000000029E-002    -3.9716804167255759E-004
   8.3500000000000019E-002    -3.7681715912185609E-004
   8.4600000000000009E-002    -3.5510919406078756E-004
   8.5700000000000026E-002    -3.3230119151994586E-004
   8.6800000000000016E-002    -3.0858794343657792E-004
   8.7900000000000006E-002    -2.8432093677110970E-004
   8.9000000000000024E-002    -2.5995378382503986E-004
   9.0100000000000013E-002    -2.3578965920023620E-004
   9.1200000000000003E-002    -2.1191648556850851E-004
   9.2300000000000021E-002    -1.8843836733140051E-004
   9.3400000000000011E-002    -1.6565329860895872E-004
   9.4500000000000028E-002    -1.4389849093277007E-004
   9.5600000000000018E-002    -1.2329408491495997E-004
   9.6700000000000008E-002    -1.0377261787652969E-004
   9.7800000000000026E-002    -8.5346167907118797E-005
   9.8900000000000016E-002    -6.8208712036721408E-005
  0.10000000000000001         -5.2524072088999674E-005
  0.10110000000000002         -3.8234877138165757E-005
  0.10220000000000001         -2.5190764063154347E-005
  0.10330000000000003         -1.3388248589762952E-005
  0.10440000000000002         -2.9492607609427068E-006
  0.10550000000000001          6.1254013417055830E-006
  0.10660000000000003          1.4036448192200623E-005
  0.10770000000000002          2.0962648704880849E-005
  0.10880000000000001          2.6875244657276198E-005
  0.10990000000000003          3.1677769584348425E-005
  0.11100000000000002          3.5461111110635102E-005
  0.11210000000000001          3.8488622521981597E-005
  0.11320000000000002          4.0918381273513660E-005
  0.11430000000000001          4.2689065594458953E-005
  0.11540000000000003          4.3729025492211804E-005
  0.11650000000000002          4.4172433263156563E-005
  0.11760000000000001          4.4254542444832623E-005
  0.11870000000000003          4.4054886529920623E-005
  0.11980000000000002          4.3481784814503044E-005
  0.12090000000000001          4.2513045627856627E-005
  0.12200000000000003          4.1316023271065205E-005
  0.12310000000000001          4.0061615436570719E-005
  0.12420000000000003          3.8726651837350801E-005
  0.12530000000000002          3.7193196476437151E-005
  0.12640000000000001          3.5489480069372803E-005
  0.12750000000000003          3.3798769436543807E-005
  0.12860000000000002          3.2220184948528185E-005
  0.12970000000000001          3.0651568522443995E-005
  0.13080000000000003          2.8976459361729212E-005
  0.13190000000000002          2.7267395125818439E-005
  0.13300000000000001          2.5695799195091240E-005
  0.13410000000000000          2.4286808184115216E-005
  0.13520000000000004          2.2897187591297552E-005
  0.13630000000000003          2.1445051970658824E-005
  0.13740000000000002          2.0041570678586140E-005
  0.13850000000000001          1.8823475329554640E-005
  0.13960000000000000          1.7747877791407518E-005
  0.14070000000000005          1.6661510017002001E-005
  0.14180000000000004          1.5533893019892275E-005
  0.14290000000000003          1.4496832591248676E-005
  0.14400000000000002          1.3637655683851335E-005
  0.14510000000000001          1.2866515135101508E-005
  0.14620000000000000          1.2056656487402506E-005
  0.14730000000000004          1.1234989869990386E-005
  0.14840000000000003          1.0530111467232928E-005
  0.14950000000000002          9.9656926977331750E-006
  0.15060000000000001          9.4209044618764892E-006
  0.15170000000000000          8.8158503785962239E-006
  0.15280000000000005          8.2313554230495356E-006
  0.15390000000000004          7.7785152825526893E-006
  0.15500000000000003          7.4225540629413445E-006
  0.15610000000000002          7.0314376898750197E-006
  0.15720000000000001          6.5736903707147576E-006
  0.15830000000000000          6.1614159676537383E-006
  0.15940000000000004          5.8759897001436912E-006
  0.16050000000000003          5.6447406677762046E-006
  0.16160000000000002          5.3518688218900934E-006
  0.16270000000000001          5.0095377446268685E-006
  0.16380000000000000          4.7305411499110050E-006
  0.16490000000000005          4.5524793677031994E-006
  0.16600000000000004          4.3840145735885017E-006
  0.16710000000000003          4.1477446757198777E-006
  0.16820000000000002          3.8946782296989113E-006
  0.16930000000000001          3.7186673580436036E-006
  0.17040000000000000          3.6095984796702396E-006
  0.17150000000000004          3.4715249057626352E-006
  0.17260000000000003          3.2710679533920484E-006
  0.17370000000000002          3.0852011150273029E-006
  0.17480000000000001          2.9793377507303376E-006
  0.17590000000000000          2.9069683478155639E-006
  0.17700000000000005          2.7830101316794753E-006
  0.17810000000000004          2.6129926027351758E-006
  0.17920000000000003          2.4811008643155219E-006
  0.18030000000000002          2.4197229322453495E-006
  0.18140000000000001          2.3622390017408179E-006
  0.18250000000000000          2.2458848434325773E-006
  0.18360000000000004          2.1045184439572040E-006
  0.18470000000000003          2.0130048596911365E-006
  0.18580000000000002          1.9737633465410909E-006
  0.18690000000000001          1.9175222405465320E-006
  0.18800000000000000          1.8096656049237936E-006
  0.18910000000000005          1.6974764776023221E-006
  0.19020000000000004          1.6321669136232231E-006
  0.19130000000000003          1.5910505908323103E-006
  0.19240000000000002          1.5157467032622662E-006
  0.19350000000000001          1.4015045053383801E-006
  0.19460000000000005          1.2996451914659701E-006
  0.19570000000000004          1.2350666338534211E-006
  0.19680000000000003          1.1677961992972996E-006
  0.19790000000000002          1.0539605455051060E-006
  0.19900000000000001          9.0917399120371556E-007
  0.20010000000000000          7.7977688306418713E-007
  0.20120000000000005          6.7038524775853148E-007
  0.20230000000000004          5.3692912160840933E-007
  0.20340000000000003          3.4985154684363806E-007
  0.20450000000000002          1.2943628746597824E-007
  0.20560000000000000         -9.5242221220814827E-008
  0.20670000000000005         -3.3567295076863957E-007
  0.20780000000000004         -6.2858492810846656E-007
  0.20890000000000003         -9.8559621619642712E-007
