 -0.12000000000000000          0.0000000000000000
 -0.11889999999999999          0.0000000000000000
 -0.11780000000000000          0.0000000000000000
 -0.11670000000000000          0.0000000000000000
 -0.11559999999999999          0.0000000000000000
 -0.11449999999999999          0.0000000000000000
 -0.11340000000000000          0.0000000000000000
 -0.11230000000000000          0.0000000000000000
 -0.11119999999999999          0.0000000000000000
 -0.11009999999999999          0.0000000000000000
 -0.10900000000000000          0.0000000000000000
 -0.10790000000000000          0.0000000000000000
 -0.10679999999999999          0.0000000000000000
 -0.10569999999999999          0.0000000000000000
 -0.10460000000000000          0.0000000000000000
 -0.10349999999999999          0.0000000000000000
 -0.10239999999999999          0.0000000000000000
 -0.10130000000000000          1.9314135970145955E-038
 -0.10020000000000000         -7.6049801695045860E-038
  -9.9099999999999994E-002    -2.3071022758194647E-037
  -9.7999999999999990E-002     2.3189492341900490E-036
  -9.6899999999999986E-002    -1.1955139733068947E-037
  -9.5799999999999996E-002    -3.4851019778980717E-035
  -9.4699999999999993E-002     3.1062693637952637E-035
  -9.3599999999999989E-002     3.9044526998917109E-034
  -9.2499999999999999E-002    -4.4235918720106234E-034
  -9.1399999999999995E-002    -3.7066378473059478E-033
  -9.0299999999999991E-002     3.6973999310764231E-033
  -8.9200000000000002E-002     3.1138439807731362E-032
  -8.8099999999999984E-002    -1.8877015456673504E-032
  -8.6999999999999994E-002    -2.3176225295953545E-031
  -8.5899999999999990E-002     1.5813453834503966E-032
  -8.4799999999999986E-002     1.4998312037678372E-030
  -8.3699999999999997E-002     8.3818201507416915E-031
  -8.2599999999999993E-002    -8.1725558252218659E-030
  -8.1499999999999989E-002    -1.0656450243989620E-029
  -8.0399999999999999E-002     3.5342764483574470E-029
  -7.9299999999999995E-002     8.3639947663267262E-029
  -7.8199999999999992E-002    -1.0256867326924770E-028
  -7.7100000000000002E-002    -4.8925014674851156E-028
  -7.5999999999999984E-002     1.8458425550623231E-029
  -7.4899999999999994E-002     2.1878812613201825E-027
  -7.3799999999999991E-002     2.0646993598561582E-027
  -7.2699999999999987E-002    -7.0269942174099340E-027
  -7.1599999999999997E-002    -1.5547784381261318E-026
  -7.0499999999999993E-002     1.1227678537711822E-026
  -6.9399999999999989E-002     7.1161268715337575E-026
  -6.8300000000000000E-002     3.5715760684054907E-026
  -6.7199999999999996E-002    -2.1690041203033150E-025
  -6.6099999999999992E-002    -3.6787561960372990E-025
  -6.5000000000000002E-002     3.2414891171590948E-025
  -6.3899999999999985E-002     1.5971676261861742E-024
  -6.2799999999999995E-002     8.0029968416955593E-025
  -6.1699999999999991E-002    -4.1233266477836524E-024
  -6.0599999999999994E-002    -7.3580709055954944E-024
  -5.9499999999999990E-002     3.6587424004413893E-024
  -5.8399999999999994E-002     2.6110455037090525E-023
  -5.7299999999999990E-002     2.1189876765067478E-023
  -5.6199999999999986E-002    -4.7535918800615016E-023
  -5.5099999999999996E-002    -1.1690394811734328E-022
  -5.3999999999999992E-002    -1.7467259508269438E-023
  -5.2899999999999989E-002     2.8513136343320836E-022
  -5.1799999999999985E-002     4.0361440913441237E-022
  -5.0699999999999995E-002    -2.0385945461113124E-022
  -4.9599999999999991E-002    -1.2484835298583532E-021
  -4.8499999999999988E-002    -1.1123667797310436E-021
  -4.7399999999999998E-002     1.4838041962519895E-021
  -4.6299999999999994E-002     4.4647247238166562E-021
  -4.5199999999999990E-002     2.5258491128576967E-021
  -4.4099999999999986E-002    -6.3875201940835906E-021
  -4.2999999999999997E-002    -1.3827063877731180E-020
  -4.1899999999999993E-002    -5.2616110581252797E-021
  -4.0799999999999989E-002     2.0818925943196421E-020
  -3.9699999999999985E-002     3.8786747723030087E-020
  -3.8599999999999995E-002     1.3625483839861129E-020
  -3.7499999999999992E-002    -5.3746580519690087E-020
  -3.6399999999999988E-002    -1.0212778970537421E-019
  -3.5299999999999984E-002    -5.2514326976230427E-020
  -3.4199999999999994E-002     1.0379753778234345E-019
  -3.3099999999999991E-002     2.5564663065804877E-019
  -3.1999999999999987E-002     2.2517911300527725E-019
  -3.0899999999999997E-002    -9.4255233934720012E-020
  -2.9799999999999993E-002    -5.8873241099845175E-019
  -2.8699999999999989E-002    -8.5428721782881382E-019
  -2.7599999999999986E-002    -3.4697727060185952E-019
  -2.6499999999999996E-002     1.1131522531539416E-018
  -2.5399999999999992E-002     2.6784958162546434E-018
  -2.4299999999999988E-002     2.4453154627323232E-018
  -2.3199999999999985E-002    -1.0944751353079536E-018
  -2.2099999999999995E-002    -6.6298935550528382E-018
  -2.0999999999999991E-002    -9.1416767023165536E-018
  -1.9899999999999987E-002    -3.0897431334461008E-018
  -1.8799999999999983E-002     1.1339916624801738E-017
  -1.7699999999999994E-002     2.4515176629652458E-017
  -1.6599999999999990E-002     2.1833023641114564E-017
  -1.5499999999999986E-002    -4.4463737251583416E-018
  -1.4399999999999996E-002    -4.4554796602135703E-017
  -1.3299999999999992E-002    -7.1257248875253955E-017
  -1.2199999999999989E-002    -5.3101107577025377E-017
  -1.1099999999999985E-002     2.4462847529741128E-017
  -9.9999999999999950E-003     1.3876204914994275E-016
  -8.8999999999999913E-003     2.2124483376925584E-016
  -7.7999999999999875E-003     1.7593284596055644E-016
  -6.6999999999999837E-003    -6.2254043034659390E-017
  -5.5999999999999939E-003    -4.4271389304151765E-016
  -4.4999999999999901E-003    -7.4575941167953044E-016
  -3.3999999999999864E-003    -6.4074299632952141E-016
  -2.2999999999999826E-003     1.0890734722000537E-016
  -1.1999999999999927E-003     1.3684626179357850E-015
  -9.9999999999988987E-005     2.4684835542277371E-015
   1.0000000000000148E-003     2.3659118877217408E-015
   2.1000000000000185E-003     2.2081151024228626E-016
   3.2000000000000084E-003    -3.7787452678082582E-015
   4.3000000000000121E-003    -7.8174593466889646E-015
   5.4000000000000159E-003    -8.7108919117609082E-015
   6.5000000000000058E-003    -3.4190307039000910E-015
   7.6000000000000234E-003     8.5064579688422411E-015
   8.7000000000000133E-003     2.2798511803466884E-014
   9.8000000000000032E-003     3.0460910757732634E-014
   1.0900000000000021E-002     2.1164009265809205E-014
   1.2000000000000011E-002    -1.0285383859171514E-014
   1.3100000000000001E-002    -5.6970595775640565E-014
   1.4200000000000018E-002    -9.6729644693399619E-014
   1.5300000000000008E-002    -9.7258687919727499E-014
   1.6400000000000026E-002    -3.1205229101671089E-014
   1.7500000000000016E-002     1.0240784186366786E-013
   1.8600000000000005E-002     2.6050258413075345E-013
   1.9700000000000023E-002     3.5581102951140475E-013
   2.0800000000000013E-002     2.8496473301713177E-013
   2.1900000000000003E-002    -1.6266381755556010E-014
   2.3000000000000020E-002    -5.0909905631446595E-013
   2.4100000000000010E-002    -1.0130902193539182E-012
   2.5200000000000000E-002    -1.2298695048484909E-012
   2.6300000000000018E-002    -8.4987420746751585E-013
   2.7400000000000008E-002     2.7420345724907258E-013
   2.8500000000000025E-002     1.9502164640139430E-012
   2.9600000000000015E-002     3.5632477871083701E-012
   3.0700000000000005E-002     4.1808501105577989E-012
   3.1800000000000023E-002     2.8850713051226107E-012
   3.2900000000000013E-002    -7.3310303140561306E-013
   3.4000000000000002E-002    -6.0951031548295287E-012
   3.5100000000000020E-002    -1.1422343106082256E-011
   3.6200000000000010E-002    -1.4019356855965448E-011
   3.7300000000000028E-002    -1.1140578043411509E-011
   3.8400000000000017E-002    -1.2862144075503901E-012
   3.9500000000000007E-002     1.4497681700975651E-011
   4.0600000000000025E-002     3.1919758503029527E-011
   4.1700000000000015E-002     4.3917328107490050E-011
   4.2800000000000005E-002     4.2567969982254539E-011
   4.3900000000000022E-002     2.2160828727635362E-011
   4.5000000000000012E-002    -1.7460267606739244E-011
   4.6100000000000002E-002    -6.8601478664387372E-011
   4.7200000000000020E-002    -1.1579952968743257E-010
   4.8300000000000010E-002    -1.3905947227055293E-010
   4.9400000000000027E-002    -1.1998919913214223E-010
   5.0500000000000017E-002    -4.9327299189716456E-011
   5.1600000000000007E-002     6.6642351359558205E-011
   5.2700000000000025E-002     2.0359355867860529E-010
   5.3800000000000014E-002     3.2269104055515641E-010
   5.4900000000000004E-002     3.8061148677215328E-010
   5.6000000000000022E-002     3.4424380013220457E-010
   5.7100000000000012E-002     2.0606082118401758E-010
   5.8200000000000002E-002    -5.1665963174407636E-012
   5.9300000000000019E-002    -2.2340661265385364E-010
   6.0400000000000009E-002    -3.5714586843482721E-010
   6.1500000000000027E-002    -3.1334757011336478E-010
   6.2600000000000017E-002    -2.8926435899356839E-011
   6.3700000000000007E-002     4.9823040138008423E-010
   6.4800000000000024E-002     1.1879405237280594E-009
   6.5900000000000014E-002     1.8741097562724462E-009
   6.7000000000000004E-002     2.3228439172129356E-009
   6.8100000000000022E-002     2.2705584079574237E-009
   6.9200000000000012E-002     1.4743174459042052E-009
   7.0300000000000029E-002    -2.3803367610319981E-010
   7.1400000000000019E-002    -2.9322502204109924E-009
   7.2500000000000009E-002    -6.5584697672704806E-009
   7.3600000000000027E-002    -1.0974791742057732E-008
   7.4700000000000016E-002    -1.6001084901517970E-008
   7.5800000000000006E-002    -2.1492503776698868E-008
   7.6900000000000024E-002    -2.7415776315820040E-008
   7.8000000000000014E-002    -3.3909710595025899E-008
   7.9100000000000004E-002    -4.1316727816820276E-008
   8.0200000000000021E-002    -5.0177117572047791E-008
   8.1300000000000011E-002    -6.1191904876523040E-008
   8.2400000000000029E-002    -7.5165992541315063E-008
   8.3500000000000019E-002    -9.2952156194314739E-008
   8.4600000000000009E-002    -1.1541650479784948E-007
   8.5700000000000026E-002    -1.4344099952268152E-007
   8.6800000000000016E-002    -1.7796442364215181E-007
   8.7900000000000006E-002    -2.2006004485319863E-007
   8.9000000000000024E-002    -2.7102888111585344E-007
   9.0100000000000013E-002    -3.3248625186388381E-007
   9.1200000000000003E-002    -4.0642663634571363E-007
   9.2300000000000021E-002    -4.9525635859026806E-007
   9.3400000000000011E-002    -6.0180178707014420E-007
   9.4500000000000028E-002    -7.2929827865664265E-007
   9.5600000000000018E-002    -8.8139921672336641E-007
   9.6700000000000008E-002    -1.0621897672535852E-006
   9.7800000000000026E-002    -1.2762520782416686E-006
   9.8900000000000016E-002    -1.5287417909348733E-006
  0.10000000000000001         -1.8254866063216468E-006
  0.10110000000000002         -2.1730959360866109E-006
  0.10220000000000001         -2.5790332074393518E-006
  0.10330000000000003         -3.0516760034515755E-006
  0.10440000000000002         -3.6002850265504094E-006
  0.10550000000000001         -4.2350029616500251E-006
  0.10660000000000003         -4.9668205974739976E-006
  0.10770000000000002         -5.8075938795809634E-006
  0.10880000000000001         -6.7699934334086720E-006
  0.10990000000000003         -7.8675211625522934E-006
  0.11100000000000002         -9.1144984253332950E-006
  0.11210000000000001         -1.0525986908760387E-005
  0.11320000000000002         -1.2117755431972910E-005
  0.11430000000000001         -1.3906162166676950E-005
  0.11540000000000003         -1.5907959095784463E-005
  0.11650000000000002         -1.8139922758564353E-005
  0.11760000000000001         -2.0618648704839870E-005
  0.11870000000000003         -2.3360271370620467E-005
  0.11980000000000002         -2.6380039344076067E-005
  0.12090000000000001         -2.9691898816963658E-005
  0.12200000000000003         -3.3308013371424749E-005
  0.12310000000000001         -3.7238271033857018E-005
  0.12420000000000003         -4.1489809518679976E-005
  0.12530000000000002         -4.6066415961831808E-005
  0.12640000000000001         -5.0967748393304646E-005
  0.12750000000000003         -5.6188946473412216E-005
  0.12860000000000002         -6.1719729274045676E-005
  0.12970000000000001         -6.7544184275902808E-005
  0.13080000000000003         -7.3639726906549186E-005
  0.13190000000000002         -7.9976394772529602E-005
  0.13300000000000001         -8.6516418377868831E-005
  0.13410000000000000         -9.3213850050233305E-005
  0.13520000000000004         -1.0001423652283847E-004
  0.13630000000000003         -1.0685453889891505E-004
  0.13740000000000002         -1.1366084800101817E-004
  0.13850000000000001         -1.2035098916385323E-004
  0.13960000000000000         -1.2683335808105767E-004
  0.14070000000000005         -1.3300799764692783E-004
  0.14180000000000004         -1.3876674347557127E-004
  0.14290000000000003         -1.4399272913578898E-004
  0.14400000000000002         -1.4856328198220581E-004
  0.14510000000000001         -1.5235075261443853E-004
  0.14620000000000000         -1.5522362082265317E-004
  0.14730000000000004         -1.5704891120549291E-004
  0.14840000000000003         -1.5769254241604358E-004
  0.14950000000000002         -1.5702292148489505E-004
  0.15060000000000001         -1.5491186059080064E-004
  0.15170000000000000         -1.5123907360248268E-004
  0.15280000000000005         -1.4589335478376597E-004
  0.15390000000000004         -1.3877527089789510E-004
  0.15500000000000003         -1.2980225437786430E-004
  0.15610000000000002         -1.1890903988387436E-004
  0.15720000000000001         -1.0604971612337977E-004
  0.15830000000000000         -9.1201342002023011E-005
  0.15940000000000004         -7.4366282206028700E-005
  0.16050000000000003         -5.5574637372046709E-005
  0.16160000000000002         -3.4886226785602048E-005
  0.16270000000000001         -1.2391016753099393E-005
  0.16380000000000000          1.1790892131102737E-005
  0.16490000000000005          3.7510268157348037E-005
  0.16600000000000004          6.4586020016577095E-005
  0.16710000000000003          9.2802853032480925E-005
  0.16820000000000002          1.2191794667160138E-004
  0.16930000000000001          1.5166345110628754E-004
  0.17040000000000000          1.8174908473156393E-004
  0.17150000000000004          2.1186281810514629E-004
  0.17260000000000003          2.4167515221051872E-004
  0.17370000000000002          2.7084397152066231E-004
  0.17480000000000001          2.9901973903179169E-004
  0.17590000000000000          3.2585120061412454E-004
  0.17700000000000005          3.5099106025882065E-004
  0.17810000000000004          3.7409955984912813E-004
  0.17920000000000003          3.9485117304138839E-004
  0.18030000000000002          4.1293923277407885E-004
  0.18140000000000001          4.2808282887563109E-004
  0.18250000000000000          4.4003283255733550E-004
  0.18360000000000004          4.4857687316834927E-004
  0.18470000000000003          4.5354093890637159E-004
  0.18580000000000002          4.5479400432668626E-004
  0.18690000000000001          4.5225120265968144E-004
  0.18800000000000000          4.4587618322111666E-004
  0.18910000000000005          4.3568460387177765E-004
  0.19020000000000004          4.2174072586931288E-004
  0.19130000000000003          4.0416009142063558E-004
  0.19240000000000002          3.8310507079586387E-004
  0.19350000000000001          3.5878593917004764E-004
  0.19460000000000005          3.3145534689538181E-004
  0.19570000000000004          3.0140639864839613E-004
  0.19680000000000003          2.6896776398643851E-004
  0.19790000000000002          2.3449820582754910E-004
  0.19900000000000001          1.9837946456391364E-004
  0.20010000000000000          1.6101056826300919E-004
  0.20120000000000005          1.2280614464543760E-004
  0.20230000000000004          8.4184182924218476E-005
  0.20340000000000003          4.5561027945950627E-005
  0.20450000000000002          7.3477417572576087E-006
  0.20560000000000000         -3.0061823053983971E-005
  0.20670000000000005         -6.6290893300902098E-005
  0.20780000000000004         -1.0098701022798195E-004
  0.20890000000000003         -1.3382917677517980E-004
