 -0.12000000000000000          0.0000000000000000
 -0.11889999999999999          0.0000000000000000
 -0.11780000000000000          0.0000000000000000
 -0.11670000000000000          0.0000000000000000
 -0.11559999999999999          0.0000000000000000
 -0.11449999999999999          0.0000000000000000
 -0.11340000000000000          0.0000000000000000
 -0.11230000000000000          0.0000000000000000
 -0.11119999999999999          0.0000000000000000
 -0.11009999999999999          0.0000000000000000
 -0.10900000000000000          0.0000000000000000
 -0.10790000000000000          0.0000000000000000
 -0.10679999999999999          7.3718634878099072E-034
 -0.10569999999999999         -9.4781092146609932E-034
 -0.10460000000000000         -1.0109983896989029E-032
 -0.10349999999999999         -1.3479978529318705E-032
 -0.10239999999999999          2.3252963918163926E-031
 -0.10130000000000000          1.1761280833367028E-030
 -0.10020000000000000         -4.8089827480840509E-030
  -9.9099999999999994E-002    -2.3573114694666875E-029
  -9.7999999999999990E-002     1.7837382356665724E-029
  -9.6899999999999986E-002     9.8932932812888861E-029
  -9.5799999999999996E-002     7.1325936784844153E-029
  -9.4699999999999993E-002    -3.9102047327334678E-029
  -9.3599999999999989E-002    -7.5688391998237277E-028
  -9.2499999999999999E-002    -9.7773984005848183E-028
  -9.1399999999999995E-002     2.5559557478277380E-027
  -9.0299999999999991E-002     1.7132448783966869E-026
  -8.9200000000000002E-002     2.1142427521175532E-027
  -8.8099999999999984E-002    -2.4388473049619377E-026
  -8.6999999999999994E-002     1.0948483407021804E-026
  -8.5899999999999990E-002     1.1695935277694535E-025
  -8.4799999999999986E-002     1.0282457389207437E-025
  -8.3699999999999997E-002    -9.5062373636950096E-026
  -8.2599999999999993E-002    -9.9968841948391908E-025
  -8.1499999999999989E-002    -2.0173928443212756E-024
  -8.0399999999999999E-002    -1.3389233592398555E-024
  -7.9299999999999995E-002     4.7032873245408250E-025
  -7.8199999999999992E-002     1.3749547783010515E-024
  -7.7100000000000002E-002     1.4039720406234749E-023
  -7.5999999999999984E-002     3.0322989625910643E-023
  -7.4899999999999994E-002     1.3749561588076356E-024
  -7.3799999999999991E-002    -2.3954573913768401E-023
  -7.2699999999999987E-002    -1.6717565546992649E-023
  -7.1599999999999997E-002    -8.9087652370193789E-023
  -7.0499999999999993E-002     1.2230461609223116E-023
  -6.9399999999999989E-002     1.5697062263385091E-022
  -6.8300000000000000E-002     2.4381471672427269E-022
  -6.7199999999999996E-002     2.4381471672427269E-022
  -6.6099999999999992E-002     1.2230448987448633E-023
  -6.5000000000000002E-002    -6.8252235422302355E-022
  -6.3899999999999985E-002    -2.1878200187817330E-021
  -6.2799999999999995E-002    -3.1141570897290293E-021
  -6.1699999999999991E-002    -2.1878200187817330E-021
  -6.0599999999999994E-002     2.4438653359547482E-021
  -5.9499999999999990E-002     7.0755510945880128E-021
  -5.8399999999999994E-002     3.3702028107988279E-021
  -5.7299999999999990E-002     2.4438655379031399E-021
  -5.6199999999999986E-002    -1.2614827458860451E-021
  -5.5099999999999996E-002    -8.6721793134644150E-021
  -5.3999999999999992E-002     6.1492138216923248E-021
  -5.2899999999999989E-002     2.8381303524427435E-020
  -5.1799999999999985E-002     2.0970608572436199E-020
  -5.0699999999999995E-002    -1.2614811302989112E-021
  -4.9599999999999991E-002    -8.6721776978772811E-021
  -4.8499999999999988E-002    -8.6721776978772811E-021
  -4.7399999999999998E-002    -3.8314963968190761E-020
  -4.6299999999999994E-002    -5.3136353872173233E-020
  -4.5199999999999990E-002     6.1492186684537265E-021
  -4.4099999999999986E-002     8.0256184344237426E-020
  -4.2999999999999997E-002     2.8775568823643178E-019
  -4.1899999999999993E-002     1.9882733588783988E-019
  -4.0799999999999989E-002    -3.3474282990249982E-019
  -3.9699999999999985E-002    -7.7938461749485348E-019
  -3.8599999999999995E-002    -1.1943836640533334E-018
  -3.7499999999999992E-002     5.8418348631608122E-019
  -3.6399999999999988E-002     4.0227468229194156E-018
  -3.5299999999999984E-002     4.2598891647807117E-018
  -3.4199999999999994E-002    -9.5724132219203729E-019
  -3.3099999999999991E-002    -8.7829367424584311E-018
  -3.1999999999999987E-002    -1.1154359333890780E-017
  -3.0899999999999997E-002    -1.1943826300775677E-018
  -2.9799999999999993E-002     1.2085586032613177E-017
  -2.8699999999999989E-002     1.6354148186116508E-017
  -2.7599999999999986E-002     6.1570312083935309E-018
  -2.6499999999999996E-002    -1.4948632667768455E-017
  -2.5399999999999992E-002    -3.1074306951252916E-017
  -2.4299999999999988E-002    -2.4434323033497850E-017
  -2.3199999999999985E-002     2.1096996677703655E-017
  -2.2099999999999995E-002     8.0856851937499252E-017
  -2.0999999999999991E-002     7.8959709893886433E-017
  -1.9899999999999987E-002    -3.3920023325394595E-017
  -1.8799999999999983E-002    -1.9517678601257391E-016
  -1.7699999999999994E-002    -2.5019381263311706E-016
  -1.6599999999999990E-002    -6.0479992083639362E-017
  -1.5499999999999986E-002     3.3602191417294160E-016
  -1.4399999999999996E-002     6.2438694893671848E-016
  -1.3299999999999992E-002     4.1190746356855636E-016
  -1.2199999999999989E-002    -3.1849079385428054E-016
  -1.1099999999999985E-002    -1.0944203544447067E-015
  -9.9999999999999950E-003    -1.2461914002963770E-015
  -8.8999999999999913E-003    -3.6591918612592341E-016
  -7.7999999999999875E-003     1.2276770600144109E-015
  -6.6999999999999837E-003     2.4570227749349128E-015
  -5.5999999999999939E-003     2.0168866678496860E-015
  -4.4999999999999901E-003    -3.5074183801878404E-016
  -3.3999999999999864E-003    -3.1129750419257732E-015
  -2.2999999999999826E-003    -3.9856584761635387E-015
  -1.1999999999999927E-003    -1.6863269779860118E-015
  -9.9999999999988987E-005     2.5480858047865649E-015
   1.0000000000000148E-003     5.6442154789738182E-015
   2.1000000000000185E-003     4.7032351429242281E-015
   3.2000000000000084E-003    -9.7300262837877582E-016
   4.3000000000000121E-003    -7.6509301281599273E-015
   5.4000000000000159E-003    -9.8971420726327690E-015
   6.5000000000000058E-003    -4.3726754530605538E-015
   7.6000000000000234E-003     7.1619253022158109E-015
   8.7000000000000133E-003     1.6753855992964438E-014
   9.8000000000000032E-003     1.6268187629799556E-014
   1.0900000000000021E-002     2.9123339007866740E-015
   1.2000000000000011E-002    -1.7971365904754719E-014
   1.3100000000000001E-002    -3.3330597396658002E-014
   1.4200000000000018E-002    -2.9688091449184967E-014
   1.5300000000000008E-002    -1.8229250167743974E-015
   1.6400000000000026E-002     4.1644307089121896E-014
   1.7500000000000016E-002     7.3941192253214327E-014
   1.8600000000000005E-002     6.3863600822597344E-014
   1.9700000000000023E-002     6.0542188124769469E-016
   2.0800000000000013E-002    -9.3371220043908520E-014
   2.1900000000000003E-002    -1.5990765027222575E-013
   2.3000000000000020E-002    -1.2712510352123202E-013
   2.4100000000000010E-002     2.8531308717515136E-014
   2.5200000000000000E-002     2.2911194968132376E-013
   2.6300000000000018E-002     3.1604642405751171E-013
   2.7400000000000008E-002     1.6306120136869856E-013
   2.8500000000000025E-002    -1.8370533230466918E-013
   2.9600000000000015E-002    -4.7947680981846874E-013
   3.0700000000000005E-002    -4.4159478591182522E-013
   3.1800000000000023E-002     1.4932580996371292E-014
   3.2900000000000013E-002     6.0404719420814601E-013
   3.4000000000000002E-002     8.0098536310579949E-013
   3.5100000000000020E-002     2.7476474871376833E-013
   3.6200000000000010E-002    -7.1988210748399895E-013
   3.7300000000000028E-002    -1.3862178549137183E-012
   3.8400000000000017E-002    -9.7000098925326128E-013
   3.9500000000000007E-002     5.2439763685921403E-013
   4.0600000000000025E-002     2.0921320231792606E-012
   4.1700000000000015E-002     2.3815897171042266E-012
   4.2800000000000005E-002     8.1191271154162914E-013
   4.3900000000000022E-002    -1.8097199086519744E-012
   4.5000000000000012E-002    -3.7183927811823558E-012
   4.6100000000000002E-002    -3.4289348704169553E-012
   4.7200000000000020E-002    -9.1900554007040558E-013
   4.8300000000000010E-002     2.3874183879835087E-012
   4.9400000000000027E-002     4.7361060385997522E-012
   5.0500000000000017E-002     5.0411051201459944E-012
   5.1600000000000007E-002     3.0945502237089695E-012
   5.2700000000000025E-002    -7.6747711918317973E-013
   5.3800000000000014E-002    -5.5309029925454389E-012
   5.4900000000000004E-002    -8.9364019656423821E-012
   5.6000000000000022E-002    -7.7863410163914182E-012
   5.7100000000000012E-002    -4.2556583257358227E-013
   5.8200000000000002E-002     1.0053194388071063E-011
   5.9300000000000019E-002     1.5360568719757772E-011
   6.0400000000000009E-002     7.5549228331639462E-012
   6.1500000000000027E-002    -1.1187954208902173E-011
   6.2600000000000017E-002    -2.4965368314311398E-011
   6.3700000000000007E-002    -1.4552659424738046E-011
   6.4800000000000024E-002     2.2163796839502758E-011
   6.5900000000000014E-002     5.6821023580733154E-011
   6.7000000000000004E-002     4.5471945653297041E-011
   6.8100000000000022E-002    -2.8178542832435483E-011
   6.9200000000000012E-002    -1.1816689293731031E-010
   7.0300000000000029E-002    -1.3754697381074266E-010
   7.1400000000000019E-002    -3.1927911703366618E-011
   7.2500000000000009E-002     1.5553193455364323E-010
   7.3600000000000027E-002     2.8440089172576677E-010
   7.4700000000000016E-002     2.0859017291208204E-010
   7.5800000000000006E-002    -7.5979840474804661E-011
   7.6900000000000024E-002    -3.8090902654275283E-010
   7.8000000000000014E-002    -4.4767470286366517E-010
   7.9100000000000004E-002    -1.6202457431280237E-010
   8.0200000000000021E-002     3.1217328722021875E-010
   8.1300000000000011E-002     6.0982136007581289E-010
   8.2400000000000029E-002     4.4247200348124238E-010
   8.3500000000000019E-002    -1.1925481435692831E-010
   8.4600000000000009E-002    -6.2354077456916457E-010
   8.5700000000000026E-002    -5.8126825575044450E-010
   8.6800000000000016E-002     2.2979701475023262E-011
   8.7900000000000006E-002     6.2971428071989521E-010
   8.9000000000000024E-002     6.4861249704506463E-010
   9.0100000000000013E-002     3.2926106285913193E-011
   9.1200000000000003E-002    -6.5735877852191038E-010
   9.2300000000000021E-002    -8.9408475067997983E-010
   9.3400000000000011E-002    -5.3601190153074185E-010
   9.4500000000000028E-002     9.4594221344834750E-011
   9.5600000000000018E-002     8.5450446718482453E-010
   9.6700000000000008E-002     1.1290269830155353E-009
   9.7800000000000026E-002     6.9536087998756102E-010
   9.8900000000000016E-002    -9.2399449203028894E-011
  0.10000000000000001         -1.0472605005418245E-009
  0.10110000000000002         -1.6997487861658556E-009
  0.10220000000000001         -1.7952348496663717E-009
  0.10330000000000003         -1.3973759926955154E-009
  0.10440000000000002          1.6223022925032637E-010
  0.10550000000000001          4.2363037522363811E-009
  0.10660000000000003          8.7878078147696215E-009
  0.10770000000000002          6.3369980374261559E-009
  0.10880000000000001         -5.3759627860472392E-009
  0.10990000000000003         -1.5211030657269475E-008
  0.11100000000000002         -1.2983020880596996E-008
  0.11210000000000001          1.2762368939434054E-009
  0.11320000000000002          1.5726467239574049E-008
  0.11430000000000001          1.6808643366061915E-008
  0.11540000000000003          2.1674413375194490E-009
  0.11650000000000002         -2.1895054658216395E-008
  0.11760000000000001         -3.1443665449160108E-008
  0.11870000000000003          6.3966432151119079E-010
  0.11980000000000002          5.3602619232151483E-008
  0.12090000000000001          7.1935950529677939E-008
  0.12200000000000003          2.6357255933362467E-008
  0.12310000000000001         -6.3017736806614266E-008
  0.12420000000000003         -1.2412883165779931E-007
  0.12530000000000002         -1.1190660131887853E-007
  0.12640000000000001         -4.3156607176797479E-008
  0.12750000000000003          4.1380417314940132E-008
  0.12860000000000002          1.0351003965070049E-007
  0.12970000000000001          1.2286187711652019E-007
  0.13080000000000003          6.4297061896922969E-008
  0.13190000000000002         -7.1675145818517194E-008
  0.13300000000000001         -1.2718440700609790E-007
  0.13410000000000000         -4.9622030928730965E-009
  0.13520000000000004          1.5596370417370053E-007
  0.13630000000000003          1.7633406912409555E-007
  0.13740000000000002          4.0871121598229365E-008
  0.13850000000000001         -1.3023996814354177E-007
  0.13960000000000000         -1.6385106960115081E-007
  0.14070000000000005         -8.8812868170862203E-010
  0.14180000000000004          1.7735257529238879E-007
  0.14290000000000003          1.6513035916432273E-007
  0.14400000000000002         -1.7301775301348243E-007
  0.14510000000000001         -5.7227697425332735E-007
  0.14620000000000000         -5.2135101213934831E-007
  0.14730000000000004          1.0315602594346274E-008
  0.14840000000000003          5.8679700032371329E-007
  0.14950000000000002          7.2124140615414944E-007
  0.15060000000000001          4.3198218691031798E-007
  0.15170000000000000          6.9389656687235401E-008
  0.15280000000000005         -1.9746215684790513E-007
  0.15390000000000004         -2.3616584599039925E-007
  0.15500000000000003         -9.3573277126779431E-008
  0.15610000000000002         -4.2647364750791894E-008
  0.15720000000000001         -1.2616587241609523E-007
  0.15830000000000000         -3.7672140251743258E-007
  0.15940000000000004         -4.8468433533344069E-007
  0.16050000000000003         -2.0968435876511649E-007
  0.16160000000000002          3.0976002562965732E-007
  0.16270000000000001          7.4975991992687341E-007
  0.16380000000000000          5.7457475577393780E-007
  0.16490000000000005          2.6766997507365886E-009
  0.16600000000000004         -4.1020516050593869E-007
  0.16710000000000003         -1.5939502873152378E-007
  0.16820000000000002          5.7304703204863472E-007
  0.16930000000000001          9.5091735374808195E-007
  0.17040000000000000          2.8378775596138439E-007
  0.17150000000000004         -1.1981564966845326E-006
  0.17260000000000003         -2.0924155705870362E-006
  0.17370000000000002         -1.3468600172927836E-006
  0.17480000000000001          5.7406572295803926E-007
  0.17590000000000000          1.9266583421995165E-006
  0.17700000000000005          1.4377695833900361E-006
  0.17810000000000004         -3.0185981358954450E-007
  0.17920000000000003         -1.6463040992675815E-006
  0.18030000000000002         -1.4059337445360143E-006
  0.18140000000000001          1.5036232525744708E-007
  0.18250000000000000          1.3318435776454862E-006
  0.18360000000000004          8.3073251744281151E-007
  0.18470000000000003         -8.1519323202883243E-007
  0.18580000000000002         -1.6463042129544192E-006
  0.18690000000000001         -3.9148949326772708E-007
  0.18800000000000000          2.0611028048733715E-006
  0.18910000000000005          3.4788802167895483E-006
  0.19020000000000004          2.2892509150551632E-006
  0.19130000000000003         -7.4185982157359831E-007
  0.19240000000000002         -3.0885262276569847E-006
  0.19350000000000001         -2.8766742161678849E-006
  0.19460000000000005         -6.1963737607584335E-007
  0.19570000000000004          1.6211031379498309E-006
  0.19680000000000003          1.9429548956395593E-006
  0.19790000000000002          1.9517733562679496E-007
  0.19900000000000001         -1.6096372519314173E-006
  0.20010000000000000         -1.3651927019964205E-006
  0.20120000000000005          7.8591807550765225E-007
  0.20230000000000004          2.2811032067693304E-006
  0.20340000000000003          1.2931403716720524E-006
  0.20450000000000002         -1.2653778185267583E-006
  0.20560000000000000         -2.8196368475619238E-006
  0.20670000000000005         -1.6585260027568438E-006
  0.20780000000000004          1.0278162108079414E-006
  0.20890000000000003          2.4292976377182640E-006
