 -0.12000000000000000          0.0000000000000000
 -0.11889999999999999          0.0000000000000000
 -0.11780000000000000          0.0000000000000000
 -0.11670000000000000          0.0000000000000000
 -0.11559999999999999          0.0000000000000000
 -0.11449999999999999          0.0000000000000000
 -0.11340000000000000          0.0000000000000000
 -0.11230000000000000          0.0000000000000000
 -0.11119999999999999          0.0000000000000000
 -0.11009999999999999          0.0000000000000000
 -0.10900000000000000         -5.9352322949994308E-026
 -0.10790000000000000         -2.8590123724530161E-025
 -0.10679999999999999          1.4471355511287741E-024
 -0.10569999999999999          1.4697589380422001E-023
 -0.10460000000000000          2.9786292842208959E-023
 -0.10349999999999999         -1.1889928658012207E-022
 -0.10239999999999999         -7.9638631009068369E-022
 -0.10130000000000000         -1.4134341684352240E-021
 -0.10020000000000000          2.5787440414665167E-021
  -9.9099999999999994E-002     1.8271875278432260E-020
  -9.7999999999999990E-002     3.3014490769353261E-020
  -9.6899999999999986E-002    -2.5311070815746286E-020
  -9.5799999999999996E-002    -2.5253653495242596E-019
  -9.4699999999999993E-002    -4.9503021838905732E-019
  -9.3599999999999989E-002     4.4616054289578930E-020
  -9.2499999999999999E-002     2.4036241122935786E-018
  -9.1399999999999995E-002     5.4017296959392174E-018
  -9.0299999999999991E-002     2.3576533429557910E-018
  -8.9200000000000002E-002    -1.6086836499363871E-017
  -8.8099999999999984E-002    -4.4590921233847119E-017
  -8.6999999999999994E-002    -3.9305981582184570E-017
  -8.5899999999999990E-002     6.9911611307087390E-017
  -8.4799999999999986E-002     2.7995828570183715E-016
  -8.3699999999999997E-002     3.6454580161128936E-016
  -8.2599999999999993E-002    -1.0884942472479196E-016
  -8.1499999999999989E-002    -1.3139316955827372E-015
  -8.0399999999999999E-002    -2.3563484622307661E-015
  -7.9299999999999995E-002    -1.0585277568212793E-015
  -7.8199999999999992E-002     4.2937086889704035E-015
  -7.7100000000000002E-002     1.1252399023404386E-014
  -7.5999999999999984E-002     1.0958099966979721E-014
  -7.4899999999999994E-002    -6.8507550435477349E-015
  -7.3799999999999991E-002    -3.9675534857291569E-014
  -7.2699999999999987E-002    -5.9077837565556235E-014
  -7.1599999999999997E-002    -1.9779151054629893E-014
  -7.0499999999999993E-002     9.5598747288597880E-014
  -6.9399999999999989E-002     2.1962774209970809E-013
  -6.8300000000000000E-002     1.9770494377908954E-013
  -6.7199999999999996E-002    -9.8797096263585071E-014
  -6.6099999999999992E-002    -5.7879189722248592E-013
  -6.5000000000000002E-002    -8.3344046724817544E-013
  -6.3899999999999985E-002    -3.4851895674981037E-013
  -6.2799999999999995E-002     9.6499522782289571E-013
  -6.1699999999999991E-002     2.3072969316390024E-012
  -6.0599999999999994E-002     2.2081945647012269E-012
  -5.9499999999999990E-002    -3.0709636222869818E-013
  -5.8399999999999994E-002    -4.2728884666609623E-012
  -5.7299999999999990E-002    -6.5264187283642361E-012
  -5.6199999999999986E-002    -3.7175982778303585E-012
  -5.5099999999999996E-002     4.2420849818980422E-012
  -5.3999999999999992E-002     1.2257878739818651E-011
  -5.2899999999999989E-002     1.2636098764562398E-011
  -5.1799999999999985E-002     1.7669294846700545E-012
  -5.0699999999999995E-002    -1.4304988617264147E-011
  -4.9599999999999991E-002    -2.2083440978648561E-011
  -4.8499999999999988E-002    -1.1865098313579292E-011
  -4.7399999999999998E-002     1.0330901932531500E-011
  -4.6299999999999994E-002     2.3405428636880110E-011
  -4.5199999999999990E-002     9.6604790139620533E-012
  -4.4099999999999986E-002    -2.1871910532711425E-011
  -4.2999999999999997E-002    -3.2762979829126238E-011
  -4.1899999999999993E-002     1.2191688630869280E-011
  -4.0799999999999989E-002     9.6374908054031039E-011
  -3.9699999999999985E-002     1.3588348501958336E-010
  -3.8599999999999995E-002     3.5510511198211248E-011
  -3.7499999999999992E-002    -2.0583308668609135E-010
  -3.6399999999999988E-002    -4.2999620530892457E-010
  -3.5299999999999984E-002    -3.8876157848477533E-010
  -3.4199999999999994E-002     5.3325927007463747E-011
  -3.3099999999999991E-002     7.2237416048892555E-010
  -3.1999999999999987E-002     1.1434040381175237E-009
  -3.0899999999999997E-002     8.3607887280123805E-010
  -2.9799999999999993E-002    -2.6338431435846132E-010
  -2.8699999999999989E-002    -1.5941136188857286E-009
  -2.7599999999999986E-002    -2.2330632898359681E-009
  -2.6499999999999996E-002    -1.5350141158165798E-009
  -2.5399999999999992E-002     3.0603114486993377E-010
  -2.4299999999999988E-002     2.2671218236069990E-009
  -2.3199999999999985E-002     3.1654858734242453E-009
  -2.2099999999999995E-002     2.5051396512765223E-009
  -2.0999999999999991E-002     7.9232131966477937E-010
  -1.9899999999999987E-002    -9.8753638599902160E-010
  -1.8799999999999983E-002    -2.2735517912764180E-009
  -1.7699999999999994E-002    -3.3125715503956599E-009
  -1.6599999999999990E-002    -4.5182870778148754E-009
  -1.5499999999999986E-002    -5.3333444327563484E-009
  -1.4399999999999996E-002    -3.8769440990904513E-009
  -1.3299999999999992E-002     1.7298111831820506E-009
  -1.2199999999999989E-002     1.0955974794057965E-008
  -1.1099999999999985E-002     1.9391086070186248E-008
  -9.9999999999999950E-003     2.0175308534930991E-008
  -8.8999999999999913E-003     8.3537514683484915E-009
  -7.7999999999999875E-003    -1.4391094538268590E-008
  -6.6999999999999837E-003    -3.8280834502302241E-008
  -5.5999999999999939E-003    -4.9299178073169969E-008
  -4.4999999999999901E-003    -3.6897993993534328E-008
  -3.3999999999999864E-003    -1.1352110362849999E-009
  -2.2999999999999826E-003     4.5300517115265393E-008
  -1.1999999999999927E-003     8.1807932872379752E-008
  -9.9999999999988987E-005     8.9026812588599569E-008
   1.0000000000000148E-003     5.7825019439405878E-008
   2.1000000000000185E-003    -5.9029865440152207E-009
   3.2000000000000084E-003    -8.2155992231491837E-008
   4.3000000000000121E-003    -1.4262458591929317E-007
   5.4000000000000159E-003    -1.5951974319250439E-007
   6.5000000000000058E-003    -1.1551703238410482E-007
   7.6000000000000234E-003    -1.2584720820996154E-008
   8.7000000000000133E-003     1.2346006883490190E-007
   9.8000000000000032E-003     2.4622420369269093E-007
   1.0900000000000021E-002     3.0169746878527803E-007
   1.2000000000000011E-002     2.4867995307431556E-007
   1.3100000000000001E-002     7.9787724871493992E-008
   1.4200000000000018E-002    -1.6632223776014143E-007
   1.5300000000000008E-002    -4.0921543131844373E-007
   1.6400000000000026E-002    -5.4956007033979404E-007
   1.7500000000000016E-002    -5.0529109785202309E-007
   1.8600000000000005E-002    -2.4915152607718483E-007
   1.9700000000000023E-002     1.6742393427193747E-007
   2.0800000000000013E-002     6.1695828890151461E-007
   2.1900000000000003E-002     9.3003131951263640E-007
   2.3000000000000020E-002     9.5372581654373789E-007
   2.4100000000000010E-002     6.1560137964988826E-007
   2.5200000000000000E-002    -3.1487104479310801E-008
   2.6300000000000018E-002    -8.0475285813008668E-007
   2.7400000000000008E-002    -1.4355658777276403E-006
   2.8500000000000025E-002    -1.6542170442335191E-006
   2.9600000000000015E-002    -1.2921942698085331E-006
   3.0700000000000005E-002    -3.6885109011564055E-007
   3.1800000000000023E-002     8.7337133436449221E-007
   3.2900000000000013E-002     2.0134827991569182E-006
   3.4000000000000002E-002     2.5825945613178192E-006
   3.5100000000000020E-002     2.2505805645778310E-006
   3.6200000000000010E-002     9.9925523500132840E-007
   3.7300000000000028E-002    -8.0602876550983638E-007
   3.8400000000000017E-002    -2.5089557311730459E-006
   3.9500000000000007E-002    -3.4097863590432098E-006
   4.0600000000000025E-002    -3.0714531931153033E-006
   4.1700000000000015E-002    -1.5377547697426053E-006
   4.2800000000000005E-002     6.5499318679940188E-007
   4.3900000000000022E-002     2.6903803700406570E-006
   4.5000000000000012E-002     3.8068408230174100E-006
   4.6100000000000002E-002     3.5902223771699937E-006
   4.7200000000000020E-002     2.0930074242642149E-006
   4.8300000000000010E-002    -2.4234066131612053E-007
   4.9400000000000027E-002    -2.7691066861734726E-006
   5.0500000000000017E-002    -4.8074998630909249E-006
   5.1600000000000007E-002    -5.7334841585543472E-006
   5.2700000000000025E-002    -5.0178664423583541E-006
   5.3800000000000014E-002    -2.3111783775675576E-006
   5.4900000000000004E-002     2.3611341930518392E-006
   5.6000000000000022E-002     8.3416616689646617E-006
   5.7100000000000012E-002     1.4188096429279540E-005
   5.8200000000000002E-002     1.7817765183281153E-005
   5.9300000000000019E-002     1.7031319657689892E-005
   6.0400000000000009E-002     1.0283533811161760E-005
   6.1500000000000027E-002    -2.6318111849832349E-006
   6.2600000000000017E-002    -2.0370267520775087E-005
   6.3700000000000007E-002    -4.0521168557461351E-005
   6.4800000000000024E-002    -6.0677688452415168E-005
   6.5900000000000014E-002    -7.9647004895377904E-005
   6.7000000000000004E-002    -9.8220029030926526E-005
   6.8100000000000022E-002    -1.1909818567801267E-004
   6.9200000000000012E-002    -1.4600149006582797E-004
   7.0300000000000029E-002    -1.8242579244542867E-004
   7.1400000000000019E-002    -2.3071590112522244E-004
   7.2500000000000009E-002    -2.9194258968345821E-004
   7.3600000000000027E-002    -3.6661696503870189E-004
   7.4700000000000016E-002    -4.5582072925753891E-004
   7.5800000000000006E-002    -5.6214717915281653E-004
   7.6900000000000024E-002    -6.9003493990749121E-004
   7.8000000000000014E-002    -8.4548618178814650E-004
   7.9100000000000004E-002    -1.0355241829529405E-003
   8.0200000000000021E-002    -1.2678427156060934E-003
   8.1300000000000011E-002    -1.5508960932493210E-003
   8.2400000000000029E-002    -1.8943559844046831E-003
   8.3500000000000019E-002    -2.3096245713531971E-003
   8.4600000000000009E-002    -2.8100919444113970E-003
   8.5700000000000026E-002    -3.4110494889318943E-003
   8.6800000000000016E-002    -4.1294489055871964E-003
   8.7900000000000006E-002    -4.9838433042168617E-003
   8.9000000000000024E-002    -5.9947976842522621E-003
   9.0100000000000013E-002    -7.1857897564768791E-003
   9.1200000000000003E-002    -8.5843075066804886E-003
   9.2300000000000021E-002    -1.0222717188298702E-002
   9.3400000000000011E-002    -1.2138552032411098E-002
   9.4500000000000028E-002    -1.4374189078807831E-002
   9.5600000000000018E-002    -1.6976259648799896E-002
   9.6700000000000008E-002    -1.9995205104351044E-002
   9.7800000000000026E-002    -2.3485327139496803E-002
   9.8900000000000016E-002    -2.7505289763212204E-002
  0.10000000000000001         -3.2118506729602814E-002
  0.10110000000000002         -3.7393216043710709E-002
  0.10220000000000001         -4.3402135372161865E-002
  0.10330000000000003         -5.0221901386976242E-002
  0.10440000000000002         -5.7932768017053604E-002
  0.10550000000000001         -6.6618688404560089E-002
  0.10660000000000003         -7.6367437839508057E-002
  0.10770000000000002         -8.7270185351371765E-002
  0.10880000000000001         -9.9419683218002319E-002
  0.10990000000000003        -0.11290729790925980
  0.11100000000000002        -0.12781983613967896
  0.11210000000000001        -0.14423690736293793
  0.11320000000000002        -0.16222932934761047
  0.11430000000000001        -0.18185830116271973
  0.11540000000000003        -0.20317438244819641
  0.11650000000000002        -0.22621586918830872
  0.11760000000000001        -0.25100511312484741
  0.11870000000000003        -0.27754297852516174
  0.11980000000000002        -0.30580422282218933
  0.12090000000000001        -0.33573237061500549
  0.12200000000000003        -0.36723586916923523
  0.12310000000000001        -0.40018659830093384
  0.12420000000000003        -0.43441927433013916
  0.12530000000000002        -0.46973019838333130
  0.12640000000000001        -0.50587409734725952
  0.12750000000000003        -0.54255956411361694
  0.12860000000000002        -0.57944482564926147
  0.12970000000000001        -0.61613601446151733
  0.13080000000000003        -0.65218746662139893
  0.13190000000000002        -0.68710547685623169
  0.13300000000000001        -0.72035342454910278
  0.13410000000000000        -0.75135314464569092
  0.13520000000000004        -0.77948546409606934
  0.13630000000000003        -0.80409485101699829
  0.13740000000000002        -0.82449734210968018
  0.13850000000000001        -0.83999103307723999
  0.13960000000000000        -0.84986388683319092
  0.14070000000000005        -0.85340327024459839
  0.14180000000000004        -0.84991347789764404
  0.14290000000000003        -0.83872771263122559
  0.14400000000000002        -0.81921619176864624
  0.14510000000000001        -0.79079443216323853
  0.14620000000000000        -0.75294035673141479
  0.14730000000000004        -0.70521742105484009
  0.14840000000000003        -0.64728605747222900
  0.14950000000000002        -0.57891690731048584
  0.15060000000000001        -0.50000727176666260
  0.15170000000000000        -0.41059267520904541
  0.15280000000000005        -0.31085589528083801
  0.15390000000000004        -0.20113493502140045
  0.15500000000000003         -8.1920132040977478E-002
  0.15610000000000002          4.6147432178258896E-002
  0.15720000000000001         0.18226343393325806
  0.15830000000000000         0.32545223832130432
  0.15940000000000004         0.47456905245780945
  0.16050000000000003         0.62831008434295654
  0.16160000000000002         0.78523379564285278
  0.16270000000000001         0.94378626346588135
  0.16380000000000000          1.1023209095001221
  0.16490000000000005          1.2591081857681274
  0.16600000000000004          1.4123525619506836
  0.16710000000000003          1.5602122545242310
  0.16820000000000002          1.7008295059204102
  0.16930000000000001          1.8323764801025391
  0.17040000000000000          1.9530863761901855
  0.17150000000000004          2.0612754821777344
  0.17260000000000003          2.1553659439086914
  0.17370000000000002          2.2339129447937012
  0.17480000000000001          2.2956345081329346
  0.17590000000000000          2.3394374847412109
  0.17700000000000005          2.3644411563873291
  0.17810000000000004          2.3699970245361328
  0.17920000000000003          2.3557028770446777
  0.18030000000000002          2.3214154243469238
  0.18140000000000001          2.2672548294067383
  0.18250000000000000          2.1936030387878418
  0.18360000000000004          2.1010987758636475
  0.18470000000000003          1.9906263351440430
  0.18580000000000002          1.8633110523223877
  0.18690000000000001          1.7205060720443726
  0.18800000000000000          1.5637706518173218
  0.18910000000000005          1.3948479890823364
  0.19020000000000004          1.2156255245208740
  0.19130000000000003          1.0281007289886475
  0.19240000000000002         0.83435726165771484
  0.19350000000000001         0.63654494285583496
  0.19460000000000005         0.43684750795364380
  0.19570000000000004         0.23742906749248505
  0.19680000000000003          4.0394321084022522E-002
  0.19790000000000002        -0.15222679078578949
  0.19900000000000001        -0.33850711584091187
  0.20010000000000000        -0.51664906740188599
  0.20120000000000005        -0.68500769138336182
  0.20230000000000004        -0.84211635589599609
  0.20340000000000003        -0.98670035600662231
  0.20450000000000002         -1.1176903247833252
  0.20560000000000000         -1.2342306375503540
  0.20670000000000005         -1.3356900215148926
  0.20780000000000004         -1.4216654300689697
  0.20890000000000003         -1.4919769763946533
