 -0.12000000000000000          0.0000000000000000
 -0.11889999999999999          0.0000000000000000
 -0.11780000000000000          0.0000000000000000
 -0.11670000000000000          0.0000000000000000
 -0.11559999999999999          0.0000000000000000
 -0.11449999999999999          0.0000000000000000
 -0.11340000000000000          0.0000000000000000
 -0.11230000000000000          0.0000000000000000
 -0.11119999999999999          0.0000000000000000
 -0.11009999999999999          0.0000000000000000
 -0.10900000000000000         -1.1999602055504362E-018
 -0.10790000000000000         -2.3345960969711816E-018
 -0.10679999999999999          2.5871206895035138E-017
 -0.10569999999999999          7.4241564324112569E-017
 -0.10460000000000000         -3.6786386789370087E-016
 -0.10349999999999999         -2.2050766364223838E-015
 -0.10239999999999999         -1.7375305431640078E-015
 -0.10130000000000000          1.8267078659168351E-014
 -0.10020000000000000          6.8734541712814345E-014
  -9.9099999999999994E-002     5.4151453286743756E-014
  -9.7999999999999990E-002    -3.1092850191240251E-013
  -9.6899999999999986E-002    -1.1208319428829272E-012
  -9.5799999999999996E-002    -1.0976292574502167E-012
  -9.4699999999999993E-002     2.9511566801421196E-012
  -9.3599999999999989E-002     1.1996841887962351E-011
  -9.2499999999999999E-002     1.4520566173070737E-011
  -9.1399999999999995E-002    -1.6990102033598298E-011
  -9.0299999999999991E-002    -9.4345246892668655E-011
  -8.9200000000000002E-002    -1.4109528823080808E-010
  -8.8099999999999984E-002     3.5670306985924327E-011
  -8.6999999999999994E-002     5.5993004677290514E-010
  -8.5899999999999990E-002     1.0533079963792602E-009
  -8.4799999999999986E-002     3.9948641616938119E-010
  -8.3699999999999997E-002    -2.4133282039429105E-009
  -8.2599999999999993E-002    -6.0851710337317400E-009
  -8.1499999999999989E-002    -5.3225210905338827E-009
  -8.0399999999999999E-002     6.2955334279024555E-009
  -7.9299999999999995E-002     2.6812326581193702E-008
  -7.8199999999999992E-002     3.6167104866535738E-008
  -7.7100000000000002E-002     2.2531090326793901E-009
  -7.5999999999999984E-002    -8.5170619001928571E-008
  -7.4899999999999994E-002    -1.6904822075503034E-007
  -7.3799999999999991E-002    -1.2257359571776760E-007
  -7.2699999999999987E-002     1.5465066383058002E-007
  -7.1599999999999997E-002     5.6516608992751571E-007
  -7.0499999999999993E-002     7.2131064143832191E-007
  -6.9399999999999989E-002     1.3960301714632806E-007
  -6.8300000000000000E-002    -1.2429743492248235E-006
  -6.7199999999999996E-002    -2.5754536636668490E-006
  -6.6099999999999992E-002    -2.2498700218420709E-006
  -6.5000000000000002E-002     9.1090100795554463E-007
  -6.3899999999999985E-002     5.9544322539295536E-006
  -6.2799999999999995E-002     9.0951543825212866E-006
  -6.1699999999999991E-002     5.5188770602399018E-006
  -6.0599999999999994E-002    -6.4274859141733032E-006
  -5.9499999999999990E-002    -2.1340370949474163E-005
  -5.8399999999999994E-002    -2.7202147975913249E-005
  -5.7299999999999990E-002    -1.2357952073216438E-005
  -5.6199999999999986E-002     2.3682461687712930E-005
  -5.5099999999999996E-002     6.3171122747007757E-005
  -5.3999999999999992E-002     7.4790928920265287E-005
  -5.2899999999999989E-002     3.2042898965300992E-005
  -5.1799999999999985E-002    -6.2742452428210527E-005
  -5.0699999999999995E-002    -1.6474489530082792E-004
  -4.9599999999999991E-002    -1.9867972878273576E-004
  -4.8499999999999988E-002    -1.0013384599005803E-004
  -4.7399999999999998E-002     1.2965098721906543E-004
  -4.6299999999999994E-002     3.8948073051869869E-004
  -4.5199999999999990E-002     5.0164724234491587E-004
  -4.4099999999999986E-002     3.0698612681590021E-004
  -4.2999999999999997E-002    -2.0396205945871770E-004
  -4.1899999999999993E-002    -8.0993672600015998E-004
  -4.0799999999999989E-002    -1.1208497453480959E-003
  -3.9699999999999985E-002    -8.0203439574688673E-004
  -3.8599999999999995E-002     1.5216704923659563E-004
  -3.7499999999999992E-002     1.3049476547166705E-003
  -3.6399999999999988E-002     1.9783438183367252E-003
  -3.5299999999999984E-002     1.6963104717433453E-003
  -3.4199999999999994E-002     5.4666952928528190E-004
  -3.3099999999999991E-002    -8.8263110956177115E-004
  -3.1999999999999987E-002    -2.0076681394129992E-003
  -3.0899999999999997E-002    -2.7360499370843172E-003
  -2.9799999999999993E-002    -3.3408401068300009E-003
  -2.8699999999999989E-002    -3.6415508948266506E-003
  -2.7599999999999986E-002    -2.3078471422195435E-003
  -2.6499999999999996E-002     2.5075192097574472E-003
  -2.5399999999999992E-002     1.0889356024563313E-002
  -2.4299999999999988E-002     1.8798898905515671E-002
  -2.3199999999999985E-002     1.8469693139195442E-002
  -2.2099999999999995E-002     3.2532559707760811E-003
  -2.0999999999999991E-002    -2.5094619020819664E-002
  -1.9899999999999987E-002    -5.2421797066926956E-002
  -1.8799999999999983E-002    -5.7152066379785538E-002
  -1.7699999999999994E-002    -2.4286974221467972E-002
  -1.6599999999999990E-002     3.9676640182733536E-002
  -1.5499999999999986E-002    0.10312713682651520
  -1.4399999999999996E-002    0.12397506088018417
  -1.3299999999999992E-002     7.6506376266479492E-002
  -1.2199999999999989E-002    -2.7146473526954651E-002
  -1.1099999999999985E-002   -0.13817913830280304
  -9.9999999999999950E-003   -0.19752733409404755
  -8.8999999999999913E-003   -0.17086456716060638
  -7.7999999999999875E-003    -6.7484520375728607E-002
  -6.6999999999999837E-003     6.9929160177707672E-002
  -5.5999999999999939E-003    0.19410750269889832
  -4.4999999999999901E-003    0.27470532059669495
  -3.3999999999999864E-003    0.29489579796791077
  -2.2999999999999826E-003    0.23236644268035889
  -1.1999999999999927E-003     5.5246986448764801E-002
  -9.9999999999988987E-005   -0.24496172368526459
   1.0000000000000148E-003   -0.59915876388549805
   2.1000000000000185E-003   -0.83753961324691772
   3.2000000000000084E-003   -0.74738836288452148
   4.3000000000000121E-003   -0.20786502957344055
   5.4000000000000159E-003    0.67395633459091187
   6.5000000000000058E-003     1.5332658290863037
   7.6000000000000234E-003     1.8848099708557129
   8.7000000000000133E-003     1.3818533420562744
   9.8000000000000032E-003     5.5202748626470566E-002
   1.0900000000000021E-002    -1.6223218441009521
   1.2000000000000011E-002    -2.9107239246368408
   1.3100000000000001E-002    -3.1419713497161865
   1.4200000000000018E-002    -2.0492508411407471
   1.5300000000000008E-002     8.2829482853412628E-002
   1.6400000000000026E-002     2.5146081447601318
   1.7500000000000016E-002     4.3337478637695312
   1.8600000000000005E-002     4.7876210212707520
   1.9700000000000023E-002     3.5395541191101074
   2.0800000000000013E-002    0.78797739744186401
   2.1900000000000003E-002    -2.7518408298492432
   2.3000000000000020E-002    -5.9866342544555664
   2.4100000000000010E-002    -7.7019381523132324
   2.5200000000000000E-002    -6.9321045875549316
   2.6300000000000018E-002    -3.3835523128509521
   2.7400000000000008E-002     2.2408397197723389
   2.8500000000000025E-002     8.2251644134521484
   2.9600000000000015E-002     12.280805587768555
   3.0700000000000005E-002     12.394011497497559
   3.1800000000000023E-002     7.7745056152343750
   3.2900000000000013E-002   -0.55686306953430176
   3.4000000000000002E-002    -9.9185724258422852
   3.5100000000000020E-002    -16.900005340576172
   3.6200000000000010E-002    -18.700130462646484
   3.7300000000000028E-002    -14.256013870239258
   3.8400000000000017E-002    -4.6488223075866699
   3.9500000000000007E-002     7.3265643119812012
   4.0600000000000025E-002     18.117523193359375
   4.1700000000000015E-002     24.423328399658203
   4.2800000000000005E-002     23.965557098388672
   4.3900000000000022E-002     16.033317565917969
   4.5000000000000012E-002     1.9252305030822754
   4.6100000000000002E-002    -14.814802169799805
   4.7200000000000020E-002    -28.799055099487305
   4.8300000000000010E-002    -34.263843536376953
   4.9400000000000027E-002    -27.463569641113281
   5.0500000000000017E-002    -8.9881172180175781
   5.1600000000000007E-002     15.472308158874512
   5.2700000000000025E-002     36.890155792236328
   5.3800000000000014E-002     46.765140533447266
   5.4900000000000004E-002     41.195499420166016
   5.6000000000000022E-002     22.807035446166992
   5.7100000000000012E-002   -0.73676532506942749
   5.8200000000000002E-002    -20.867868423461914
   5.9300000000000019E-002    -32.415023803710938
   6.0400000000000009E-002    -35.464847564697266
   6.1500000000000027E-002    -33.802410125732422
   6.2600000000000017E-002    -31.293029785156250
   6.3700000000000007E-002    -29.010946273803711
   6.4800000000000024E-002    -25.389663696289062
   6.5900000000000014E-002    -19.429016113281250
   6.7000000000000004E-002    -14.542700767517090
   6.8100000000000022E-002    -19.720008850097656
   6.9200000000000012E-002    -46.171279907226562
   7.0300000000000029E-002    -100.72573089599609
   7.1400000000000019E-002    -180.00247192382812
   7.2500000000000009E-002    -269.74322509765625
   7.3600000000000027E-002    -351.09222412109375
   7.4700000000000016E-002    -411.25994873046875
   7.5800000000000006E-002    -452.70281982421875
   7.6900000000000024E-002    -495.09582519531250
   7.8000000000000014E-002    -568.11187744140625
   7.9100000000000004E-002    -698.58178710937500
   8.0200000000000021E-002    -899.32867431640625
   8.1300000000000011E-002    -1166.1518554687500
   8.2400000000000029E-002    -1484.7584228515625
   8.3500000000000019E-002    -1843.2133789062500
   8.4600000000000009E-002    -2242.5900878906250
   8.5700000000000026E-002    -2699.7487792968750
   8.6800000000000016E-002    -3241.6621093750000
   8.7900000000000006E-002    -3895.9348144531250
   8.9000000000000024E-002    -4683.9658203125000
   9.0100000000000013E-002    -5620.5478515625000
   9.1200000000000003E-002    -6719.5190429687500
   9.2300000000000021E-002    -8000.6201171875000
   9.3400000000000011E-002    -9493.4296875000000
   9.4500000000000028E-002    -11235.889648437500
   9.5600000000000018E-002    -13269.678710937500
   9.6700000000000008E-002    -15635.169921875000
   9.7800000000000026E-002    -18370.333984375000
   9.8900000000000016E-002    -21512.644531250000
  0.10000000000000001         -25101.949218750000
  0.10110000000000002         -29184.347656250000
  0.10220000000000001         -33811.917968750000
  0.10330000000000003         -39041.265625000000
  0.10440000000000002         -44930.531250000000
  0.10550000000000001         -51539.011718750000
  0.10660000000000003         -58928.796875000000
  0.10770000000000002         -67166.546875000000
  0.10880000000000001         -76321.984375000000
  0.10990000000000003         -86464.664062500000
  0.11100000000000002         -97655.757812500000
  0.11210000000000001         -109940.25000000000
  0.11320000000000002         -123349.28906250000
  0.11430000000000001         -137898.90625000000
  0.11540000000000003         -153602.46875000000
  0.11650000000000002         -170479.62500000000
  0.11760000000000001         -188545.56250000000
  0.11870000000000003         -207811.95312500000
  0.11980000000000002         -228267.98437500000
  0.12090000000000001         -249859.34375000000
  0.12200000000000003         -272489.09375000000
  0.12310000000000001         -296029.18750000000
  0.12420000000000003         -320320.93750000000
  0.12530000000000002         -345194.81250000000
  0.12640000000000001         -370470.25000000000
  0.12750000000000003         -395950.28125000000
  0.12860000000000002         -421419.71875000000
  0.12970000000000001         -446598.87500000000
  0.13080000000000003         -471144.84375000000
  0.13190000000000002         -494662.00000000000
  0.13300000000000001         -516724.84375000000
  0.13410000000000000         -536877.37500000000
  0.13520000000000004         -554688.31250000000
  0.13630000000000003         -569729.18750000000
  0.13740000000000002         -581585.68750000000
  0.13850000000000001         -589794.00000000000
  0.13960000000000000         -593844.68750000000
  0.14070000000000005         -593195.18750000000
  0.14180000000000004         -587321.12500000000
  0.14290000000000003         -575729.00000000000
  0.14400000000000002         -557983.62500000000
  0.14510000000000001         -533681.81250000000
  0.14620000000000000         -502566.81250000000
  0.14730000000000004         -464391.34375000000
  0.14840000000000003         -418924.90625000000
  0.14950000000000002         -365977.34375000000
  0.15060000000000001         -305436.31250000000
  0.15170000000000000         -237328.67187500000
  0.15280000000000005         -161793.98437500000
  0.15390000000000004         -79196.640625000000
  0.15500000000000003          10104.045898437500
  0.15610000000000002          105659.98437500000
  0.15720000000000001          206902.10937500000
  0.15830000000000000          313175.40625000000
  0.15940000000000004          423663.84375000000
  0.16050000000000003          537383.31250000000
  0.16160000000000002          653263.00000000000
  0.16270000000000001          770179.93750000000
  0.16380000000000000          886988.81250000000
  0.16490000000000005          1002427.1875000000
  0.16600000000000004          1115226.7500000000
  0.16710000000000003          1223982.6250000000
  0.16820000000000002          1327375.3750000000
  0.16930000000000001          1424112.2500000000
  0.17040000000000000          1512885.0000000000
  0.17150000000000004          1592423.1250000000
  0.17260000000000003          1661471.5000000000
  0.17370000000000002          1718927.1250000000
  0.17480000000000001          1763828.6250000000
  0.17590000000000000          1795380.7500000000
  0.17700000000000005          1812921.5000000000
  0.17810000000000004          1815911.1250000000
  0.17920000000000003          1803937.2500000000
  0.18030000000000002          1776806.0000000000
  0.18140000000000001          1734525.2500000000
  0.18250000000000000          1677364.0000000000
  0.18360000000000004          1605776.2500000000
  0.18470000000000003          1520352.5000000000
  0.18580000000000002          1421865.0000000000
  0.18690000000000001          1311180.7500000000
  0.18800000000000000          1189436.5000000000
  0.18910000000000005          1057950.8750000000
  0.19020000000000004          918133.25000000000
  0.19130000000000003          771523.25000000000
  0.19240000000000002          619683.43750000000
  0.19350000000000001          464307.12500000000
  0.19460000000000005          307030.28125000000
  0.19570000000000004          149500.51562500000
  0.19680000000000003         -6684.9853515625000
  0.19790000000000002         -159803.45312500000
  0.19900000000000001         -308310.46875000000
  0.20010000000000000         -450671.09375000000
  0.20120000000000005         -585550.12500000000
  0.20230000000000004         -711687.00000000000
  0.20340000000000003         -828010.50000000000
  0.20450000000000002         -933620.50000000000
  0.20560000000000000         -1027769.7500000000
  0.20670000000000005         -1109879.0000000000
  0.20780000000000004         -1179467.7500000000
  0.20890000000000003         -1236290.5000000000
