 -0.12000000000000000          0.0000000000000000
 -0.11889999999999999          0.0000000000000000
 -0.11780000000000000          0.0000000000000000
 -0.11670000000000000          0.0000000000000000
 -0.11559999999999999          0.0000000000000000
 -0.11449999999999999          0.0000000000000000
 -0.11340000000000000         -1.1574072544817682E-007
 -0.11230000000000000          1.1574072544817682E-007
 -0.11119999999999999          2.3148145089635364E-007
 -0.11009999999999999         -4.6296290179270727E-007
 -0.10900000000000000         -2.3148145089635364E-007
 -0.10790000000000000          2.3148145089635364E-007
 -0.10679999999999999          4.6296290179270727E-007
 -0.10569999999999999          4.6296290179270727E-007
 -0.10460000000000000          0.0000000000000000
 -0.10349999999999999          9.2592580358541454E-007
 -0.10239999999999999         -9.2592580358541454E-007
 -0.10130000000000000         -9.2592580358541454E-007
 -0.10020000000000000         -1.8518516071708291E-006
  -9.9099999999999994E-002    -1.8518516071708291E-006
  -9.7999999999999990E-002     1.8518516071708291E-006
  -9.6899999999999986E-002     3.7037032143416582E-006
  -9.5799999999999996E-002     0.0000000000000000
  -9.4699999999999993E-002     0.0000000000000000
  -9.3599999999999989E-002     0.0000000000000000
  -9.2499999999999999E-002     0.0000000000000000
  -9.1399999999999995E-002     0.0000000000000000
  -9.0299999999999991E-002     0.0000000000000000
  -8.9200000000000002E-002     1.4814812857366633E-005
  -8.8099999999999984E-002    -7.4074064286833163E-006
  -8.6999999999999994E-002    -2.9629625714733265E-005
  -8.5899999999999990E-002     1.4814812857366633E-005
  -8.4799999999999986E-002     0.0000000000000000
  -8.3699999999999997E-002     0.0000000000000000
  -8.2599999999999993E-002     1.4814812857366633E-005
  -8.1499999999999989E-002     0.0000000000000000
  -8.0399999999999999E-002    -2.9629625714733265E-005
  -7.9299999999999995E-002    -2.9629625714733265E-005
  -7.8199999999999992E-002    -5.9259251429466531E-005
  -7.7100000000000002E-002     1.7777775065042078E-004
  -7.5999999999999984E-002     1.1851850285893306E-004
  -7.4899999999999994E-002    -1.7777775065042078E-004
  -7.3799999999999991E-002    -5.9259251429466531E-005
  -7.2699999999999987E-002     0.0000000000000000
  -7.1599999999999997E-002     1.1851850285893306E-004
  -7.0499999999999993E-002     1.1851850285893306E-004
  -6.9399999999999989E-002    -1.1851850285893306E-004
  -6.8300000000000000E-002     0.0000000000000000
  -6.7199999999999996E-002    -2.3703700571786612E-004
  -6.6099999999999992E-002    -2.3703700571786612E-004
  -6.5000000000000002E-002     1.1851850285893306E-004
  -6.3899999999999985E-002     2.3703700571786612E-004
  -6.2799999999999995E-002     7.1111100260168314E-004
  -6.1699999999999991E-002    -2.3703700571786612E-004
  -6.0599999999999994E-002    -2.3703700571786612E-004
  -5.9499999999999990E-002    -2.3703700571786612E-004
  -5.8399999999999994E-002    -4.7407401143573225E-004
  -5.7299999999999990E-002     4.7407401143573225E-004
  -5.6199999999999986E-002     0.0000000000000000
  -5.5099999999999996E-002    -9.4814802287146449E-004
  -5.3999999999999992E-002     0.0000000000000000
  -5.2899999999999989E-002     9.4814802287146449E-004
  -5.1799999999999985E-002    -1.4222220052033663E-003
  -5.0699999999999995E-002     0.0000000000000000
  -4.9599999999999991E-002     2.8444440104067326E-003
  -4.8499999999999988E-002     4.7407401143573225E-004
  -4.7399999999999998E-002     0.0000000000000000
  -4.6299999999999994E-002    -9.4814802287146449E-004
  -4.5199999999999990E-002     4.7407401143573225E-004
  -4.4099999999999986E-002    -2.8444440104067326E-003
  -4.2999999999999997E-002    -4.7407401143573225E-004
  -4.1899999999999993E-002     9.4814802287146449E-004
  -4.0799999999999989E-002     1.4222220052033663E-003
  -3.9699999999999985E-002     1.4222220052033663E-003
  -3.8599999999999995E-002    -4.7407401143573225E-004
  -3.7499999999999992E-002    -9.4814802287146449E-004
  -3.6399999999999988E-002    -1.8962960457429290E-003
  -3.5299999999999984E-002     0.0000000000000000
  -3.4199999999999994E-002     9.4814802287146449E-004
  -3.3099999999999991E-002     0.0000000000000000
  -3.1999999999999987E-002    -2.8444440104067326E-003
  -3.0899999999999997E-002     2.8444440104067326E-003
  -2.9799999999999993E-002     3.7925920914858580E-003
  -2.8699999999999989E-002     4.7407401143573225E-004
  -2.7599999999999986E-002    -9.4814802287146449E-004
  -2.6499999999999996E-002    -5.6888880208134651E-003
  -2.5399999999999992E-002    -2.6074070483446121E-003
  -2.4299999999999988E-002    -4.7407401143573225E-004
  -2.3199999999999985E-002     7.5259250588715076E-003
  -2.2099999999999995E-002     6.6370363347232342E-003
  -2.0999999999999991E-002     8.2962954184040427E-004
  -1.9899999999999987E-002    -7.8222211450338364E-003
  -1.8799999999999983E-002    -9.4814803451299667E-003
  -1.7699999999999994E-002    -4.7407401143573225E-004
  -1.6599999999999990E-002     7.1111102588474751E-003
  -1.5499999999999986E-002     8.5333324968814850E-003
  -1.4399999999999996E-002     9.4814802287146449E-004
  -1.3299999999999992E-002    -2.8444440104067326E-003
  -1.2199999999999989E-002    -1.1377776041626930E-002
  -1.1099999999999985E-002    -1.0429628193378448E-002
  -9.9999999999999950E-003     5.6888880208134651E-003
  -8.8999999999999913E-003     1.6118517145514488E-002
  -7.7999999999999875E-003     1.1377776041626930E-002
  -6.6999999999999837E-003    -6.6370363347232342E-003
  -5.5999999999999939E-003    -1.2325923889875412E-002
  -4.4999999999999901E-003    -4.7407401725649834E-003
  -3.3999999999999864E-003     7.5851841829717159E-003
  -2.2999999999999826E-003     5.6888880208134651E-003
  -1.1999999999999927E-003     0.0000000000000000
  -9.9999999999988987E-005    -5.6888880208134651E-003
   1.0000000000000148E-003    -1.1377776041626930E-002
   2.1000000000000185E-003    -1.8962960457429290E-003
   3.2000000000000084E-003     7.5851841829717159E-003
   4.3000000000000121E-003     1.1377776041626930E-002
   5.4000000000000159E-003     2.8444440104067326E-003
   6.5000000000000058E-003    -3.7925920914858580E-003
   7.6000000000000234E-003    -7.5851841829717159E-003
   8.7000000000000133E-003     1.8962960457429290E-003
   9.8000000000000032E-003     1.8962960457429290E-003
   1.0900000000000021E-002     3.7925920914858580E-003
   1.2000000000000011E-002    -6.6370363347232342E-003
   1.3100000000000001E-002    -2.8444440104067326E-003
   1.4200000000000018E-002    -9.4814802287146449E-004
   1.5300000000000008E-002     3.7925920914858580E-003
   1.6400000000000026E-002     1.4222220052033663E-003
   1.7500000000000016E-002    -4.7407401143573225E-004
   1.8600000000000005E-002    -3.7925920914858580E-003
   1.9700000000000023E-002     1.6592590836808085E-003
   2.0800000000000013E-002     6.7555545829236507E-003
   2.1900000000000003E-002     1.0281479917466640E-002
   2.3000000000000020E-002     3.4962957724928856E-003
   2.4100000000000010E-002    -1.0192591696977615E-002
   2.5200000000000000E-002    -1.4459257014095783E-002
   2.6300000000000018E-002    -6.3999993726611137E-003
   2.7400000000000008E-002     1.0903702117502689E-002
   2.8500000000000025E-002     8.5333324968814850E-003
   2.9600000000000015E-002    -9.4814802287146449E-004
   3.0700000000000005E-002    -1.2799998745322227E-002
   3.1800000000000023E-002    -1.0903702117502689E-002
   3.2900000000000013E-002     1.8962960457429290E-003
   3.4000000000000002E-002     1.8014812842011452E-002
   3.5100000000000020E-002     1.8014812842011452E-002
   3.6200000000000010E-002     1.4222220052033663E-003
   3.7300000000000028E-002    -1.5170368365943432E-002
   3.8400000000000017E-002    -1.4696294441819191E-002
   3.9500000000000007E-002     0.0000000000000000
   4.0600000000000025E-002     8.5333324968814850E-003
   4.1700000000000015E-002     7.1111102588474751E-003
   4.2800000000000005E-002    -6.6370363347232342E-003
   4.3900000000000022E-002    -9.4814803451299667E-003
   4.5000000000000012E-002    -4.2666662484407425E-003
   4.6100000000000002E-002     1.1377776041626930E-002
   4.7200000000000020E-002     1.5170368365943432E-002
   4.8300000000000010E-002     4.2666662484407425E-003
   4.9400000000000027E-002    -9.9555542692542076E-003
   5.0500000000000017E-002    -1.3748146593570709E-002
   5.1600000000000007E-002    -3.7925920914858580E-003
   5.2700000000000025E-002     8.5333324968814850E-003
   5.3800000000000014E-002     1.2799998745322227E-002
   5.4900000000000004E-002     0.0000000000000000
   5.6000000000000022E-002    -1.5881478786468506E-002
   5.7100000000000012E-002    -1.6118517145514488E-002
   5.8200000000000002E-002     1.4222220052033663E-003
   5.9300000000000019E-002     1.9437033683061600E-002
   6.0400000000000009E-002     2.2281479090452194E-002
   6.1500000000000027E-002     3.0814809724688530E-003
   6.2600000000000017E-002    -1.7066664993762970E-002
   6.3700000000000007E-002    -2.0148145034909248E-002
   6.4800000000000024E-002    -2.9629624914377928E-003
   6.5900000000000014E-002     1.5288886614143848E-002
   6.7000000000000004E-002     1.6118517145514488E-002
   6.8100000000000022E-002    -7.1111100260168314E-004
   6.9200000000000012E-002    -1.9792590290307999E-002
   7.0300000000000029E-002    -1.9555553793907166E-002
   7.1400000000000019E-002    -4.7407401143573225E-004
   7.2500000000000009E-002     1.8725924193859100E-002
   7.3600000000000027E-002     2.1274071186780930E-002
   7.4700000000000016E-002     5.8666658587753773E-003
   7.5800000000000006E-002    -1.3570368289947510E-002
   7.6900000000000024E-002    -1.7125923186540604E-002
   7.8000000000000014E-002    -5.0666658207774162E-003
   7.9100000000000004E-002     1.0429628193378448E-002
   8.0200000000000021E-002     1.4755553565919399E-002
   8.1300000000000011E-002     3.0518514104187489E-003
   8.2400000000000029E-002    -1.2222220189869404E-002
   8.3500000000000019E-002    -1.5940738841891289E-002
   8.4600000000000009E-002    -6.1185178346931934E-003
   8.5700000000000026E-002     9.3777766451239586E-003
   8.6800000000000016E-002     1.4992590993642807E-002
   8.7900000000000006E-002     8.3925910294055939E-003
   8.9000000000000024E-002    -2.1333331242203712E-003
   9.0100000000000013E-002    -6.4296289347112179E-003
   9.1200000000000003E-002    -1.8740738742053509E-003
   9.2300000000000021E-002     4.2703696526587009E-003
   9.3400000000000011E-002     2.5703699793666601E-003
   9.4500000000000028E-002    -5.8259251527488232E-003
   9.5600000000000018E-002    -1.1412961408495903E-002
   9.6700000000000008E-002    -7.6814806088805199E-003
   9.7800000000000026E-002     3.7537033203989267E-003
   9.8900000000000016E-002     1.1414812877774239E-002
  0.10000000000000001          8.3620361983776093E-003
  0.10110000000000002         -2.2990738507360220E-003
  0.10220000000000001         -8.9574065059423447E-003
  0.10330000000000003         -4.3824068270623684E-003
  0.10440000000000002          6.3064806163311005E-003
  0.10550000000000001          1.1574072763323784E-002
  0.10660000000000003          5.0402772612869740E-003
  0.10770000000000002         -8.1259245052933693E-003
  0.10880000000000001         -1.5608331188559532E-002
  0.10990000000000003         -1.0483563877642155E-002
  0.11100000000000002          3.5068283323198557E-003
  0.11210000000000001          1.4422567561268806E-002
  0.11320000000000002          1.3236224651336670E-002
  0.11430000000000001          1.9492474384605885E-003
  0.11540000000000003         -8.8745355606079102E-003
  0.11650000000000002         -1.0399535298347473E-002
  0.11760000000000001         -2.0472798496484756E-003
  0.11870000000000003          7.6515902765095234E-003
  0.11980000000000002          1.0249767452478409E-002
  0.12090000000000001          3.7516488227993250E-003
  0.12200000000000003         -6.1657689511775970E-003
  0.12310000000000001         -1.1660863645374775E-002
  0.12420000000000003         -8.6886994540691376E-003
  0.12530000000000002         -4.0565678500570357E-004
  0.12640000000000001          6.8422877229750156E-003
  0.12750000000000003          7.8476695343852043E-003
  0.12860000000000002          2.9363422654569149E-003
  0.12970000000000001         -2.7610240504145622E-003
  0.13080000000000003         -4.6193571761250496E-003
  0.13190000000000002         -1.4126083115115762E-003
  0.13300000000000001          4.1293399408459663E-003
  0.13410000000000000          7.0044621825218201E-003
  0.13520000000000004          4.1612116619944572E-003
  0.13630000000000003         -3.2749779056757689E-003
  0.13740000000000002         -9.8937898874282837E-003
  0.13850000000000001         -1.0190156288444996E-002
  0.13960000000000000         -3.1583907548338175E-003
  0.14070000000000005          6.3261999748647213E-003
  0.14180000000000004          1.1436688713729382E-002
  0.14290000000000003          8.5410866886377335E-003
  0.14400000000000002          3.1178380595520139E-004
  0.14510000000000001         -6.6306414082646370E-003
  0.14620000000000000         -7.3380921967327595E-003
  0.14730000000000004         -2.1399157121777534E-003
  0.14840000000000003          3.8583111017942429E-003
  0.14950000000000002          5.3935395553708076E-003
  0.15060000000000001          1.4996923273429275E-003
  0.15170000000000000         -4.1475072503089905E-003
  0.15280000000000005         -6.8162279203534126E-003
  0.15390000000000004         -4.6943766064941883E-003
  0.15500000000000003          5.3308368660509586E-004
  0.15610000000000002          5.0337850116193295E-003
  0.15720000000000001          6.2042456120252609E-003
  0.15830000000000000          3.6799907684326172E-003
  0.15940000000000004         -5.0947623094543815E-004
  0.16050000000000003         -3.4158271737396717E-003
  0.16160000000000002         -3.4277627710253000E-003
  0.16270000000000001         -5.8207457186654210E-004
  0.16380000000000000          3.0429610051214695E-003
  0.16490000000000005          4.4887438416481018E-003
  0.16600000000000004          1.7839985666796565E-003
  0.16710000000000003         -3.7661020178347826E-003
  0.16820000000000002         -8.2420492544770241E-003
  0.16930000000000001         -7.4286735616624355E-003
  0.17040000000000000         -1.0050291894003749E-003
  0.17150000000000004          7.0033264346420765E-003
  0.17260000000000003          1.0577686131000519E-002
  0.17370000000000002          7.1747801266610622E-003
  0.17480000000000001         -3.6709159030579031E-004
  0.17590000000000000         -6.0200160369277000E-003
  0.17700000000000005         -5.9854374267160892E-003
  0.17810000000000004         -1.5625540399923921E-003
  0.17920000000000003          2.3284140042960644E-003
  0.18030000000000002          1.9509912235662341E-003
  0.18140000000000001         -1.9462951458990574E-003
  0.18250000000000000         -5.1688333041965961E-003
  0.18360000000000004         -4.1527794674038887E-003
  0.18470000000000003          8.2403235137462616E-004
  0.18580000000000002          6.0020899400115013E-003
  0.18690000000000001          7.5304643251001835E-003
  0.18800000000000000          4.6564228832721710E-003
  0.18910000000000005         -4.7452250146307051E-004
  0.19020000000000004         -4.6031242236495018E-003
  0.19130000000000003         -5.7878228835761547E-003
  0.19240000000000002         -3.8922359235584736E-003
  0.19350000000000001         -4.0967875975184143E-004
  0.19460000000000005          2.6649155188351870E-003
  0.19570000000000004          3.3738203346729279E-003
  0.19680000000000003          1.1618199059739709E-003
  0.19790000000000002         -2.4724823888391256E-003
  0.19900000000000001         -4.2095840908586979E-003
  0.20010000000000000         -1.7293617129325867E-003
  0.20120000000000005          3.9737699553370476E-003
  0.20230000000000004          8.1598944962024689E-003
  0.20340000000000003          6.2222070991992950E-003
  0.20450000000000002         -1.4831306179985404E-003
  0.20560000000000000         -9.0021686628460884E-003
  0.20670000000000005         -9.4514740630984306E-003
  0.20780000000000004         -1.7055227654054761E-003
  0.20890000000000003          7.5358101166784763E-003
