 -0.12000000000000000          0.0000000000000000
 -0.11889999999999999          0.0000000000000000
 -0.11780000000000000          0.0000000000000000
 -0.11670000000000000          0.0000000000000000
 -0.11559999999999999          1.7246712065961483E-015
 -0.11449999999999999         -2.1558390082451853E-016
 -0.11340000000000000         -1.2072698763810393E-014
 -0.11230000000000000          4.8290795055241573E-014
 -0.11119999999999999         -1.3797369652769186E-014
 -0.11009999999999999         -5.5189478611076745E-014
 -0.10900000000000000          5.5189478611076745E-014
 -0.10790000000000000          2.4835266222017482E-013
 -0.10679999999999999         -8.8303165777722792E-013
 -0.10569999999999999          2.2075791444430698E-013
 -0.10460000000000000          2.2075791715481241E-012
 -0.10349999999999999          2.8698527929083006E-012
 -0.10239999999999999         -4.4151583430962482E-012
 -0.10130000000000000         -7.0642532622178233E-012
 -0.10020000000000000          0.0000000000000000
  -9.9099999999999994E-002     8.8303165777722792E-013
  -9.7999999999999990E-002     1.0596379676486301E-011
  -9.6899999999999986E-002     7.0642532622178233E-012
  -9.5799999999999996E-002     2.8257013048871293E-011
  -9.4699999999999993E-002    -2.1192759352972601E-011
  -9.3599999999999989E-002    -2.8257013048871293E-011
  -9.2499999999999999E-002     0.0000000000000000
  -9.1399999999999995E-002    -4.2385518705945202E-011
  -9.0299999999999991E-002    -4.9449774136567370E-011
  -8.9200000000000002E-002     1.1302805219548517E-010
  -8.8099999999999984E-002     1.4128506697907994E-010
  -8.6999999999999994E-002     7.0642533489539971E-011
  -8.5899999999999990E-002    -2.4724886027449600E-010
  -8.4799999999999986E-002    -1.6954207482378081E-010
  -8.3699999999999997E-002    -8.4771037411890404E-011
  -8.2599999999999993E-002     2.8257013048871293E-011
  -8.1499999999999989E-002     1.6954207482378081E-010
  -8.0399999999999999E-002     2.8257013395815989E-010
  -7.9299999999999995E-002     2.5431312611345902E-010
  -7.8199999999999992E-002     4.8036924438221718E-010
  -7.7100000000000002E-002    -5.6514026791631977E-010
  -7.5999999999999984E-002    -6.7816829929512323E-010
  -7.4899999999999994E-002    -2.6844163003580945E-010
  -7.3799999999999991E-002     2.8257013395815989E-010
  -7.2699999999999987E-002     1.0737665201432378E-009
  -7.1599999999999997E-002     3.3908414964756162E-010
  -7.0499999999999993E-002    -2.0627619612412218E-009
  -6.9399999999999989E-002    -5.1427764269362797E-009
  -6.8300000000000000E-002    -2.7126731971804929E-009
  -6.7199999999999996E-002     6.3295710894806234E-009
  -6.6099999999999992E-002     1.6163012261927179E-008
  -6.5000000000000002E-002     1.0582251519508645E-008
  -6.3899999999999985E-002    -1.0511608472540956E-008
  -6.2799999999999995E-002    -3.1873909733803885E-008
  -6.1699999999999991E-002    -2.5883423404593486E-008
  -6.0599999999999994E-002     1.0172525044538361E-008
  -5.9499999999999990E-002     6.3295708230270975E-008
  -5.8399999999999994E-002     3.8881651676092588E-008
  -5.7299999999999990E-002    -4.2498548680214299E-008
  -5.6199999999999986E-002    -6.0583033700822853E-008
  -5.5099999999999996E-002     4.0011929769434573E-008
  -5.3999999999999992E-002     7.0981613475851191E-008
  -5.2899999999999989E-002    -3.7073199621318054E-008
  -5.1799999999999985E-002    -1.3744211457833444E-007
  -5.0699999999999995E-002    -7.5050628822737053E-008
  -4.9599999999999991E-002     8.0475970776205941E-008
  -4.8499999999999988E-002     1.3925055952768162E-007
  -4.7399999999999998E-002    -3.6168976702555256E-009
  -4.6299999999999994E-002    -7.0529502238514397E-008
  -4.5199999999999990E-002     4.3402771154887887E-008
  -4.4099999999999986E-002     5.9678814068320207E-007
  -4.2999999999999997E-002     7.2337954293288931E-008
  -4.1899999999999993E-002    -8.9699062755244086E-007
  -4.0799999999999989E-002    -6.2934020661487011E-007
  -3.9699999999999985E-002     4.3402771154887887E-008
  -3.8599999999999995E-002    -1.3744211457833444E-007
  -3.7499999999999992E-002     1.0850693570318981E-006
  -3.6399999999999988E-002     7.2337954293288931E-008
  -3.5299999999999984E-002    -1.2442128536349628E-006
  -3.4199999999999994E-002     5.7870363434631145E-007
  -3.3099999999999991E-002     1.5335646139646997E-006
  -3.1999999999999987E-002     4.2245364966220222E-006
  -3.0899999999999997E-002     4.1956013774324674E-006
  -2.9799999999999993E-002    -2.8935180580447195E-006
  -2.8699999999999989E-002    -1.1284721040283330E-005
  -2.7599999999999986E-002    -1.1111109415651299E-005
  -2.6499999999999996E-002    -9.2592580358541454E-007
  -2.5399999999999992E-002     9.1435176727827638E-006
  -2.4299999999999988E-002     9.8379614428267814E-006
  -2.3199999999999985E-002     5.5555547078256495E-006
  -2.2099999999999995E-002     3.4722218060778687E-006
  -2.0999999999999991E-002    -4.6296290179270727E-007
  -1.9899999999999987E-002     6.0185175243532285E-006
  -1.8799999999999983E-002     6.7129622038919479E-006
  -1.7699999999999994E-002    -3.9814811316318810E-005
  -1.6599999999999990E-002    -3.3796291972976178E-005
  -1.5499999999999986E-002     6.0185175243532285E-006
  -1.4399999999999996E-002     3.5648143239086494E-005
  -1.3299999999999992E-002     6.0185178881511092E-005
  -1.2199999999999989E-002     1.4814812857366633E-005
  -1.1099999999999985E-002    -3.1481478799832985E-005
  -9.9999999999999950E-003    -8.4259248978924006E-005
  -8.8999999999999913E-003    -3.1481478799832985E-005
  -7.7999999999999875E-003     6.1111102695576847E-005
  -6.6999999999999837E-003     1.2777776282746345E-004
  -5.5999999999999939E-003     6.3888881413731724E-005
  -4.4999999999999901E-003    -1.4351849677041173E-004
  -3.3999999999999864E-003    -2.0185182802379131E-004
  -2.2999999999999826E-003    -1.1111109779449180E-004
  -1.1999999999999927E-003     1.6481478814966977E-004
  -9.9999999999988987E-005     2.7407403104007244E-004
   1.0000000000000148E-003     1.4814813039265573E-004
   2.1000000000000185E-003    -9.8148135293740779E-005
   3.2000000000000084E-003    -2.7592587866820395E-004
   4.3000000000000121E-003    -1.9629627058748156E-004
   5.4000000000000159E-003     5.1851846365025267E-005
   6.5000000000000058E-003     3.5555550130084157E-004
   7.6000000000000234E-003     3.5555550130084157E-004
   8.7000000000000133E-003    -7.0370362664107233E-005
   9.8000000000000032E-003    -4.0740735130384564E-004
   1.0900000000000021E-002    -6.4074067631736398E-004
   1.2000000000000011E-002    -2.3703700571786612E-004
   1.3100000000000001E-002     2.7037033578380942E-004
   1.4200000000000018E-002     7.5925915734842420E-004
   1.5300000000000008E-002     4.5185178169049323E-004
   1.6400000000000026E-002    -2.1111108071636409E-004
   1.7500000000000016E-002    -4.0370365604758263E-004
   1.8600000000000005E-002    -1.8888886552304029E-004
   1.9700000000000023E-002     4.0740735130384564E-005
   2.0800000000000013E-002     0.0000000000000000
   2.1900000000000003E-002     1.4814812857366633E-005
   2.3000000000000020E-002     3.9444438880309463E-004
   2.4100000000000010E-002    -4.1666662582429126E-005
   2.5200000000000000E-002    -1.0138887591892853E-004
   2.6300000000000018E-002     1.5439813432749361E-004
   2.7400000000000008E-002    -1.6388886433560401E-004
   2.8500000000000025E-002    -2.1296292834449559E-004
   2.9600000000000015E-002     3.4814811078831553E-004
   3.0700000000000005E-002    -2.6296291616745293E-004
   3.1800000000000023E-002    -4.4444437662605196E-005
   3.2900000000000013E-002    -8.1481470260769129E-005
   3.4000000000000002E-002     2.4444441078230739E-004
   3.5100000000000020E-002    -8.9629617286846042E-004
   3.6200000000000010E-002    -6.6666660131886601E-005
   3.7300000000000028E-002     1.2740739621222019E-003
   3.8400000000000017E-002     1.8814812647178769E-003
   3.9500000000000007E-002     4.4444439117796719E-004
   4.0600000000000025E-002    -2.8296292293816805E-003
   4.1700000000000015E-002    -4.1481475345790386E-003
   4.2800000000000005E-002    -1.7333331052213907E-003
   4.3900000000000022E-002     2.4740737862884998E-003
   4.5000000000000012E-002     4.6370364725589752E-003
   4.6100000000000002E-002     3.9259255863726139E-003
   4.7200000000000020E-002    -2.9629625714733265E-005
   4.8300000000000010E-002    -3.6148142535239458E-003
   4.9400000000000027E-002    -3.3481477294117212E-003
   5.0500000000000017E-002     3.8518512155860662E-004
   5.1600000000000007E-002     2.9925922863185406E-003
   5.2700000000000025E-002     1.7185183241963387E-003
   5.3800000000000014E-002    -2.4888885673135519E-003
   5.4900000000000004E-002    -4.7703697346150875E-003
   5.6000000000000022E-002    -2.1333331242203712E-003
   5.7100000000000012E-002     2.9925922863185406E-003
   5.8200000000000002E-002     6.5777767449617386E-003
   5.9300000000000019E-002     4.5481473207473755E-003
   6.0400000000000009E-002    -1.2296295026317239E-003
   6.1500000000000027E-002    -5.4962956346571445E-003
   6.2600000000000017E-002    -4.4296290725469589E-003
   6.3700000000000007E-002    -6.5185176208615303E-004
   6.4800000000000024E-002     2.5629627052694559E-003
   6.5900000000000014E-002     2.2148145362734795E-003
   6.7000000000000004E-002    -1.2888887431472540E-003
   6.8100000000000022E-002    -2.3703700862824917E-003
   6.9200000000000012E-002    -1.0937498882412910E-003
   7.0300000000000029E-002     2.0296294242143631E-003
   7.1400000000000019E-002     5.1481476984918118E-003
   7.2500000000000009E-002     3.2962958794087172E-003
   7.3600000000000027E-002    -1.6148146241903305E-003
   7.4700000000000016E-002    -5.7333325967192650E-003
   7.5800000000000006E-002    -4.4740736484527588E-003
   7.6900000000000024E-002    -1.1851850431412458E-003
   7.8000000000000014E-002     3.7037031725049019E-003
   7.9100000000000004E-002     4.4148140586912632E-003
   8.0200000000000021E-002     1.7185183241963387E-003
   8.1300000000000011E-002    -2.5185181293636560E-003
   8.2400000000000029E-002    -2.6666664052754641E-003
   8.3500000000000019E-002     8.2962954184040427E-004
   8.4600000000000009E-002     3.8814810104668140E-003
   8.5700000000000026E-002     2.0148146431893110E-003
   8.6800000000000016E-002    -1.8962960457429290E-003
   8.7900000000000006E-002    -6.5777767449617386E-003
   8.9000000000000024E-002    -4.0592588484287262E-003
   9.0100000000000013E-002     3.2592588104307652E-003
   9.1200000000000003E-002     9.3037020415067673E-003
   9.2300000000000021E-002     4.9481475725769997E-003
   9.3400000000000011E-002    -3.8518514484167099E-003
   9.4500000000000028E-002    -1.0844442993402481E-002
   9.5600000000000018E-002    -7.1407398208975792E-003
   9.6700000000000008E-002     1.8370368052273989E-003
   9.7800000000000026E-002     8.2962950691580772E-003
   9.8900000000000016E-002     7.2592580690979958E-003
  0.10000000000000001          8.8888878235593438E-004
  0.10110000000000002         -3.2592588104307652E-003
  0.10220000000000001         -2.9037033673375845E-003
  0.10330000000000003          1.4814812457188964E-003
  0.10440000000000002          4.2666662484407425E-003
  0.10550000000000001          2.0740737672895193E-003
  0.10660000000000003         -5.5999993346631527E-003
  0.10770000000000002         -9.4518503174185753E-003
  0.10880000000000001         -5.5259251967072487E-003
  0.10990000000000003          4.1333329863846302E-003
  0.11100000000000002          1.0181480087339878E-002
  0.11210000000000001          7.0384251885116100E-003
  0.11320000000000002         -2.1759255323559046E-003
  0.11430000000000001         -8.8851843029260635E-003
  0.11540000000000003         -6.9851842708885670E-003
  0.11650000000000002          9.2592579312622547E-004
  0.11760000000000001          7.8074065968394279E-003
  0.11870000000000003          7.3333322070538998E-003
  0.11980000000000002          1.0074073215946555E-003
  0.12090000000000001         -5.4370365105569363E-003
  0.12200000000000003         -6.9333324208855629E-003
  0.12310000000000001         -2.7851848863065243E-003
  0.12420000000000003          3.3037031535059214E-003
  0.12530000000000002          5.5111101828515530E-003
  0.12640000000000001          3.4518514294177294E-003
  0.12750000000000003         -1.0518516646698117E-003
  0.12860000000000002         -3.3185181673616171E-003
  0.12970000000000001         -1.5999998431652784E-003
  0.13080000000000003          2.0148146431893110E-003
  0.13190000000000002          3.7037031725049019E-003
  0.13300000000000001          1.7481478862464428E-003
  0.13410000000000000         -2.5333329103887081E-003
  0.13520000000000004         -6.7111100070178509E-003
  0.13630000000000003         -7.3777767829596996E-003
  0.13740000000000002         -3.6148142535239458E-003
  0.13850000000000001          3.3925920724868774E-003
  0.13960000000000000          9.6444431692361832E-003
  0.14070000000000005          1.0251850821077824E-002
  0.14180000000000004          4.7259251587092876E-003
  0.14290000000000003         -3.0222218483686447E-003
  0.14400000000000002         -8.2518504932522774E-003
  0.14510000000000001         -7.3925917968153954E-003
  0.14620000000000000         -1.8370368052273989E-003
  0.14730000000000004          2.5925922673195601E-003
  0.14840000000000003          3.0518514104187489E-003
  0.14950000000000002         -3.3333330065943301E-004
  0.15060000000000001         -3.1777773983776569E-003
  0.15170000000000000         -1.8444441957399249E-003
  0.15280000000000005          2.3592589423060417E-003
  0.15390000000000004          5.1999990828335285E-003
  0.15500000000000003          4.4925920665264130E-003
  0.15610000000000002          7.2962953709065914E-004
  0.15720000000000001         -2.1870366763323545E-003
  0.15830000000000000         -2.5351848453283310E-003
  0.15940000000000004         -1.3018517056480050E-003
  0.16050000000000003         -6.6666660131886601E-004
  0.16160000000000002         -1.5626010717824101E-003
  0.16270000000000001         -2.7421293780207634E-003
  0.16380000000000000         -1.5185183146968484E-003
  0.16490000000000005          1.6749998321756721E-003
  0.16600000000000004          3.6527772899717093E-003
  0.16710000000000003          2.6166662573814392E-003
  0.16820000000000002         -5.4074067156761885E-004
  0.16930000000000001         -1.9703700672835112E-003
  0.17040000000000000          8.3333325164858252E-005
  0.17150000000000004          3.2611107453703880E-003
  0.17260000000000003          3.3370365854352713E-003
  0.17370000000000002         -1.3462961651384830E-003
  0.17480000000000001         -6.4240731298923492E-003
  0.17590000000000000         -6.7314803600311279E-003
  0.17700000000000005         -7.1111100260168314E-004
  0.17810000000000004          6.7018507979810238E-003
  0.17920000000000003          8.1240730360150337E-003
  0.18030000000000002          1.6370367957279086E-003
  0.18140000000000001         -6.6166659817099571E-003
  0.18250000000000000         -8.6333323270082474E-003
  0.18360000000000004         -1.7351849237456918E-003
  0.18470000000000003          7.9055549576878548E-003
  0.18580000000000002          1.1181480251252651E-002
  0.18690000000000001          4.5592584647238255E-003
  0.18800000000000000         -6.3611101359128952E-003
  0.18910000000000005         -1.1877776123583317E-002
  0.19020000000000004         -7.3333322070538998E-003
  0.19130000000000003          2.6388885453343391E-003
  0.19240000000000002          8.6675910279154778E-003
  0.19350000000000001          5.3203697316348553E-003
  0.19460000000000005         -2.9388885013759136E-003
  0.19570000000000004         -7.3703695088624954E-003
  0.19680000000000003         -3.2509255688637495E-003
  0.19790000000000002          5.5453698150813580E-003
  0.19900000000000001          1.0256480425596237E-002
  0.20010000000000000          5.9666656889021397E-003
  0.20120000000000005         -4.1342587210237980E-003
  0.20230000000000004         -1.1481479741632938E-002
  0.20340000000000003         -9.9648134782910347E-003
  0.20450000000000002         -1.0175924981012940E-003
  0.20560000000000000          7.9537024721503258E-003
  0.20670000000000005          1.0301850736141205E-002
  0.20780000000000004          5.1300916820764542E-003
  0.20890000000000003         -2.7999996673315763E-003
