 -0.12000000000000000          0.0000000000000000
 -0.11889999999999999          0.0000000000000000
 -0.11780000000000000          0.0000000000000000
 -0.11670000000000000          0.0000000000000000
 -0.11559999999999999          0.0000000000000000
 -0.11449999999999999          0.0000000000000000
 -0.11340000000000000          0.0000000000000000
 -0.11230000000000000          0.0000000000000000
 -0.11119999999999999          0.0000000000000000
 -0.11009999999999999          0.0000000000000000
 -0.10900000000000000         -1.3681443133366160E-022
 -0.10790000000000000         -6.1395981499939835E-022
 -0.10679999999999999          2.3942559057310906E-021
 -0.10569999999999999          2.1034834623356966E-020
 -0.10460000000000000          2.1566023517109525E-020
 -0.10349999999999999         -2.2026749547369637E-019
 -0.10239999999999999         -8.2446192837350730E-019
 -0.10130000000000000          3.0053778712478694E-020
 -0.10020000000000000          7.2992940152547449E-018
  -9.9099999999999994E-002     1.8444759503199354E-017
  -9.7999999999999990E-002    -4.9228673947067567E-018
  -9.6899999999999986E-002    -1.3023328763892900E-016
  -9.5799999999999996E-002    -2.8734973342759459E-016
  -9.4699999999999993E-002     2.1403323165227968E-017
  -9.3599999999999989E-002     1.4985439028653512E-015
  -9.2499999999999999E-002     3.3372513669085828E-015
  -9.1399999999999995E-002     8.7091064721872146E-016
  -9.0299999999999991E-002    -1.2080774375929516E-014
  -8.9200000000000002E-002    -2.9863549242011012E-014
  -8.8099999999999984E-002    -1.8414291291335254E-014
  -8.6999999999999994E-002     6.9296917379682577E-014
  -8.5899999999999990E-002     2.0931112474763952E-013
  -8.4799999999999986E-002     2.0174545356781842E-013
  -8.3699999999999997E-002    -2.6064971036555973E-013
  -8.2599999999999993E-002    -1.1531925588059710E-012
  -8.1499999999999989E-002    -1.5255110542844452E-012
  -8.0399999999999999E-002     3.2595771242739657E-013
  -7.9299999999999995E-002     4.9272296312463659E-012
  -7.8199999999999992E-002     8.6686924999357373E-012
  -7.7100000000000002E-002     3.5987627808320433E-012
  -7.5999999999999984E-002    -1.5483144280570293E-011
  -7.4899999999999994E-002    -3.8212211173060950E-011
  -7.3799999999999991E-002    -3.3572311597396265E-011
  -7.2699999999999987E-002     2.8813748262357386E-011
  -7.1599999999999997E-002     1.3082836203270887E-010
  -7.0499999999999993E-002     1.7261841955829027E-010
  -6.9399999999999989E-002     2.1561530338942703E-011
  -6.8300000000000000E-002    -3.3484590100663070E-010
  -6.7199999999999996E-002    -6.3861949062271606E-010
  -6.6099999999999992E-002    -4.2859160664932006E-010
  -6.5000000000000002E-002     5.4630833190572048E-010
  -6.3899999999999985E-002     1.7901781168561115E-009
  -6.2799999999999995E-002     1.9986614585576490E-009
  -6.1699999999999991E-002    -1.5525705721053384E-011
  -6.0599999999999994E-002    -3.7397032137675978E-009
  -5.9499999999999990E-002    -6.1735976331078746E-009
  -5.8399999999999994E-002    -3.4634801693300687E-009
  -5.7299999999999990E-002     5.1644999388145152E-009
  -5.6199999999999986E-002     1.4221372524048093E-008
  -5.5099999999999996E-002     1.3885738781027612E-008
  -5.3999999999999992E-002    -1.6702806915347423E-009
  -5.2899999999999989E-002    -2.5029279981936270E-008
  -5.1799999999999985E-002    -3.5526937836038996E-008
  -5.0699999999999995E-002    -1.4347466326114500E-008
  -4.9599999999999991E-002     3.3375091135212642E-008
  -4.8499999999999988E-002     7.0533559437535587E-008
  -4.7399999999999998E-002     5.1406239265361364E-008
  -4.6299999999999994E-002    -3.2274051875447185E-008
  -4.5199999999999990E-002    -1.2197315868434089E-007
  -4.4099999999999986E-002    -1.2192724341275607E-007
  -4.2999999999999997E-002     1.3916449326245584E-008
  -4.1899999999999993E-002     2.0452641535939620E-007
  -4.0799999999999989E-002     2.6528056196184480E-007
  -3.9699999999999985E-002     5.8376635081458517E-008
  -3.8599999999999995E-002    -3.3104470276157372E-007
  -3.7499999999999992E-002    -5.7299968148072367E-007
  -3.6399999999999988E-002    -3.2487230328115402E-007
  -3.5299999999999984E-002     4.0901596776166116E-007
  -3.4199999999999994E-002     1.1127399375254754E-006
  -3.3099999999999991E-002     1.0516154134165845E-006
  -3.1999999999999987E-002    -7.8042752704732266E-008
  -3.0899999999999997E-002    -1.6556367654629867E-006
  -2.9799999999999993E-002    -2.3641998723178403E-006
  -2.8699999999999989E-002    -1.1966213833147776E-006
  -2.7599999999999986E-002     1.4627966038460727E-006
  -2.6499999999999996E-002     3.7159186376811704E-006
  -2.5399999999999992E-002     3.4356392006884562E-006
  -2.4299999999999988E-002     1.7504741833818116E-007
  -2.3199999999999985E-002    -3.9413971535395831E-006
  -2.2099999999999995E-002    -5.5000377869873773E-006
  -2.0999999999999991E-002    -2.6411992166686105E-006
  -1.9899999999999987E-002     2.8355736958474154E-006
  -1.8799999999999983E-002     6.3232300817617215E-006
  -1.7699999999999994E-002     4.1662865442049224E-006
  -1.6599999999999990E-002    -2.5604333586670691E-006
  -1.5499999999999986E-002    -7.9248156907851808E-006
  -1.4399999999999996E-002    -5.7507913879817352E-006
  -1.3299999999999992E-002     4.2570081859594211E-006
  -1.2199999999999989E-002     1.4421466403291561E-005
  -1.1099999999999985E-002     1.4156042198010255E-005
  -9.9999999999999950E-003    -7.0523321937798755E-007
  -8.8999999999999913E-003    -2.1952870156383142E-005
  -7.7999999999999875E-003    -3.2804375223349780E-005
  -6.6999999999999837E-003    -2.0409845092217438E-005
  -5.5999999999999939E-003     1.2067982424923684E-005
  -4.4999999999999901E-003     4.4425556552596390E-005
  -3.3999999999999864E-003     5.2425060857785866E-005
  -2.2999999999999826E-003     2.6264560801791959E-005
  -1.1999999999999927E-003    -1.9970804714830592E-005
  -9.9999999999988987E-005    -5.6680510169826448E-005
   1.0000000000000148E-003    -5.9911810240009800E-005
   2.1000000000000185E-003    -2.9247028578538448E-005
   3.2000000000000084E-003     1.2183965736767277E-005
   4.3000000000000121E-003     3.6320143408374861E-005
   5.4000000000000159E-003     3.2697367714717984E-005
   6.5000000000000058E-003     1.6070003766799346E-005
   7.6000000000000234E-003     1.1858027392008808E-005
   8.7000000000000133E-003     3.0709692509844899E-005
   9.8000000000000032E-003     5.3944426326779649E-005
   1.0900000000000021E-002     4.4678490667138249E-005
   1.2000000000000011E-002    -2.0631152437999845E-005
   1.3100000000000001E-002    -1.2352490739431232E-004
   1.4200000000000018E-002    -2.0258722361177206E-004
   1.5300000000000008E-002    -1.8734266632236540E-004
   1.6400000000000026E-002    -4.8679317842470482E-005
   1.7500000000000016E-002     1.6797901480458677E-004
   1.8600000000000005E-002     3.5394882434047759E-004
   1.9700000000000023E-002     3.9367715362459421E-004
   2.0800000000000013E-002     2.3606988543178886E-004
   2.1900000000000003E-002    -6.4221436332445592E-005
   2.3000000000000020E-002    -3.6687089595943689E-004
   2.4100000000000010E-002    -5.2143639186397195E-004
   2.5200000000000000E-002    -4.5402758405543864E-004
   2.6300000000000018E-002    -2.0833052985835820E-004
   2.7400000000000008E-002     8.8569235231261700E-005
   2.8500000000000025E-002     3.1260473770089447E-004
   2.9600000000000015E-002     4.1768324445001781E-004
   3.0700000000000005E-002     4.4112515752203763E-004
   3.1800000000000023E-002     4.3592133442871273E-004
   3.2900000000000013E-002     3.9039645344018936E-004
   3.4000000000000002E-002     2.1524858311749995E-004
   3.5100000000000020E-002    -1.7256829596590251E-004
   3.6200000000000010E-002    -7.2718324372544885E-004
   3.7300000000000028E-002    -1.2225271202623844E-003
   3.8400000000000017E-002    -1.3452578568831086E-003
   3.9500000000000007E-002    -8.9444476179778576E-004
   4.0600000000000025E-002     4.8630547098582610E-005
   4.1700000000000015E-002     1.1178128188475966E-003
   4.2800000000000005E-002     1.8512851092964411E-003
   4.3900000000000022E-002     1.9525279058143497E-003
   4.5000000000000012E-002     1.4419228537008166E-003
   4.6100000000000002E-002     5.9654284268617630E-004
   4.7200000000000020E-002    -2.6355384034104645E-004
   4.8300000000000010E-002    -9.6986815333366394E-004
   4.9400000000000027E-002    -1.5341604594141245E-003
   5.0500000000000017E-002    -2.0099610555917025E-003
   5.1600000000000007E-002    -2.3289050441235304E-003
   5.2700000000000025E-002    -2.2745807655155659E-003
   5.3800000000000014E-002    -1.6362948808819056E-003
   5.4900000000000004E-002    -4.2375325574539602E-004
   5.6000000000000022E-002     1.0444315848872066E-003
   5.7100000000000012E-002     2.2808944340795279E-003
   5.8200000000000002E-002     2.9272267129272223E-003
   5.9300000000000019E-002     3.0088401399552822E-003
   6.0400000000000009E-002     2.9606244061142206E-003
   6.1500000000000027E-002     3.3867575693875551E-003
   6.2600000000000017E-002     4.6994904987514019E-003
   6.3700000000000007E-002     6.8720029667019844E-003
   6.4800000000000024E-002     9.4764186069369316E-003
   6.5900000000000014E-002     1.1996723711490631E-002
   6.7000000000000004E-002     1.4218376949429512E-002
   6.8100000000000022E-002     1.6427123919129372E-002
   6.9200000000000012E-002     1.9259154796600342E-002
   7.0300000000000029E-002     2.3287329822778702E-002
   7.1400000000000019E-002     2.8644252568483353E-002
   7.2500000000000009E-002     3.5004843026399612E-002
   7.3600000000000027E-002     4.2019110172986984E-002
   7.4700000000000016E-002     4.9928855150938034E-002
   7.5800000000000006E-002     5.9881925582885742E-002
   7.6900000000000024E-002     7.3603518307209015E-002
   7.8000000000000014E-002     9.2536211013793945E-002
   7.9100000000000004E-002    0.11701826006174088
   8.0200000000000021E-002    0.14615206420421600
   8.1300000000000011E-002    0.17858904600143433
   8.2400000000000029E-002    0.21378003060817719
   8.3500000000000019E-002    0.25285330414772034
   8.4600000000000009E-002    0.29848989844322205
   8.5700000000000026E-002    0.35386928915977478
   8.6800000000000016E-002    0.42144092917442322
   8.7900000000000006E-002    0.50236254930496216
   8.9000000000000024E-002    0.59699958562850952
   9.0100000000000013E-002    0.70600509643554688
   9.1200000000000003E-002    0.83118844032287598
   9.2300000000000021E-002    0.97549098730087280
   9.3400000000000011E-002     1.1422047615051270
   9.4500000000000028E-002     1.3340619802474976
   9.5600000000000018E-002     1.5528569221496582
   9.6700000000000008E-002     1.7999480962753296
   9.7800000000000026E-002     2.0770890712738037
   9.8900000000000016E-002     2.3871302604675293
  0.10000000000000001          2.7339210510253906
  0.10110000000000002          3.1217496395111084
  0.10220000000000001          3.5542199611663818
  0.10330000000000003          4.0337677001953125
  0.10440000000000002          4.5618190765380859
  0.10550000000000001          5.1392946243286133
  0.10660000000000003          5.7674760818481445
  0.10770000000000002          6.4481067657470703
  0.10880000000000001          7.1827516555786133
  0.10990000000000003          7.9715480804443359
  0.11100000000000002          8.8122510910034180
  0.11210000000000001          9.7005300521850586
  0.11320000000000002          10.630949974060059
  0.11430000000000001          11.597900390625000
  0.11540000000000003          12.595627784729004
  0.11650000000000002          13.617850303649902
  0.11760000000000001          14.656007766723633
  0.11870000000000003          15.698045730590820
  0.11980000000000002          16.728609085083008
  0.12090000000000001          17.727741241455078
  0.12200000000000003          18.677078247070312
  0.12310000000000001          19.556434631347656
  0.12420000000000003          20.346197128295898
  0.12530000000000002          21.025753021240234
  0.12640000000000001          21.570423126220703
  0.12750000000000003          21.952545166015625
  0.12860000000000002          22.143064498901367
  0.12970000000000001          22.110834121704102
  0.13080000000000003          21.830448150634766
  0.13190000000000002          21.275167465209961
  0.13300000000000001          20.419109344482422
  0.13410000000000000          19.238597869873047
  0.13520000000000004          17.711923599243164
  0.13630000000000003          15.818035125732422
  0.13740000000000002          13.541983604431152
  0.13850000000000001          10.869843482971191
  0.13960000000000000          7.7986803054809570
  0.14070000000000005          4.3253622055053711
  0.14180000000000004         0.45501476526260376
  0.14290000000000003         -3.7982809543609619
  0.14400000000000002         -8.4097843170166016
  0.14510000000000001         -13.352620124816895
  0.14620000000000000         -18.594781875610352
  0.14730000000000004         -24.090337753295898
  0.14840000000000003         -29.787588119506836
  0.14950000000000002         -35.622100830078125
  0.15060000000000001         -41.527889251708984
  0.15170000000000000         -47.437488555908203
  0.15280000000000005         -53.265666961669922
  0.15390000000000004         -58.931404113769531
  0.15500000000000003         -64.348266601562500
  0.15610000000000002         -69.424964904785156
  0.15720000000000001         -74.068435668945312
  0.15830000000000000         -78.192481994628906
  0.15940000000000004         -81.711059570312500
  0.16050000000000003         -84.543296813964844
  0.16160000000000002         -86.610336303710938
  0.16270000000000001         -87.844032287597656
  0.16380000000000000         -88.182228088378906
  0.16490000000000005         -87.583778381347656
  0.16600000000000004         -86.016372680664062
  0.16710000000000003         -83.457572937011719
  0.16820000000000002         -79.897735595703125
  0.16930000000000001         -75.344718933105469
  0.17040000000000000         -69.822540283203125
  0.17150000000000004         -63.375370025634766
  0.17260000000000003         -56.062156677246094
  0.17370000000000002         -47.953830718994141
  0.17480000000000001         -39.134185791015625
  0.17590000000000000         -29.706455230712891
  0.17700000000000005         -19.785655975341797
  0.17810000000000004         -9.4950208663940430
  0.17920000000000003          1.0368887186050415
  0.18030000000000002          11.680116653442383
  0.18140000000000001          22.297922134399414
  0.18250000000000000          32.750186920166016
  0.18360000000000004          42.892883300781250
  0.18470000000000003          52.588985443115234
  0.18580000000000002          61.709888458251953
  0.18690000000000001          70.137306213378906
  0.18800000000000000          77.770980834960938
  0.18910000000000005          84.513992309570312
  0.19020000000000004          90.282905578613281
  0.19130000000000003          95.006317138671875
  0.19240000000000002          98.633712768554688
  0.19350000000000001          101.15063476562500
  0.19460000000000005          102.54075622558594
  0.19570000000000004          102.80168914794922
  0.19680000000000003          101.95568084716797
  0.19790000000000002          100.04292297363281
  0.19900000000000001          97.110527038574219
  0.20010000000000000          93.235618591308594
  0.20120000000000005          88.500106811523438
  0.20230000000000004          82.993232727050781
  0.20340000000000003          76.810401916503906
  0.20450000000000002          70.061470031738281
  0.20560000000000000          62.854301452636719
  0.20670000000000005          55.298480987548828
  0.20780000000000004          47.511505126953125
  0.20890000000000003          39.604232788085938
