 -0.12000000000000000          0.0000000000000000
 -0.11889999999999999          0.0000000000000000
 -0.11780000000000000          0.0000000000000000
 -0.11670000000000000          0.0000000000000000
 -0.11559999999999999         -2.8052721972926520E-005
 -0.11449999999999999         -1.3418174057733268E-004
 -0.11340000000000000         -2.6939719100482762E-004
 -0.11230000000000000         -1.9844218331854790E-004
 -0.11119999999999999          2.5098546757362783E-004
 -0.11009999999999999          6.7790603497996926E-004
 -0.10900000000000000          2.9705242923228070E-005
 -0.10790000000000000         -2.4523700121790171E-003
 -0.10679999999999999         -5.7863392867147923E-003
 -0.10569999999999999         -6.8259425461292267E-003
 -0.10460000000000000         -1.9680138211697340E-003
 -0.10349999999999999          9.4938725233078003E-003
 -0.10239999999999999          2.2214813157916069E-002
 -0.10130000000000000          2.4289399385452271E-002
 -0.10020000000000000          2.1714286413043737E-003
  -9.9099999999999994E-002    -4.7304645180702209E-002
  -9.7999999999999990E-002   -0.10206773877143860
  -9.6899999999999986E-002   -0.11164806783199310
  -9.5799999999999996E-002    -2.3765979334712029E-002
  -9.4699999999999993E-002    0.15973052382469177
  -9.3599999999999989E-002    0.33630591630935669
  -9.2499999999999999E-002    0.32851207256317139
  -9.1399999999999995E-002     1.0747865773737431E-002
  -9.0299999999999991E-002   -0.52906990051269531
  -8.9200000000000002E-002   -0.94152438640594482
  -8.8099999999999984E-002   -0.79746305942535400
  -8.6999999999999994E-002     5.8907605707645416E-002
  -8.5899999999999990E-002     1.2423698902130127
  -8.4799999999999986E-002     1.9281510114669800
  -8.3699999999999997E-002     1.3694490194320679
  -8.2599999999999993E-002   -0.47861441969871521
  -8.1499999999999989E-002    -2.7120831012725830
  -8.0399999999999999E-002    -3.8832256793975830
  -7.9299999999999995E-002    -2.8615667819976807
  -7.8199999999999992E-002    0.40210524201393127
  -7.7100000000000002E-002     4.6992526054382324
  -7.5999999999999984E-002     8.0415878295898438
  -7.4899999999999994E-002     8.4539489746093750
  -7.3799999999999991E-002     4.6844439506530762
  -7.2699999999999987E-002    -3.3177118301391602
  -7.1599999999999997E-002    -14.103864669799805
  -7.0499999999999993E-002    -24.647506713867188
  -6.9399999999999989E-002    -30.746950149536133
  -6.8300000000000000E-002    -28.097307205200195
  -6.7199999999999996E-002    -13.699607849121094
  -6.6099999999999992E-002     13.271851539611816
  -6.5000000000000002E-002     51.931713104248047
  -6.3899999999999985E-002     101.35329437255859
  -6.2799999999999995E-002     162.26319885253906
  -6.1699999999999991E-002     237.38450622558594
  -6.0599999999999994E-002     330.09432983398438
  -5.9499999999999990E-002     442.55346679687500
  -5.8399999999999994E-002     575.07067871093750
  -5.7299999999999990E-002     727.54309082031250
  -5.6199999999999986E-002     902.12298583984375
  -5.5099999999999996E-002     1105.3087158203125
  -5.3999999999999992E-002     1348.2768554687500
  -5.2899999999999989E-002     1645.8166503906250
  -5.1799999999999985E-002     2015.1926269531250
  -5.0699999999999995E-002     2475.8063964843750
  -4.9599999999999991E-002     3049.3222656250000
  -4.8499999999999988E-002     3759.3757324218750
  -4.7399999999999998E-002     4630.7553710937500
  -4.6299999999999994E-002     5689.1547851562500
  -4.5199999999999990E-002     6962.7495117187500
  -4.4099999999999986E-002     8485.5292968750000
  -4.2999999999999997E-002     10300.740234375000
  -4.1899999999999993E-002     12462.638671875000
  -4.0799999999999989E-002     15036.196289062500
  -3.9699999999999985E-002     18096.242187500000
  -3.8599999999999995E-002     21727.500000000000
  -3.7499999999999992E-002     26025.630859375000
  -3.6399999999999988E-002     31097.789062500000
  -3.5299999999999984E-002     37061.750000000000
  -3.4199999999999994E-002     44044.703125000000
  -3.3099999999999991E-002     52184.195312500000
  -3.1999999999999987E-002     61632.675781250000
  -3.0899999999999997E-002     72563.695312500000
  -2.9799999999999993E-002     85175.953125000000
  -2.8699999999999989E-002     99692.570312500000
  -2.7599999999999986E-002     116356.46875000000
  -2.6499999999999996E-002     135425.09375000000
  -2.5399999999999992E-002     157168.26562500000
  -2.4299999999999988E-002     181868.26562500000
  -2.3199999999999985E-002     209819.76562500000
  -2.2099999999999995E-002     241328.23437500000
  -2.0999999999999991E-002     276707.81250000000
  -1.9899999999999987E-002     316280.59375000000
  -1.8799999999999983E-002     360377.15625000000
  -1.7699999999999994E-002     409334.25000000000
  -1.6599999999999990E-002     463486.43750000000
  -1.5499999999999986E-002     523151.50000000000
  -1.4399999999999996E-002     588615.06250000000
  -1.3299999999999992E-002     660122.50000000000
  -1.2199999999999989E-002     737874.56250000000
  -1.1099999999999985E-002     822026.25000000000
  -9.9999999999999950E-003     912674.68750000000
  -8.8999999999999913E-003     1009842.8750000000
  -7.7999999999999875E-003     1113460.0000000000
  -6.6999999999999837E-003     1223348.0000000000
  -5.5999999999999939E-003     1339218.6250000000
  -4.4999999999999901E-003     1460668.1250000000
  -3.3999999999999864E-003     1587164.7500000000
  -2.2999999999999826E-003     1718026.5000000000
  -1.1999999999999927E-003     1852399.2500000000
  -9.9999999999988987E-005     1989246.8750000000
   1.0000000000000148E-003     2127356.0000000000
   2.1000000000000185E-003     2265344.7500000000
   3.2000000000000084E-003     2401662.2500000000
   4.3000000000000121E-003     2534578.2500000000
   5.4000000000000159E-003     2662175.7500000000
   6.5000000000000058E-003     2782360.5000000000
   7.6000000000000234E-003     2892886.7500000000
   8.7000000000000133E-003     2991388.2500000000
   9.8000000000000032E-003     3075412.0000000000
   1.0900000000000021E-002     3142419.5000000000
   1.2000000000000011E-002     3189814.0000000000
   1.3100000000000001E-002     3214959.2500000000
   1.4200000000000018E-002     3215245.2500000000
   1.5300000000000008E-002     3188135.0000000000
   1.6400000000000026E-002     3131236.5000000000
   1.7500000000000016E-002     3042329.7500000000
   1.8600000000000005E-002     2919404.5000000000
   1.9700000000000023E-002     2760714.7500000000
   2.0800000000000013E-002     2564834.7500000000
   2.1900000000000003E-002     2330738.5000000000
   2.3000000000000020E-002     2057848.8750000000
   2.4100000000000010E-002     1746066.1250000000
   2.5200000000000000E-002     1395799.5000000000
   2.6300000000000018E-002     1007986.6250000000
   2.7400000000000008E-002     584129.37500000000
   2.8500000000000025E-002     126340.06250000000
   2.9600000000000015E-002    -362650.06250000000
   3.0700000000000005E-002    -879512.93750000000
   3.1800000000000023E-002    -1420333.3750000000
   3.2900000000000013E-002    -1980656.6250000000
   3.4000000000000002E-002    -2555498.5000000000
   3.5100000000000020E-002    -3139388.7500000000
   3.6200000000000010E-002    -3726422.2500000000
   3.7300000000000028E-002    -4310349.5000000000
   3.8400000000000017E-002    -4884672.5000000000
   3.9500000000000007E-002    -5442737.5000000000
   4.0600000000000025E-002    -5977812.5000000000
   4.1700000000000015E-002    -6483186.5000000000
   4.2800000000000005E-002    -6952252.5000000000
   4.3900000000000022E-002    -7378662.5000000000
   4.5000000000000012E-002    -7756433.0000000000
   4.6100000000000002E-002    -8080050.5000000000
   4.7200000000000020E-002    -8344555.5000000000
   4.8300000000000010E-002    -8545619.0000000000
   4.9400000000000027E-002    -8679628.0000000000
   5.0500000000000017E-002    -8743784.0000000000
   5.1600000000000007E-002    -8736173.0000000000
   5.2700000000000025E-002    -8655823.0000000000
   5.3800000000000014E-002    -8502695.0000000000
   5.4900000000000004E-002    -8277687.0000000000
   5.6000000000000022E-002    -7982640.5000000000
   5.7100000000000012E-002    -7620320.0000000000
   5.8200000000000002E-002    -7194418.5000000000
   5.9300000000000019E-002    -6709492.5000000000
   6.0400000000000009E-002    -6170849.5000000000
   6.1500000000000027E-002    -5584481.5000000000
   6.2600000000000017E-002    -4956940.0000000000
   6.3700000000000007E-002    -4295266.5000000000
   6.4800000000000024E-002    -3606888.2500000000
   6.5900000000000014E-002    -2899535.5000000000
   6.7000000000000004E-002    -2181068.7500000000
   6.8100000000000022E-002    -1459325.2500000000
   6.9200000000000012E-002    -742031.06250000000
   7.0300000000000029E-002    -36659.210937500000
   7.1400000000000019E-002     649629.12500000000
   7.2500000000000009E-002     1310075.5000000000
   7.3600000000000027E-002     1938467.7500000000
   7.4700000000000016E-002     2529196.0000000000
   7.5800000000000006E-002     3077360.0000000000
   7.6900000000000024E-002     3578803.5000000000
   7.8000000000000014E-002     4030102.2500000000
   7.9100000000000004E-002     4428617.5000000000
   8.0200000000000021E-002     4772479.0000000000
   8.1300000000000011E-002     5060623.5000000000
   8.2400000000000029E-002     5292751.0000000000
   8.3500000000000019E-002     5469323.0000000000
   8.4600000000000009E-002     5591490.5000000000
   8.5700000000000026E-002     5661015.5000000000
   8.6800000000000016E-002     5680223.5000000000
   8.7900000000000006E-002     5651951.5000000000
   8.9000000000000024E-002     5579474.0000000000
   9.0100000000000013E-002     5466417.5000000000
   9.1200000000000003E-002     5316708.5000000000
   9.2300000000000021E-002     5134459.0000000000
   9.3400000000000011E-002     4923916.5000000000
   9.4500000000000028E-002     4689357.0000000000
   9.5600000000000018E-002     4435035.5000000000
   9.6700000000000008E-002     4165126.7500000000
   9.7800000000000026E-002     3883677.2500000000
   9.8900000000000016E-002     3594553.0000000000
  0.10000000000000001          3301402.0000000000
  0.10110000000000002          3007602.7500000000
  0.10220000000000001          2716215.7500000000
  0.10330000000000003          2430006.5000000000
  0.10440000000000002          2151401.5000000000
  0.10550000000000001          1882529.2500000000
  0.10660000000000003          1625193.3750000000
  0.10770000000000002          1380883.7500000000
  0.10880000000000001          1150761.8750000000
  0.10990000000000003          935680.68750000000
  0.11100000000000002          736196.25000000000
  0.11210000000000001          552625.37500000000
  0.11320000000000002          385079.03125000000
  0.11430000000000001          233456.21875000000
  0.11540000000000003          97481.343750000000
  0.11650000000000002         -23306.042968750000
  0.11760000000000001         -129510.92968750000
  0.11870000000000003         -221838.92187500000
  0.11980000000000002         -301064.46875000000
  0.12090000000000001         -367993.78125000000
  0.12200000000000003         -423496.12500000000
  0.12310000000000001         -468476.50000000000
  0.12420000000000003         -503844.21875000000
  0.12530000000000002         -530518.00000000000
  0.12640000000000001         -549402.18750000000
  0.12750000000000003         -561367.12500000000
  0.12860000000000002         -567224.18750000000
  0.12970000000000001         -567739.00000000000
  0.13080000000000003         -563641.12500000000
  0.13190000000000002         -555620.56250000000
  0.13300000000000001         -544320.87500000000
  0.13410000000000000         -530331.93750000000
  0.13520000000000004         -514187.62500000000
  0.13630000000000003         -496337.18750000000
  0.13740000000000002         -477184.50000000000
  0.13850000000000001         -457094.09375000000
  0.13960000000000000         -436404.59375000000
  0.14070000000000005         -415429.18750000000
  0.14180000000000004         -394436.43750000000
  0.14290000000000003         -373634.03125000000
  0.14400000000000002         -353164.62500000000
  0.14510000000000001         -333143.21875000000
  0.14620000000000000         -313681.06250000000
  0.14730000000000004         -294894.84375000000
  0.14840000000000003         -276890.75000000000
  0.14950000000000002         -259737.06250000000
  0.15060000000000001         -243450.29687500000
  0.15170000000000000         -228015.89062500000
  0.15280000000000005         -213415.23437500000
  0.15390000000000004         -199655.96875000000
  0.15500000000000003         -186760.34375000000
  0.15610000000000002         -174743.40625000000
  0.15720000000000001         -163582.62500000000
  0.15830000000000000         -153221.65625000000
  0.15940000000000004         -143596.32812500000
  0.16050000000000003         -134652.76562500000
  0.16160000000000002         -126370.17187500000
  0.16270000000000001         -118736.87500000000
  0.16380000000000000         -111724.93750000000
  0.16490000000000005         -105287.57031250000
  0.16600000000000004         -99357.460937500000
  0.16710000000000003         -93867.523437500000
  0.16820000000000002         -88774.265625000000
  0.16930000000000001         -84053.664062500000
  0.17040000000000000         -79692.828125000000
  0.17150000000000004         -75670.273437500000
  0.17260000000000003         -71950.906250000000
  0.17370000000000002         -68484.671875000000
  0.17480000000000001         -65225.566406250000
  0.17590000000000000         -62140.000000000000
  0.17700000000000005         -59216.621093750000
  0.17810000000000004         -56459.523437500000
  0.17920000000000003         -53870.300781250000
  0.18030000000000002         -51434.875000000000
  0.18140000000000001         -49119.082031250000
  0.18250000000000000         -46888.753906250000
  0.18360000000000004         -44732.066406250000
  0.18470000000000003         -42662.734375000000
  0.18580000000000002         -40709.039062500000
  0.18690000000000001         -38886.996093750000
  0.18800000000000000         -37185.023437500000
  0.18910000000000005         -35569.523437500000
  0.19020000000000004         -34013.648437500000
  0.19130000000000003         -32517.496093750000
  0.19240000000000002         -31110.263671875000
  0.19350000000000001         -29820.871093750000
  0.19460000000000005         -28650.070312500000
  0.19570000000000004         -27570.376953125000
  0.19680000000000003         -26545.171875000000
  0.19790000000000002         -25558.234375000000
  0.19900000000000001         -24623.630859375000
  0.20010000000000000         -23767.482421875000
  0.20120000000000005         -23001.435546875000
  0.20230000000000004         -22309.488281250000
  0.20340000000000003         -21660.791015625000
  0.20450000000000002         -21031.898437500000
  0.20560000000000000         -20420.998046875000
  0.20670000000000005         -19841.656250000000
  0.20780000000000004         -19304.451171875000
  0.20890000000000003         -18804.136718750000
