 -0.12000000000000000          0.0000000000000000
 -0.11889999999999999          0.0000000000000000
 -0.11780000000000000          0.0000000000000000
 -0.11670000000000000          0.0000000000000000
 -0.11559999999999999          0.0000000000000000
 -0.11449999999999999         -3.0310014709323187E-019
 -0.11340000000000000          7.3047394486247580E-019
 -0.11230000000000000         -2.7254605258164748E-017
 -0.11119999999999999         -1.9118281390803307E-016
 -0.11009999999999999         -2.6949602590492765E-016
 -0.10900000000000000          9.7800329914112839E-016
 -0.10790000000000000          3.3849088286528987E-015
 -0.10679999999999999         -1.8085229155722325E-015
 -0.10569999999999999         -2.7143511302008851E-014
 -0.10460000000000000         -4.5625941311753029E-014
 -0.10349999999999999          4.9400377722958605E-014
 -0.10239999999999999          3.2051330990309768E-013
 -0.10130000000000000          4.3967249546000842E-013
 -0.10020000000000000         -3.9961003256427929E-013
  -9.9099999999999994E-002    -2.4364928477571546E-012
  -9.7999999999999990E-002    -3.4048326224417336E-012
  -9.6899999999999986E-002     1.3594672262917662E-012
  -9.5799999999999996E-002     1.3132762238798890E-011
  -9.4699999999999993E-002     2.0885949220117439E-011
  -9.3599999999999989E-002     2.4019362887539586E-012
  -9.2499999999999999E-002    -5.1304967219056863E-011
  -9.1399999999999995E-002    -1.0002862427249681E-010
  -9.0299999999999991E-002    -5.5079586724904317E-011
  -8.9200000000000002E-002     1.3780880603331269E-010
  -8.8099999999999984E-002     3.7008990316778068E-010
  -8.6999999999999994E-002     3.4676450599846476E-010
  -8.5899999999999990E-002    -1.8487061881344857E-010
  -8.4799999999999986E-002    -1.0342443568234216E-009
  -8.3699999999999997E-002    -1.3975518520226160E-009
  -8.2599999999999993E-002    -3.5929970110260001E-010
  -8.1499999999999989E-002     2.0312378445908053E-009
  -8.0399999999999999E-002     4.0372798437715574E-009
  -7.9299999999999995E-002     3.0396547501254645E-009
  -7.8199999999999992E-002    -2.0253390076163669E-009
  -7.7100000000000002E-002    -8.4016811285891890E-009
  -7.5999999999999984E-002    -1.0160717600626867E-008
  -7.4899999999999994E-002    -2.7487567777484401E-009
  -7.3799999999999991E-002     1.1440532965423245E-008
  -7.2699999999999987E-002     2.1976578779003830E-008
  -7.1599999999999997E-002     1.7103101157545098E-008
  -7.0499999999999993E-002    -5.2393396288152871E-009
  -6.9399999999999989E-002    -3.1548612611231874E-008
  -6.8300000000000000E-002    -3.9902324999729899E-008
  -6.7199999999999996E-002    -1.7589222522929049E-008
  -6.6099999999999992E-002     2.4597877512633204E-008
  -6.5000000000000002E-002     5.6095966982638856E-008
  -6.3899999999999985E-002     4.9414438763051294E-008
  -6.2799999999999995E-002     4.9130068902059065E-009
  -6.1699999999999991E-002    -4.5342105181589432E-008
  -6.0599999999999994E-002    -6.1970361286967091E-008
  -5.9499999999999990E-002    -3.2435199415203897E-008
  -5.8399999999999994E-002     1.5931915342548564E-008
  -5.7299999999999990E-002     3.9137372453978969E-008
  -5.6199999999999986E-002     1.7898978299513146E-008
  -5.5099999999999996E-002    -2.1182808396247310E-008
  -5.3999999999999992E-002    -2.8288935638443036E-008
  -5.2899999999999989E-002     1.9729416322888937E-008
  -5.1799999999999985E-002     8.8221881355821097E-008
  -5.0699999999999995E-002     1.0643159242818001E-007
  -4.9599999999999991E-002     2.9444059634897712E-008
  -4.8499999999999988E-002    -1.1225400697867371E-007
  -4.7399999999999998E-002    -2.2294452151072619E-007
  -4.6299999999999994E-002    -2.0966355407381343E-007
  -4.5199999999999990E-002    -5.5658972542005358E-008
  -4.4099999999999986E-002     1.5953398246892903E-007
  -4.2999999999999997E-002     3.0950994300837920E-007
  -4.1899999999999993E-002     3.0246934556998895E-007
  -4.0799999999999989E-002     1.3763198580818425E-007
  -3.9699999999999985E-002    -9.6225711843089812E-008
  -3.8599999999999995E-002    -2.7251175538367534E-007
  -3.7499999999999992E-002    -2.9717236316173512E-007
  -3.6399999999999988E-002    -1.6441900640984386E-007
  -3.5299999999999984E-002     2.9331793882647617E-008
  -3.4199999999999994E-002     1.3261508513551235E-007
  -3.3099999999999991E-002     4.2253276433257270E-008
  -3.1999999999999987E-002    -1.9008831486644340E-007
  -3.0899999999999997E-002    -3.4007757676590700E-007
  -2.9799999999999993E-002    -1.4497140909952577E-007
  -2.8699999999999989E-002     4.6045511226111557E-007
  -2.7599999999999986E-002     1.1811171134468168E-006
  -2.6499999999999996E-002     1.4550872720064945E-006
  -2.5399999999999992E-002     8.2011803215209511E-007
  -2.4299999999999988E-002    -6.7124420866093715E-007
  -2.3199999999999985E-002    -2.3221821265906328E-006
  -2.2099999999999995E-002    -3.1247689094016096E-006
  -2.0999999999999991E-002    -2.3922311811475083E-006
  -1.9899999999999987E-002    -2.6731777325039729E-007
  -1.8799999999999983E-002     2.2676408661936875E-006
  -1.7699999999999994E-002     3.9152964745881036E-006
  -1.6599999999999990E-002     3.7921076909697149E-006
  -1.5499999999999986E-002     1.9151973447151249E-006
  -1.4399999999999996E-002    -8.0529468959866790E-007
  -1.3299999999999992E-002    -3.0079620501055615E-006
  -1.2199999999999989E-002    -3.5032937830692390E-006
  -1.1099999999999985E-002    -1.8259288481203839E-006
  -9.9999999999999950E-003     1.4548021454174886E-006
  -8.8999999999999913E-003     4.7889488996588625E-006
  -7.7999999999999875E-003     6.1386704146570992E-006
  -6.6999999999999837E-003     3.8157240851433016E-006
  -5.5999999999999939E-003    -2.7051644337916514E-006
  -4.4999999999999901E-003    -1.2516589777078480E-005
  -3.3999999999999864E-003    -2.3845328541938215E-005
  -2.2999999999999826E-003    -3.5188244510209188E-005
  -1.1999999999999927E-003    -4.6271186874946579E-005
  -9.9999999999988987E-005    -5.8148321841144934E-005
   1.0000000000000148E-003    -7.2404778620693833E-005
   2.1000000000000185E-003    -9.0148969320580363E-005
   3.2000000000000084E-003    -1.1164697934873402E-004
   4.3000000000000121E-003    -1.3688842591363937E-004
   5.4000000000000159E-003    -1.6657220839988440E-004
   6.5000000000000058E-003    -2.0267715444788337E-004
   7.6000000000000234E-003    -2.4819991085678339E-004
   8.7000000000000133E-003    -3.0637282179668546E-004
   9.8000000000000032E-003    -3.8003199733793736E-004
   1.0900000000000021E-002    -4.7152786282822490E-004
   1.2000000000000011E-002    -5.8305222773924470E-004
   1.3100000000000001E-002    -7.1705266600474715E-004
   1.4200000000000018E-002    -8.7663717567920685E-004
   1.5300000000000008E-002    -1.0661137057468295E-003
   1.6400000000000026E-002    -1.2916224077343941E-003
   1.7500000000000016E-002    -1.5613869763910770E-003
   1.8600000000000005E-002    -1.8850630149245262E-003
   1.9700000000000023E-002    -2.2723667789250612E-003
   2.0800000000000013E-002    -2.7321022935211658E-003
   2.1900000000000003E-002    -3.2728165388107300E-003
   2.3000000000000020E-002    -3.9051645435392857E-003
   2.4100000000000010E-002    -4.6444414183497429E-003
   2.5200000000000000E-002    -5.5111697874963284E-003
   2.6300000000000018E-002    -6.5289339981973171E-003
   2.7400000000000008E-002    -7.7208923175930977E-003
   2.8500000000000025E-002    -9.1076334938406944E-003
   2.9600000000000015E-002    -1.0708105750381947E-002
   3.0700000000000005E-002    -1.2543030083179474E-002
   3.1800000000000023E-002    -1.4638354070484638E-002
   3.2900000000000013E-002    -1.7026524990797043E-002
   3.4000000000000002E-002    -1.9745301455259323E-002
   3.5100000000000020E-002    -2.2835467010736465E-002
   3.6200000000000010E-002    -2.6338960975408554E-002
   3.7300000000000028E-002    -3.0297737568616867E-002
   3.8400000000000017E-002    -3.4752883017063141E-002
   3.9500000000000007E-002    -3.9743989706039429E-002
   4.0600000000000025E-002    -4.5309349894523621E-002
   4.1700000000000015E-002    -5.1487375050783157E-002
   4.2800000000000005E-002    -5.8318477123975754E-002
   4.3900000000000022E-002    -6.5845236182212830E-002
   4.5000000000000012E-002    -7.4109531939029694E-002
   4.6100000000000002E-002    -8.3147726953029633E-002
   4.7200000000000020E-002    -9.2986896634101868E-002
   4.8300000000000010E-002   -0.10364491492509842
   4.9400000000000027E-002   -0.11513330042362213
   5.0500000000000017E-002   -0.12745915353298187
   5.1600000000000007E-002   -0.14062331616878510
   5.2700000000000025E-002   -0.15461450815200806
   5.3800000000000014E-002   -0.16940347850322723
   5.4900000000000004E-002   -0.18494139611721039
   5.6000000000000022E-002   -0.20116215944290161
   5.7100000000000012E-002   -0.21798509359359741
   5.8200000000000002E-002   -0.23531430959701538
   5.9300000000000019E-002   -0.25303438305854797
   6.0400000000000009E-002   -0.27100634574890137
   6.1500000000000027E-002   -0.28906619548797607
   6.2600000000000017E-002   -0.30702716112136841
   6.3700000000000007E-002   -0.32468283176422119
   6.4800000000000024E-002   -0.34180721640586853
   6.5900000000000014E-002   -0.35815259814262390
   6.7000000000000004E-002   -0.37345033884048462
   6.8100000000000022E-002   -0.38741424679756165
   6.9200000000000012E-002   -0.39974617958068848
   7.0300000000000029E-002   -0.41014182567596436
   7.1400000000000019E-002   -0.41829136013984680
   7.2500000000000009E-002   -0.42387884855270386
   7.3600000000000027E-002   -0.42658528685569763
   7.4700000000000016E-002   -0.42609667778015137
   7.5800000000000006E-002   -0.42211481928825378
   7.6900000000000024E-002   -0.41436555981636047
   7.8000000000000014E-002   -0.40260174870491028
   7.9100000000000004E-002   -0.38660493493080139
   8.0200000000000021E-002   -0.36618906259536743
   8.1300000000000011E-002   -0.34120947122573853
   8.2400000000000029E-002   -0.31157463788986206
   8.3500000000000019E-002   -0.27725428342819214
   8.4600000000000009E-002   -0.23827964067459106
   8.5700000000000026E-002   -0.19473975896835327
   8.6800000000000016E-002   -0.14678412675857544
   8.7900000000000006E-002    -9.4628974795341492E-002
   8.9000000000000024E-002    -3.8565464317798615E-002
   9.0100000000000013E-002     2.1037576720118523E-002
   9.1200000000000003E-002     8.3741456270217896E-002
   9.2300000000000021E-002    0.14904737472534180
   9.3400000000000011E-002    0.21640203893184662
   9.4500000000000028E-002    0.28519800305366516
   9.5600000000000018E-002    0.35477352142333984
   9.6700000000000008E-002    0.42441910505294800
   9.7800000000000026E-002    0.49339178204536438
   9.8900000000000016E-002    0.56093388795852661
  0.10000000000000001         0.62628525495529175
  0.10110000000000002         0.68868696689605713
  0.10220000000000001         0.74738842248916626
  0.10330000000000003         0.80165982246398926
  0.10440000000000002         0.85081160068511963
  0.10550000000000001         0.89421445131301880
  0.10660000000000003         0.93130779266357422
  0.10770000000000002         0.96160084009170532
  0.10880000000000001         0.98467725515365601
  0.10990000000000003          1.0002086162567139
  0.11100000000000002          1.0079716444015503
  0.11210000000000001          1.0078599452972412
  0.11320000000000002         0.99988305568695068
  0.11430000000000001         0.98415595293045044
  0.11540000000000003         0.96089345216751099
  0.11650000000000002         0.93041533231735229
  0.11760000000000001         0.89315414428710938
  0.11870000000000003         0.84965455532073975
  0.11980000000000002         0.80055725574493408
  0.12090000000000001         0.74657517671585083
  0.12200000000000003         0.68848025798797607
  0.12310000000000001         0.62710273265838623
  0.12420000000000003         0.56333214044570923
  0.12530000000000002         0.49810793995857239
  0.12640000000000001         0.43239217996597290
  0.12750000000000003         0.36713752150535583
  0.12860000000000002         0.30326873064041138
  0.12970000000000001         0.24168288707733154
  0.13080000000000003         0.18325339257717133
  0.13190000000000002         0.12881675362586975
  0.13300000000000001          7.9142935574054718E-002
  0.13410000000000000          3.4909248352050781E-002
  0.13520000000000004         -3.3081676810979843E-003
  0.13630000000000003         -3.5027466714382172E-002
  0.13740000000000002         -5.9852279722690582E-002
  0.13850000000000001         -7.7480994164943695E-002
  0.13960000000000000         -8.7730817496776581E-002
  0.14070000000000005         -9.0557679533958435E-002
  0.14180000000000004         -8.6052179336547852E-002
  0.14290000000000003         -7.4416801333427429E-002
  0.14400000000000002         -5.5948078632354736E-002
  0.14510000000000001         -3.1041396781802177E-002
  0.14620000000000000         -2.1097995340824127E-004
  0.14730000000000004          3.5901512950658798E-002
  0.14840000000000003          7.6545029878616333E-002
  0.14950000000000002         0.12089198082685471
  0.15060000000000001         0.16806080937385559
  0.15170000000000000         0.21711437404155731
  0.15280000000000005         0.26704484224319458
  0.15390000000000004         0.31677395105361938
  0.15500000000000003         0.36518129706382751
  0.15610000000000002         0.41114875674247742
  0.15720000000000001         0.45358335971832275
  0.15830000000000000         0.49140968918800354
  0.15940000000000004         0.52355831861495972
  0.16050000000000003         0.54897373914718628
  0.16160000000000002         0.56665378808975220
  0.16270000000000001         0.57569563388824463
  0.16380000000000000         0.57531398534774780
  0.16490000000000005         0.56483042240142822
  0.16600000000000004         0.54366052150726318
  0.16710000000000003         0.51132112741470337
  0.16820000000000002         0.46746918559074402
  0.16930000000000001         0.41194254159927368
  0.17040000000000000         0.34477171301841736
  0.17150000000000004         0.26615884900093079
  0.17260000000000003         0.17645081877708435
  0.17370000000000002          7.6139271259307861E-002
  0.17480000000000001         -3.4108527004718781E-002
  0.17590000000000000        -0.15341833233833313
  0.17700000000000005        -0.28071817755699158
  0.17810000000000004        -0.41477960348129272
  0.17920000000000003        -0.55426025390625000
  0.18030000000000002        -0.69771635532379150
  0.18140000000000001        -0.84358495473861694
  0.18250000000000000        -0.99017560482025146
  0.18360000000000004         -1.1356996297836304
  0.18470000000000003         -1.2783269882202148
  0.18580000000000002         -1.4162398576736450
  0.18690000000000001         -1.5476546287536621
  0.18800000000000000         -1.6708186864852905
  0.18910000000000005         -1.7840108871459961
  0.19020000000000004         -1.8855733871459961
  0.19130000000000003         -1.9739757776260376
  0.19240000000000002         -2.0478658676147461
  0.19350000000000001         -2.1060833930969238
  0.19460000000000005         -2.1476502418518066
  0.19570000000000004         -2.1717667579650879
  0.19680000000000003         -2.1778399944305420
  0.19790000000000002         -2.1655254364013672
  0.19900000000000001         -2.1347541809082031
  0.20010000000000000         -2.0857226848602295
  0.20120000000000005         -2.0188584327697754
  0.20230000000000004         -1.9347984790802002
  0.20340000000000003         -1.8343925476074219
  0.20450000000000002         -1.7187242507934570
  0.20560000000000000         -1.5891073942184448
  0.20670000000000005         -1.4470459222793579
  0.20780000000000004         -1.2941782474517822
  0.20890000000000003         -1.1322454214096069
