 -0.12000000000000000          0.0000000000000000
 -0.11889999999999999          0.0000000000000000
 -0.11780000000000000          0.0000000000000000
 -0.11670000000000000          0.0000000000000000
 -0.11559999999999999          0.0000000000000000
 -0.11449999999999999          0.0000000000000000
 -0.11340000000000000          0.0000000000000000
 -0.11230000000000000          0.0000000000000000
 -0.11119999999999999         -2.6096252042537396E-028
 -0.11009999999999999          2.5704073483514365E-027
 -0.10900000000000000         -1.3982925625806263E-025
 -0.10790000000000000         -6.9149081761345079E-025
 -0.10679999999999999          4.0020688658898676E-025
 -0.10569999999999999          3.9337270846574031E-024
 -0.10460000000000000         -2.9521743604477661E-023
 -0.10349999999999999         -1.7227454943868751E-022
 -0.10239999999999999         -1.1213151634559893E-022
 -0.10130000000000000          1.4152520068834408E-021
 -0.10020000000000000          4.2986294417554225E-021
  -9.9099999999999994E-002    -8.3330086051299644E-022
  -9.7999999999999990E-002    -3.1703147773341021E-020
  -9.6899999999999986E-002    -6.7426845688087247E-020
  -9.5799999999999996E-002     3.0819651024474764E-020
  -9.4699999999999993E-002     4.3092594396409391E-019
  -9.3599999999999989E-002     8.0138007376567447E-019
  -9.2499999999999999E-002    -2.6225813019782027E-019
  -9.1399999999999995E-002    -4.1026905204002155E-018
  -9.0299999999999991E-002    -7.6937259913639180E-018
  -8.9200000000000002E-002    -5.4609636860138334E-020
  -8.8099999999999984E-002     2.8888492108748891E-017
  -8.6999999999999994E-002     6.0052749988533273E-017
  -8.5899999999999990E-002     2.3466703696545569E-017
  -8.4799999999999986E-002    -1.5135136749608541E-016
  -8.3699999999999997E-002    -3.7910211574941372E-016
  -8.2599999999999993E-002    -2.8937223634740105E-016
  -8.1499999999999989E-002     5.5584668397123580E-016
  -8.0399999999999999E-002     1.9200924013186745E-015
  -7.9299999999999995E-002     2.1747395161417606E-015
  -7.8199999999999992E-002    -1.0137059496261340E-015
  -7.7100000000000002E-002    -7.6585364840262710E-015
  -7.5999999999999984E-002    -1.1916446596030392E-014
  -7.4899999999999994E-002    -3.3122096848559567E-015
  -7.3799999999999991E-002     2.2794967817615572E-014
  -7.2699999999999987E-002     5.0139837485911609E-014
  -7.1599999999999997E-002     3.9533351906765463E-014
  -7.0499999999999993E-002    -4.1239513431760855E-014
  -6.9399999999999989E-002    -1.6258928882059709E-013
  -6.8300000000000000E-002    -2.0438301929787822E-013
  -6.7199999999999996E-002    -2.1829245225660210E-014
  -6.6099999999999992E-002     3.8620468585312540E-013
  -6.5000000000000002E-002     7.2984787701305120E-013
  -6.3899999999999985E-002     5.1537474374946379E-013
  -6.2799999999999995E-002    -5.2758220969034708E-013
  -6.1699999999999991E-002    -1.9120735810645995E-012
  -6.0599999999999994E-002    -2.3188684045855057E-012
  -5.9499999999999990E-002    -4.5110616631038880E-013
  -5.8399999999999994E-002     3.4517918037768602E-012
  -5.7299999999999990E-002     6.6929673608884244E-012
  -5.6199999999999986E-002     5.2771814695873331E-012
  -5.5099999999999996E-002    -2.6700226231357593E-012
  -5.3999999999999992E-002    -1.3439356398581292E-011
  -5.2899999999999989E-002    -1.7943672589448845E-011
  -5.1799999999999985E-002    -7.6835178844381069E-012
  -5.0699999999999995E-002     1.6281909848148146E-011
  -4.9599999999999991E-002     3.8841083127572062E-011
  -4.8499999999999988E-002     3.7843377737045714E-011
  -4.7399999999999998E-002     1.7318438350066856E-012
  -4.6299999999999994E-002    -5.4138568628125938E-011
  -4.5199999999999990E-002    -8.8930231234574109E-011
  -4.4099999999999986E-002    -6.2314833848553519E-011
  -4.2999999999999997E-002     2.8690685244248115E-011
  -4.1899999999999993E-002     1.3180324887063222E-010
  -4.0799999999999989E-002     1.6442519568116154E-010
  -3.9699999999999985E-002     7.4820538653597168E-011
  -3.8599999999999995E-002    -1.0275230666323409E-010
  -3.7499999999999992E-002    -2.5016938520749932E-010
  -3.6399999999999988E-002    -2.4097346340568038E-010
  -3.5299999999999984E-002    -4.4616962902033208E-011
  -3.4199999999999994E-002     2.2384892550686430E-010
  -3.3099999999999991E-002     3.6638933553767572E-010
  -3.1999999999999987E-002     2.5026863914590081E-010
  -3.0899999999999997E-002    -6.7190919494919399E-011
  -2.9799999999999993E-002    -3.5204586468218224E-010
  -2.8699999999999989E-002    -3.6404154690750090E-010
  -2.7599999999999986E-002    -6.6792751884925394E-011
  -2.6499999999999996E-002     3.0161145803120348E-010
  -2.5399999999999992E-002     3.9250758199216307E-010
  -2.4299999999999988E-002     5.0090043224315650E-011
  -2.3199999999999985E-002    -4.8970705268658321E-010
  -2.2099999999999995E-002    -7.1391342837401339E-010
  -2.0999999999999991E-002    -2.3877635979552281E-010
  -1.9899999999999987E-002     7.8216255694485426E-010
  -1.8799999999999983E-002     1.6146490811053127E-009
  -1.7699999999999994E-002     1.4058774144842801E-009
  -1.6599999999999990E-002    -1.0886513912566897E-010
  -1.5499999999999986E-002    -2.1906207958721780E-009
  -1.4399999999999996E-002    -3.3950955380390724E-009
  -1.3299999999999992E-002    -2.5197031128243452E-009
  -1.2199999999999989E-002     4.0454117833377268E-010
  -1.1099999999999985E-002     3.8422038883823006E-009
  -9.9999999999999950E-003     5.5558904143993004E-009
  -8.8999999999999913E-003     4.0724712491169157E-009
  -7.7999999999999875E-003    -1.6559753568401447E-010
  -6.6999999999999837E-003    -4.8485704340350821E-009
  -5.5999999999999939E-003    -7.1560770642520311E-009
  -4.4999999999999901E-003    -5.5819926458866576E-009
  -3.3999999999999864E-003    -9.7028118872799496E-010
  -2.2999999999999826E-003     4.0091556741117529E-009
  -1.1999999999999927E-003     6.6170584567259993E-009
  -9.9999999999988987E-005     5.7909255168908658E-009
   1.0000000000000148E-003     2.6267557018400112E-009
   2.1000000000000185E-003    -7.0035321986239296E-010
   3.2000000000000084E-003    -2.6561834953753305E-009
   4.3000000000000121E-003    -3.2853928466636262E-009
   5.4000000000000159E-003    -3.6195928476701056E-009
   6.5000000000000058E-003    -4.1644510062610607E-009
   7.6000000000000234E-003    -3.9793865980186638E-009
   8.7000000000000133E-003    -1.4473739984310896E-009
   9.8000000000000032E-003     3.7057923396588421E-009
   1.0900000000000021E-002     8.9927914004306331E-009
   1.2000000000000011E-002     1.0121045335154122E-008
   1.3100000000000001E-002     4.2789558563072205E-009
   1.4200000000000018E-002    -6.5722969289083721E-009
   1.5300000000000008E-002    -1.5478379467026571E-008
   1.6400000000000026E-002    -1.4580358254079329E-008
   1.7500000000000016E-002    -1.3105454499395819E-009
   1.8600000000000005E-002     1.7926229389786386E-008
   1.9700000000000023E-002     3.0288163088698639E-008
   2.0800000000000013E-002     2.4714992719054862E-008
   2.1900000000000003E-002     5.6479798615782784E-010
   2.3000000000000020E-002    -3.0014824403679086E-008
   2.4100000000000010E-002    -4.8953367581816565E-008
   2.5200000000000000E-002    -4.4529041787200185E-008
   2.6300000000000018E-002    -2.0249403931416055E-008
   2.7400000000000008E-002     7.2306560738866210E-009
   2.8500000000000025E-002     2.1165142527479475E-008
   2.9600000000000015E-002     1.9767291803418630E-008
   3.0700000000000005E-002     2.0783808452051744E-008
   3.1800000000000023E-002     4.8975135058526575E-008
   3.2900000000000013E-002     1.1229737140183715E-007
   3.4000000000000002E-002     1.8319251182674634E-007
   3.5100000000000020E-002     2.0173743564555480E-007
   3.6200000000000010E-002     1.0528545857368954E-007
   3.7300000000000028E-002    -1.2868932230958308E-007
   3.8400000000000017E-002    -4.5170406792749418E-007
   3.9500000000000007E-002    -7.4716433573485119E-007
   4.0600000000000025E-002    -8.7077700072768494E-007
   4.1700000000000015E-002    -7.1004870960678090E-007
   4.2800000000000005E-002    -2.3259076442627702E-007
   4.3900000000000022E-002     5.0029177600663388E-007
   4.5000000000000012E-002     1.3568384247264476E-006
   4.6100000000000002E-002     2.1750258838437730E-006
   4.7200000000000020E-002     2.7920834781980375E-006
   4.8300000000000010E-002     3.0473265724140219E-006
   4.9400000000000027E-002     2.7648852665151935E-006
   5.0500000000000017E-002     1.7400827800884144E-006
   5.1600000000000007E-002    -2.4786845642665867E-007
   5.2700000000000025E-002    -3.3935064038814744E-006
   5.3800000000000014E-002    -7.8140546975191683E-006
   5.4900000000000004E-002    -1.3522563676815480E-005
   5.6000000000000022E-002    -2.0448609575396404E-005
   5.7100000000000012E-002    -2.8504502552095801E-005
   5.8200000000000002E-002    -3.7670495657948777E-005
   5.9300000000000019E-002    -4.8065161536214873E-005
   6.0400000000000009E-002    -5.9981179219903424E-005
   6.1500000000000027E-002    -7.3891802458092570E-005
   6.2600000000000017E-002    -9.0451372670941055E-005
   6.3700000000000007E-002    -1.1051198816858232E-004
   6.4800000000000024E-002    -1.3515909085981548E-004
   6.5900000000000014E-002    -1.6574611072428524E-004
   6.7000000000000004E-002    -2.0389915152918547E-004
   6.8100000000000022E-002    -2.5147615815512836E-004
   6.9200000000000012E-002    -3.1049427343532443E-004
   7.0300000000000029E-002    -3.8306720671243966E-004
   7.1400000000000019E-002    -4.7140475362539291E-004
   7.2500000000000009E-002    -5.7791074505075812E-004
   7.3600000000000027E-002    -7.0538063300773501E-004
   7.4700000000000016E-002    -8.5725949611514807E-004
   7.5800000000000006E-002    -1.0378935839980841E-003
   7.6900000000000024E-002    -1.2527045328170061E-003
   7.8000000000000014E-002    -1.5082377940416336E-003
   7.9100000000000004E-002    -1.8120812019333243E-003
   8.0200000000000021E-002    -2.1726994309574366E-003
   8.1300000000000011E-002    -2.5992707815021276E-003
   8.2400000000000029E-002    -3.1016217544674873E-003
   8.3500000000000019E-002    -3.6903265863656998E-003
   8.4600000000000009E-002    -4.3769720941781998E-003
   8.5700000000000026E-002    -5.1745194941759109E-003
   8.6800000000000016E-002    -6.0976422391831875E-003
   8.7900000000000006E-002    -7.1629276499152184E-003
   8.9000000000000024E-002    -8.3888825029134750E-003
   9.0100000000000013E-002    -9.7957747057080269E-003
   9.1200000000000003E-002    -1.1405400931835175E-002
   9.2300000000000021E-002    -1.3240870088338852E-002
   9.3400000000000011E-002    -1.5326466411352158E-002
   9.4500000000000028E-002    -1.7687555402517319E-002
   9.5600000000000018E-002    -2.0350456237792969E-002
   9.6700000000000008E-002    -2.3342216387391090E-002
   9.7800000000000026E-002    -2.6690267026424408E-002
   9.8900000000000016E-002    -3.0422007665038109E-002
  0.10000000000000001         -3.4564375877380371E-002
  0.10110000000000002         -3.9143431931734085E-002
  0.10220000000000001         -4.4183935970067978E-002
  0.10330000000000003         -4.9708794802427292E-002
  0.10440000000000002         -5.5738314986228943E-002
  0.10550000000000001         -6.2289215624332428E-002
  0.10660000000000003         -6.9373495876789093E-002
  0.10770000000000002         -7.6997272670269012E-002
  0.10880000000000001         -8.5159666836261749E-002
  0.10990000000000003         -9.3851827085018158E-002
  0.11100000000000002        -0.10305599123239517
  0.11210000000000001        -0.11274443566799164
  0.11320000000000002        -0.12287835031747818
  0.11430000000000001        -0.13340668380260468
  0.11540000000000003        -0.14426505565643311
  0.11650000000000002        -0.15537488460540771
  0.11760000000000001        -0.16664285957813263
  0.11870000000000003        -0.17796060442924500
  0.11980000000000002        -0.18920457363128662
  0.12090000000000001        -0.20023596286773682
  0.12200000000000003        -0.21090072393417358
  0.12310000000000001        -0.22102989256381989
  0.12420000000000003        -0.23044030368328094
  0.12530000000000002        -0.23893585801124573
  0.12640000000000001        -0.24630936980247498
  0.12750000000000003        -0.25234493613243103
  0.12860000000000002        -0.25682067871093750
  0.12970000000000001        -0.25951173901557922
  0.13080000000000003        -0.26019343733787537
  0.13190000000000002        -0.25864481925964355
  0.13300000000000001        -0.25465252995491028
  0.13410000000000000        -0.24801510572433472
  0.13520000000000004        -0.23854753375053406
  0.13630000000000003        -0.22608602046966553
  0.13740000000000002        -0.21049267053604126
  0.13850000000000001        -0.19166019558906555
  0.13960000000000000        -0.16951638460159302
  0.14070000000000005        -0.14402802288532257
  0.14180000000000004        -0.11520463973283768
  0.14290000000000003         -8.3102203905582428E-002
  0.14400000000000002         -4.7826021909713745E-002
  0.14510000000000001         -9.5328800380229950E-003
  0.14620000000000000          3.1567588448524475E-002
  0.14730000000000004          7.5212493538856506E-002
  0.14840000000000003         0.12108627706766129
  0.14950000000000002         0.16882240772247314
  0.15060000000000001         0.21800608932971954
  0.15170000000000000         0.26817786693572998
  0.15280000000000005         0.31883835792541504
  0.15390000000000004         0.36945411562919617
  0.15500000000000003         0.41946440935134888
  0.15610000000000002         0.46828860044479370
  0.15720000000000001         0.51533412933349609
  0.15830000000000000         0.56000530719757080
  0.15940000000000004         0.60171246528625488
  0.16050000000000003         0.63988178968429565
  0.16160000000000002         0.67396497726440430
  0.16270000000000001         0.70344877243041992
  0.16380000000000000         0.72786450386047363
  0.16490000000000005         0.74679690599441528
  0.16600000000000004         0.75989198684692383
  0.16710000000000003         0.76686429977416992
  0.16820000000000002         0.76750308275222778
  0.16930000000000001         0.76167726516723633
  0.17040000000000000         0.74933886528015137
  0.17150000000000004         0.73052531480789185
  0.17260000000000003         0.70535999536514282
  0.17370000000000002         0.67405110597610474
  0.17480000000000001         0.63688969612121582
  0.17590000000000000         0.59424567222595215
  0.17700000000000005         0.54656255245208740
  0.17810000000000004         0.49435067176818848
  0.17920000000000003         0.43817916512489319
  0.18030000000000002         0.37866699695587158
  0.18140000000000001         0.31647285819053650
  0.18250000000000000         0.25228482484817505
  0.18360000000000004         0.18680965900421143
  0.18470000000000003         0.12076154351234436
  0.18580000000000002          5.4851032793521881E-002
  0.18690000000000001         -1.0225765407085419E-002
  0.18800000000000000         -7.3797643184661865E-002
  0.18910000000000005        -0.13522766530513763
  0.19020000000000004        -0.19392238557338715
  0.19130000000000003        -0.24934002757072449
  0.19240000000000002        -0.30099719762802124
  0.19350000000000001        -0.34847465157508850
  0.19460000000000005        -0.39142167568206787
  0.19570000000000004        -0.42955917119979858
  0.19680000000000003        -0.46268126368522644
  0.19790000000000002        -0.49065542221069336
  0.19900000000000001        -0.51342177391052246
  0.20010000000000000        -0.53099101781845093
  0.20120000000000005        -0.54344081878662109
  0.20230000000000004        -0.55091184377670288
  0.20340000000000003        -0.55360311269760132
  0.20450000000000002        -0.55176609754562378
  0.20560000000000000        -0.54569828510284424
  0.20670000000000005        -0.53573650121688843
  0.20780000000000004        -0.52224987745285034
  0.20890000000000003        -0.50563275814056396
