 -0.12000000000000000          0.0000000000000000
 -0.11889999999999999          0.0000000000000000
 -0.11780000000000000          0.0000000000000000
 -0.11670000000000000          0.0000000000000000
 -0.11559999999999999          0.0000000000000000
 -0.11449999999999999          0.0000000000000000
 -0.11340000000000000          0.0000000000000000
 -0.11230000000000000          0.0000000000000000
 -0.11119999999999999          0.0000000000000000
 -0.11009999999999999          0.0000000000000000
 -0.10900000000000000         -1.1553254879982866E-019
 -0.10790000000000000         -1.1801962757771302E-018
 -0.10679999999999999         -4.5601395971155160E-018
 -0.10569999999999999         -2.5727643495871966E-018
 -0.10460000000000000          4.9449062159211908E-017
 -0.10349999999999999          2.2802621924964317E-016
 -0.10239999999999999          4.1348230957573891E-016
 -0.10130000000000000         -2.8225882718657983E-016
 -0.10020000000000000         -3.6376837889043161E-015
  -9.9099999999999994E-002    -9.5831054544711844E-015
  -9.7999999999999990E-002    -8.9902171197440116E-015
  -9.6899999999999986E-002     2.1078641897253128E-014
  -9.5799999999999996E-002     9.8326694822261501E-014
  -9.4699999999999993E-002     1.7362471866049639E-013
  -9.3599999999999989E-002     6.4024367675986210E-014
  -9.2499999999999999E-002    -4.7969722812013504E-013
  -9.1399999999999995E-002    -1.4066021567990528E-012
  -9.0299999999999991E-002    -1.8011798649797406E-012
  -8.9200000000000002E-002     1.9318991935704521E-013
  -8.8099999999999984E-002     5.9004511346327781E-012
  -8.6999999999999994E-002     1.2893325296303715E-011
  -8.5899999999999990E-002     1.2458029399753379E-011
  -8.4799999999999986E-002    -7.1246160013305193E-012
  -8.3699999999999997E-002    -4.7766606642296594E-011
  -8.2599999999999993E-002    -8.4561670166127811E-011
  -8.1499999999999989E-002    -6.3120564330887419E-011
  -8.0399999999999999E-002     6.6673194742961073E-011
  -7.9299999999999995E-002     2.8100988203050292E-010
  -7.8199999999999992E-002     4.2477432682375138E-010
  -7.7100000000000002E-002     2.5155305616308965E-010
  -7.5999999999999984E-002    -3.8587927297939473E-010
  -7.4899999999999994E-002    -1.2697672913120073E-009
  -7.3799999999999991E-002    -1.7092922632855334E-009
  -7.2699999999999987E-002    -8.5006418570898745E-010
  -7.1599999999999997E-002     1.5828950372664963E-009
  -7.0499999999999993E-002     4.5455794683846307E-009
  -6.9399999999999989E-002     5.6953566307527126E-009
  -6.8300000000000000E-002     2.6798478991452157E-009
  -6.7199999999999996E-002    -4.7213117859712384E-009
  -6.6099999999999992E-002    -1.3084932248830228E-008
  -6.5000000000000002E-002    -1.6177143180584608E-008
  -6.3899999999999985E-002    -8.5932621018969257E-009
  -6.2799999999999995E-002     9.5658112542196250E-009
  -6.1699999999999991E-002     3.0321011479372828E-008
  -6.0599999999999994E-002     4.0376900045657749E-008
  -5.9499999999999990E-002     2.8235609406124240E-008
  -5.8399999999999994E-002    -7.8232416100831870E-009
  -5.7299999999999990E-002    -5.5615313243606579E-008
  -5.6199999999999986E-002    -9.1496985987760127E-008
  -5.5099999999999996E-002    -8.8944631215781556E-008
  -5.3999999999999992E-002    -3.0989120602953335E-008
  -5.2899999999999989E-002     7.6259496495367785E-008
  -5.1799999999999985E-002     1.9360618352948222E-007
  -5.0699999999999995E-002     2.5132155201390560E-007
  -4.9599999999999991E-002     1.7533855611873150E-007
  -4.8499999999999988E-002    -6.1476882251554343E-008
  -4.7399999999999998E-002    -3.8573520555473806E-007
  -4.6299999999999994E-002    -6.1424543673638254E-007
  -4.5199999999999990E-002    -5.3059045512782177E-007
  -4.4099999999999986E-002    -3.7108783601524920E-008
  -4.2999999999999997E-002     7.0528784590351279E-007
  -4.1899999999999993E-002     1.2765073051923537E-006
  -4.0799999999999989E-002     1.2046267556797829E-006
  -3.9699999999999985E-002     3.0062622613513668E-007
  -3.8599999999999995E-002    -1.1014772098860703E-006
  -3.7499999999999992E-002    -2.2218830508791143E-006
  -3.6399999999999988E-002    -2.2623248696618248E-006
  -3.5299999999999984E-002    -9.4480566303900559E-007
  -3.4199999999999994E-002     1.2142641026002821E-006
  -3.3099999999999991E-002     3.1262663924280787E-006
  -3.1999999999999987E-002     3.7302215787349269E-006
  -3.0899999999999997E-002     2.5698016088426812E-006
  -2.9799999999999993E-002    -1.6347344811151743E-008
  -2.8699999999999989E-002    -3.1209979169943836E-006
  -2.7599999999999986E-002    -5.6225439948320854E-006
  -2.6499999999999996E-002    -6.3983475229179021E-006
  -2.5399999999999992E-002    -4.4751486711902544E-006
  -2.4299999999999988E-002     5.4062445542513160E-007
  -2.3199999999999985E-002     7.6537226050277241E-006
  -2.2099999999999995E-002     1.3876960110792425E-005
  -2.0999999999999991E-002     1.4864936929370742E-005
  -1.9899999999999987E-002     7.2834195634641219E-006
  -1.8799999999999983E-002    -8.0693162090028636E-006
  -1.7699999999999994E-002    -2.4713244783924893E-005
  -1.6599999999999990E-002    -3.2601881684968248E-005
  -1.5499999999999986E-002    -2.3754695575917140E-005
  -1.4399999999999996E-002     1.6690411257513915E-006
  -1.3299999999999992E-002     3.3199448807863519E-005
  -1.2199999999999989E-002     5.4250358516583219E-005
  -1.1099999999999985E-002     5.0997172365896404E-005
  -9.9999999999999950E-003     2.0769899492734112E-005
  -8.8999999999999913E-003    -2.5290986741310917E-005
  -7.7999999999999875E-003    -6.7015324020758271E-005
  -6.6999999999999837E-003    -8.4546016296371818E-005
  -5.5999999999999939E-003    -6.7122440668754280E-005
  -4.4999999999999901E-003    -1.7516485968371853E-005
  -3.3999999999999864E-003     4.8541289288550615E-005
  -2.2999999999999826E-003     1.0662640124792233E-004
  -1.1999999999999927E-003     1.3056387251708657E-004
  -9.9999999999988987E-005     1.0187279985984787E-004
   1.0000000000000148E-003     2.0316996597102843E-005
   2.1000000000000185E-003    -8.9206914708483964E-005
   3.2000000000000084E-003    -1.8031899526249617E-004
   4.3000000000000121E-003    -2.0296598086133599E-004
   5.4000000000000159E-003    -1.3019808102399111E-004
   6.5000000000000058E-003     2.0217472410877235E-005
   7.6000000000000234E-003     1.8485392502043396E-004
   8.7000000000000133E-003     2.8025961364619434E-004
   9.8000000000000032E-003     2.4514581309631467E-004
   1.0900000000000021E-002     7.7162971138022840E-005
   1.2000000000000011E-002    -1.5715652261860669E-004
   1.3100000000000001E-002    -3.4730884362943470E-004
   1.4200000000000018E-002    -3.8839154876768589E-004
   1.5300000000000008E-002    -2.3256365966517478E-004
   1.6400000000000026E-002     8.1334925198461860E-005
   1.7500000000000016E-002     4.3416587868705392E-004
   1.8600000000000005E-002     6.6843308741226792E-004
   1.9700000000000023E-002     6.5141223603859544E-004
   2.0800000000000013E-002     3.3579915179871023E-004
   2.1900000000000003E-002    -2.0756835874635726E-004
   2.3000000000000020E-002    -8.0240785609930754E-004
   2.4100000000000010E-002    -1.2255033943802118E-003
   2.5200000000000000E-002    -1.2910347431898117E-003
   2.6300000000000018E-002    -9.2690886231139302E-004
   2.7400000000000008E-002    -2.1031207870692015E-004
   2.8500000000000025E-002     6.5410486422479153E-004
   2.9600000000000015E-002     1.4068298041820526E-003
   3.0700000000000005E-002     1.8307910067960620E-003
   3.1800000000000023E-002     1.8376433290541172E-003
   3.2900000000000013E-002     1.5075275441631675E-003
   3.4000000000000002E-002     1.0565100237727165E-003
   3.5100000000000020E-002     7.2710448876023293E-004
   3.6200000000000010E-002     6.3192279776558280E-004
   3.7300000000000028E-002     6.1796966474503279E-004
   3.8400000000000017E-002     2.3619427520316094E-004
   3.9500000000000007E-002    -1.1294907890260220E-003
   4.0600000000000025E-002    -3.9978357963263988E-003
   4.1700000000000015E-002    -8.5056452080607414E-003
   4.2800000000000005E-002    -1.4261724427342415E-002
   4.3900000000000022E-002    -2.0450036972761154E-002
   4.5000000000000012E-002    -2.6168337091803551E-002
   4.6100000000000002E-002    -3.0853960663080215E-002
   4.7200000000000020E-002    -3.4588132053613663E-002
   4.8300000000000010E-002    -3.8131926208734512E-002
   4.9400000000000027E-002    -4.2688302695751190E-002
   5.0500000000000017E-002    -4.9522809684276581E-002
   5.1600000000000007E-002    -5.9638526290655136E-002
   5.2700000000000025E-002    -7.3644682765007019E-002
   5.3800000000000014E-002    -9.1840498149394989E-002
   5.4900000000000004E-002   -0.11443664878606796
   5.6000000000000022E-002   -0.14177919924259186
   5.7100000000000012E-002   -0.17449076473712921
   5.8200000000000002E-002   -0.21349970996379852
   5.9300000000000019E-002   -0.26001787185668945
   6.0400000000000009E-002   -0.31551906466484070
   6.1500000000000027E-002   -0.38175648450851440
   6.2600000000000017E-002   -0.46080705523490906
   6.3700000000000007E-002   -0.55502557754516602
   6.4800000000000024E-002   -0.66692042350769043
   6.5900000000000014E-002   -0.79895454645156860
   6.7000000000000004E-002   -0.95345854759216309
   6.8100000000000022E-002    -1.1327956914901733
   6.9200000000000012E-002    -1.3397773504257202
   7.0300000000000029E-002    -1.5781937837600708
   7.1400000000000019E-002    -1.8531316518783569
   7.2500000000000009E-002    -2.1708018779754639
   7.3600000000000027E-002    -2.5378203392028809
   7.4700000000000016E-002    -2.9603207111358643
   7.5800000000000006E-002    -3.4433772563934326
   7.6900000000000024E-002    -3.9911327362060547
   7.8000000000000014E-002    -4.6076049804687500
   7.9100000000000004E-002    -5.2976989746093750
   8.0200000000000021E-002    -6.0678973197937012
   8.1300000000000011E-002    -6.9259514808654785
   8.2400000000000029E-002    -7.8799209594726562
   8.3500000000000019E-002    -8.9371643066406250
   8.4600000000000009E-002    -10.102948188781738
   8.5700000000000026E-002    -11.380438804626465
   8.6800000000000016E-002    -12.770627975463867
   8.7900000000000006E-002    -14.273232460021973
   8.9000000000000024E-002    -15.887418746948242
   9.0100000000000013E-002    -17.611671447753906
   9.1200000000000003E-002    -19.442821502685547
   9.2300000000000021E-002    -21.376100540161133
   9.3400000000000011E-002    -23.403526306152344
   9.4500000000000028E-002    -25.513351440429688
   9.5600000000000018E-002    -27.690433502197266
   9.6700000000000008E-002    -29.914545059204102
   9.7800000000000026E-002    -32.160194396972656
   9.8900000000000016E-002    -34.398807525634766
  0.10000000000000001         -36.597396850585938
  0.10110000000000002         -38.717967987060547
  0.10220000000000001         -40.717529296875000
  0.10330000000000003         -42.552112579345703
  0.10440000000000002         -44.172283172607422
  0.10550000000000001         -45.529308319091797
  0.10660000000000003         -46.569763183593750
  0.10770000000000002         -47.234443664550781
  0.10880000000000001         -47.454441070556641
  0.10990000000000003         -47.166645050048828
  0.11100000000000002         -46.308109283447266
  0.11210000000000001         -44.820854187011719
  0.11320000000000002         -42.649330139160156
  0.11430000000000001         -39.741966247558594
  0.11540000000000003         -36.052207946777344
  0.11650000000000002         -31.534307479858398
  0.11760000000000001         -26.157623291015625
  0.11870000000000003         -19.895626068115234
  0.11980000000000002         -12.740418434143066
  0.12090000000000001         -4.6855597496032715
  0.12200000000000003          4.2503314018249512
  0.12310000000000001          14.027771949768066
  0.12420000000000003          24.588649749755859
  0.12530000000000002          35.857498168945312
  0.12640000000000001          47.750133514404297
  0.12750000000000003          60.178230285644531
  0.12860000000000002          73.023773193359375
  0.12970000000000001          86.143486022949219
  0.13080000000000003          99.370315551757812
  0.13190000000000002          112.53029632568359
  0.13300000000000001          125.44272613525391
  0.13410000000000000          137.91775512695312
  0.13520000000000004          149.76315307617188
  0.13630000000000003          160.77342224121094
  0.13740000000000002          170.73698425292969
  0.13850000000000001          179.44741821289062
  0.13960000000000000          186.70724487304688
  0.14070000000000005          192.34423828125000
  0.14180000000000004          196.20193481445312
  0.14290000000000003          198.12361145019531
  0.14400000000000002          197.96708679199219
  0.14510000000000001          195.62921142578125
  0.14620000000000000          191.04142761230469
  0.14730000000000004          184.18026733398438
  0.14840000000000003          175.04551696777344
  0.14950000000000002          163.65774536132812
  0.15060000000000001          150.07443237304688
  0.15170000000000000          134.40386962890625
  0.15280000000000005          116.79934692382812
  0.15390000000000004          97.453926086425781
  0.15500000000000003          76.576522827148438
  0.15610000000000002          54.388797760009766
  0.15720000000000001          31.135913848876953
  0.15830000000000000          7.1002464294433594
  0.15940000000000004         -17.398893356323242
  0.16050000000000003         -42.029312133789062
  0.16160000000000002         -66.460151672363281
  0.16270000000000001         -90.377365112304688
  0.16380000000000000         -113.47164154052734
  0.16490000000000005         -135.43948364257812
  0.16600000000000004         -155.97875976562500
  0.16710000000000003         -174.81698608398438
  0.16820000000000002         -191.70721435546875
  0.16930000000000001         -206.45274353027344
  0.17040000000000000         -218.88470458984375
  0.17150000000000004         -228.84776306152344
  0.17260000000000003         -236.23016357421875
  0.17370000000000002         -240.95872497558594
  0.17480000000000001         -243.02558898925781
  0.17590000000000000         -242.46731567382812
  0.17700000000000005         -239.34379577636719
  0.17810000000000004         -233.74223327636719
  0.17920000000000003         -225.80801391601562
  0.18030000000000002         -215.70436096191406
  0.18140000000000001         -203.63235473632812
  0.18250000000000000         -189.81355285644531
  0.18360000000000004         -174.48919677734375
  0.18470000000000003         -157.89498901367188
  0.18580000000000002         -140.28709411621094
  0.18690000000000001         -121.94035339355469
  0.18800000000000000         -103.13065338134766
  0.18910000000000005         -84.137886047363281
  0.19020000000000004         -65.209739685058594
  0.19130000000000003         -46.565868377685547
  0.19240000000000002         -28.435918807983398
  0.19350000000000001         -11.022223472595215
  0.19460000000000005          5.4959473609924316
  0.19570000000000004          20.951877593994141
  0.19680000000000003          35.213794708251953
  0.19790000000000002          48.189373016357422
  0.19900000000000001          59.805915832519531
  0.20010000000000000          70.001785278320312
  0.20120000000000005          78.744171142578125
  0.20230000000000004          86.024185180664062
  0.20340000000000003          91.865432739257812
  0.20450000000000002          96.311332702636719
  0.20560000000000000          99.421211242675781
  0.20670000000000005          101.26220703125000
  0.20780000000000004          101.91638946533203
  0.20890000000000003          101.48524475097656
