 -0.12000000000000000          0.0000000000000000
 -0.11889999999999999          0.0000000000000000
 -0.11780000000000000          0.0000000000000000
 -0.11670000000000000          0.0000000000000000
 -0.11559999999999999          0.0000000000000000
 -0.11449999999999999          0.0000000000000000
 -0.11340000000000000          0.0000000000000000
 -0.11230000000000000         -8.6633242803835494E-020
 -0.11119999999999999         -4.1911806996687016E-019
 -0.11009999999999999         -5.4241955077858513E-020
 -0.10900000000000000          4.4136971958303530E-018
 -0.10790000000000000          1.1440909587330174E-017
 -0.10679999999999999         -7.6620896416562149E-018
 -0.10569999999999999         -1.0554804763841932E-016
 -0.10460000000000000         -2.3674920276848437E-016
 -0.10349999999999999         -3.9940912185490473E-017
 -0.10239999999999999          1.0578804118913402E-015
 -0.10130000000000000          2.7927832470947284E-015
 -0.10020000000000000          2.4629312532584852E-015
  -9.9099999999999994E-002    -4.5224215607726943E-015
  -9.7999999999999990E-002    -1.8546674070661628E-014
  -9.6899999999999986E-002    -2.6257626647529890E-014
  -9.5799999999999996E-002    -6.0843223634223648E-016
  -9.4699999999999993E-002     7.3290352465334857E-014
  -9.3599999999999989E-002     1.5235416281431796E-013
  -9.2499999999999999E-002     1.1896908425849256E-013
  -9.1399999999999995E-002    -1.3892410984615855E-013
  -9.0299999999999991E-002    -5.5205221904247592E-013
  -8.9200000000000002E-002    -7.4669404773880510E-013
  -8.8099999999999984E-002    -2.1099726241376182E-013
  -8.6999999999999994E-002     1.1740468623330780E-012
  -8.5899999999999990E-002     2.5883431682693914E-012
  -8.4799999999999986E-002     2.4038509897905680E-012
  -8.3699999999999997E-002    -5.8136676896192174E-013
  -8.2599999999999993E-002    -5.4073603233950607E-012
  -8.1499999999999989E-002    -8.3835282466138139E-012
  -8.0399999999999999E-002    -5.1745309426198816E-012
  -7.9299999999999995E-002     5.0318499367207892E-012
  -7.8199999999999992E-002     1.6555441045840169E-011
  -7.7100000000000002E-002     1.9339082418801112E-011
  -7.5999999999999984E-002     6.6517867602922109E-012
  -7.4899999999999994E-002    -1.6832920474163515E-011
  -7.3799999999999991E-002    -3.4698879186612075E-011
  -7.2699999999999987E-002    -2.9872174178713351E-011
  -7.1599999999999997E-002    -5.1770046582966245E-013
  -7.0499999999999993E-002     3.3481002692514750E-011
  -6.9399999999999989E-002     4.3384480036268158E-011
  -6.8300000000000000E-002     1.7366141510932742E-011
  -6.7199999999999996E-002    -2.2937721166904623E-011
  -6.6099999999999992E-002    -3.5413900978387147E-011
  -6.5000000000000002E-002     3.4198737591806250E-012
  -6.3899999999999985E-002     6.5152098993603857E-011
  -6.2799999999999995E-002     7.9328363322694884E-011
  -6.1699999999999991E-002    -7.6515078994976449E-012
  -6.0599999999999994E-002    -1.6673062930294691E-010
  -5.9499999999999990E-002    -2.7726201889954893E-010
  -5.8399999999999994E-002    -2.0422440127898511E-010
  -5.7299999999999990E-002     8.2472625950735790E-011
  -5.6199999999999986E-002     4.4302039814425598E-010
  -5.5099999999999996E-002     6.3009925055368399E-010
  -5.3999999999999992E-002     4.5644463209093544E-010
  -5.2899999999999989E-002    -4.9948406521949096E-011
  -5.1799999999999985E-002    -6.3061689203891547E-010
  -5.0699999999999995E-002    -9.5130359145656485E-010
  -4.9599999999999991E-002    -8.2157775027624780E-010
  -4.8499999999999988E-002    -3.1514771348106763E-010
  -4.7399999999999998E-002     2.9958663327889212E-010
  -4.6299999999999994E-002     7.5702105695185651E-010
  -4.5199999999999990E-002     9.5528207566530909E-010
  -4.4099999999999986E-002     9.5373731134884565E-010
  -4.2999999999999997E-002     8.2912809951096733E-010
  -4.1899999999999993E-002     5.4238391555827548E-010
  -4.0799999999999989E-002    -3.8990338735445107E-011
  -3.9699999999999985E-002    -9.6168595309364946E-010
  -3.8599999999999995E-002    -2.0056201144313945E-009
  -3.7499999999999992E-002    -2.6850552892199175E-009
  -3.6399999999999988E-002    -2.4833992640083125E-009
  -3.5299999999999984E-002    -1.1846796876824328E-009
  -3.4199999999999994E-002     9.2636470716556119E-010
  -3.3099999999999991E-002     3.1432214608884124E-009
  -3.1999999999999987E-002     4.6547543597341701E-009
  -3.0899999999999997E-002     4.9059609708024254E-009
  -2.9799999999999993E-002     3.7946099595842497E-009
  -2.8699999999999989E-002     1.6187506890474879E-009
  -2.7599999999999986E-002    -1.1478633599182331E-009
  -2.6499999999999996E-002    -4.0817136337523152E-009
  -2.5399999999999992E-002    -6.8898624583368928E-009
  -2.4299999999999988E-002    -9.3127514588786653E-009
  -2.3199999999999985E-002    -1.0948748574435285E-008
  -2.2099999999999995E-002    -1.1163468371933050E-008
  -2.0999999999999991E-002    -9.1902432330925876E-009
  -1.9899999999999987E-002    -4.3669392546519248E-009
  -1.8799999999999983E-002     3.7101399730232743E-009
  -1.7699999999999994E-002     1.5358653016050994E-008
  -1.6599999999999990E-002     3.1358197816189204E-008
  -1.5499999999999986E-002     5.3601343807940793E-008
  -1.4399999999999996E-002     8.5370366775805451E-008
  -1.3299999999999992E-002     1.3090148343053443E-007
  -1.2199999999999989E-002     1.9437180753811845E-007
  -1.1099999999999985E-002     2.7894111553905532E-007
  -9.9999999999999950E-003     3.8659078427372151E-007
  -8.8999999999999913E-003     5.1905624331993749E-007
  -7.7999999999999875E-003     6.7941886072730995E-007
  -6.6999999999999837E-003     8.7345574684150051E-007
  -5.5999999999999939E-003     1.1100324854851351E-006
  -4.4999999999999901E-003     1.4005568118591327E-006
  -3.3999999999999864E-003     1.7582253803993808E-006
  -2.2999999999999826E-003     2.1979344637657050E-006
  -1.1999999999999927E-003     2.7371777377993567E-006
  -9.9999999999988987E-005     3.3974861253227573E-006
   1.0000000000000148E-003     4.2055921767314430E-006
   2.1000000000000185E-003     5.1938081924163271E-006
   3.2000000000000084E-003     6.3998177211033180E-006
   4.3000000000000121E-003     7.8665880209882744E-006
   5.4000000000000159E-003     9.6430694611626677E-006
   6.5000000000000058E-003     1.1785781680373475E-005
   7.6000000000000234E-003     1.4360900422616396E-005
   8.7000000000000133E-003     1.7446242054575123E-005
   9.8000000000000032E-003     2.1132862457307056E-005
   1.0900000000000021E-002     2.5526354875182733E-005
   1.2000000000000011E-002     3.0748258723178878E-005
   1.3100000000000001E-002     3.6937835830030963E-005
   1.4200000000000018E-002     4.4254244130570441E-005
   1.5300000000000008E-002     5.2878927817801014E-005
   1.6400000000000026E-002     6.3017934735398740E-005
   1.7500000000000016E-002     7.4903909990098327E-005
   1.8600000000000005E-002     8.8797823991626501E-005
   1.9700000000000023E-002     1.0499068594072014E-004
   2.0800000000000013E-002     1.2380564294289798E-004
   2.1900000000000003E-002     1.4560068666469306E-004
   2.3000000000000020E-002     1.7077171651180834E-004
   2.4100000000000010E-002     1.9975543546024710E-004
   2.5200000000000000E-002     2.3303111083805561E-004
   2.6300000000000018E-002     2.7112092357128859E-004
   2.7400000000000008E-002     3.1458924058824778E-004
   2.8500000000000025E-002     3.6404145066626370E-004
   2.9600000000000015E-002     4.2012328049167991E-004
   3.0700000000000005E-002     4.8352044541388750E-004
   3.1800000000000023E-002     5.5495806736871600E-004
   3.2900000000000013E-002     6.3519837567582726E-004
   3.4000000000000002E-002     7.2503706905990839E-004
   3.5100000000000020E-002     8.2529737846925855E-004
   3.6200000000000010E-002     9.3682232545688748E-004
   3.7300000000000028E-002     1.0604658164083958E-003
   3.8400000000000017E-002     1.1970818741247058E-003
   3.9500000000000007E-002     1.3475124724209309E-003
   4.0600000000000025E-002     1.5125748468562961E-003
   4.1700000000000015E-002     1.6930463025346398E-003
   4.2800000000000005E-002     1.8896500114351511E-003
   4.3900000000000022E-002     2.1030385978519917E-003
   4.5000000000000012E-002     2.3337751626968384E-003
   4.6100000000000002E-002     2.5823144242167473E-003
   4.7200000000000020E-002     2.8489809483289719E-003
   4.8300000000000010E-002     3.1339460983872414E-003
   4.9400000000000027E-002     3.4372061491012573E-003
   5.0500000000000017E-002     3.7585583049803972E-003
   5.1600000000000007E-002     4.0975795127451420E-003
   5.2700000000000025E-002     4.4536055065691471E-003
   5.3800000000000014E-002     4.8257121816277504E-003
   5.4900000000000004E-002     5.2126995287835598E-003
   5.6000000000000022E-002     5.6130778975784779E-003
   5.7100000000000012E-002     6.0250568203628063E-003
   5.8200000000000002E-002     6.4465352334082127E-003
   5.9300000000000019E-002     6.8750940263271332E-003
   6.0400000000000009E-002     7.3079946450889111E-003
   6.1500000000000027E-002     7.7421842142939568E-003
   6.2600000000000017E-002     8.1743048503994942E-003
   6.3700000000000007E-002     8.6007108911871910E-003
   6.4800000000000024E-002     9.0174926444888115E-003
   6.5900000000000014E-002     9.4205029308795929E-003
   6.7000000000000004E-002     9.8053924739360809E-003
   6.8100000000000022E-002     1.0167655535042286E-002
   6.9200000000000012E-002     1.0502669960260391E-002
   7.0300000000000029E-002     1.0805748403072357E-002
   7.1400000000000019E-002     1.1072195135056973E-002
   7.2500000000000009E-002     1.1297369375824928E-002
   7.3600000000000027E-002     1.1476747691631317E-002
   7.4700000000000016E-002     1.1605989187955856E-002
   7.5800000000000006E-002     1.1681008152663708E-002
   7.6900000000000024E-002     1.1698039248585701E-002
   7.8000000000000014E-002     1.1653709225356579E-002
   7.9100000000000004E-002     1.1545101180672646E-002
   8.0200000000000021E-002     1.1369815096259117E-002
   8.1300000000000011E-002     1.1126030236482620E-002
   8.2400000000000029E-002     1.0812548920512199E-002
   8.3500000000000019E-002     1.0428839363157749E-002
   8.4600000000000009E-002     9.9750682711601257E-003
   8.5700000000000026E-002     9.4521213322877884E-003
   8.6800000000000016E-002     8.8616227731108665E-003
   8.7900000000000006E-002     8.2059381529688835E-003
   8.9000000000000024E-002     7.4881603941321373E-003
   9.0100000000000013E-002     6.7120874300599098E-003
   9.1200000000000003E-002     5.8821840211749077E-003
   9.2300000000000021E-002     5.0035296007990837E-003
   9.3400000000000011E-002     4.0817656554281712E-003
   9.4500000000000028E-002     3.1230244785547256E-003
   9.5600000000000018E-002     2.1338521037250757E-003
   9.6700000000000008E-002     1.1211143573746085E-003
   9.7800000000000026E-002     9.1895293735433370E-005
   9.8900000000000016E-002    -9.4660633476451039E-004
  0.10000000000000001         -1.9871823024004698E-003
  0.10110000000000002         -3.0227184761315584E-003
  0.10220000000000001         -4.0463008917868137E-003
  0.10330000000000003         -5.0513241440057755E-003
  0.10440000000000002         -6.0315961018204689E-003
  0.10550000000000001         -6.9814361631870270E-003
  0.10660000000000003         -7.8957583755254745E-003
  0.10770000000000002         -8.7701510637998581E-003
  0.10880000000000001         -9.6009345725178719E-003
  0.10990000000000003         -1.0385219007730484E-002
  0.11100000000000002         -1.1120944283902645E-002
  0.11210000000000001         -1.1806901544332504E-002
  0.11320000000000002         -1.2442740611732006E-002
  0.11430000000000001         -1.3028958812355995E-002
  0.11540000000000003         -1.3566867448389530E-002
  0.11650000000000002         -1.4058552682399750E-002
  0.11760000000000001         -1.4506815932691097E-002
  0.11870000000000003         -1.4915106818079948E-002
  0.11980000000000002         -1.5287428162992001E-002
  0.12090000000000001         -1.5628244727849960E-002
  0.12200000000000003         -1.5942364931106567E-002
  0.12310000000000001         -1.6234826296567917E-002
  0.12420000000000003         -1.6510773450136185E-002
  0.12530000000000002         -1.6775336116552353E-002
  0.12640000000000001         -1.7033481970429420E-002
  0.12750000000000003         -1.7289891839027405E-002
  0.12860000000000002         -1.7548831179738045E-002
  0.12970000000000001         -1.7814025282859802E-002
  0.13080000000000003         -1.8088562414050102E-002
  0.13190000000000002         -1.8374782055616379E-002
  0.13300000000000001         -1.8674181774258614E-002
  0.13410000000000000         -1.8987333402037621E-002
  0.13520000000000004         -1.9313821569085121E-002
  0.13630000000000003         -1.9652199000120163E-002
  0.13740000000000002         -1.9999980926513672E-002
  0.13850000000000001         -2.0353641360998154E-002
  0.13960000000000000         -2.0708618685603142E-002
  0.14070000000000005         -2.1059349179267883E-002
  0.14180000000000004         -2.1399322897195816E-002
  0.14290000000000003         -2.1721161901950836E-002
  0.14400000000000002         -2.2016735747456551E-002
  0.14510000000000001         -2.2277284413576126E-002
  0.14620000000000000         -2.2493544965982437E-002
  0.14730000000000004         -2.2655908018350601E-002
  0.14840000000000003         -2.2754561156034470E-002
  0.14950000000000002         -2.2779667750000954E-002
  0.15060000000000001         -2.2721560671925545E-002
  0.15170000000000000         -2.2570939734578133E-002
  0.15280000000000005         -2.2319057956337929E-002
  0.15390000000000004         -2.1957896649837494E-002
  0.15500000000000003         -2.1480342373251915E-002
  0.15610000000000002         -2.0880360156297684E-002
  0.15720000000000001         -2.0153161138296127E-002
  0.15830000000000000         -1.9295345991849899E-002
  0.15940000000000004         -1.8305037170648575E-002
  0.16050000000000003         -1.7181970179080963E-002
  0.16160000000000002         -1.5927568078041077E-002
  0.16270000000000001         -1.4545000158250332E-002
  0.16380000000000000         -1.3039208948612213E-002
  0.16490000000000005         -1.1416907422244549E-002
  0.16600000000000004         -9.6865408122539520E-003
  0.16710000000000003         -7.8582139685750008E-003
  0.16820000000000002         -5.9435991570353508E-003
  0.16930000000000001         -3.9558145217597485E-003
  0.17040000000000000         -1.9092817092314363E-003
  0.17150000000000004          1.8044655735138804E-004
  0.17260000000000003          2.2968864068388939E-003
  0.17370000000000002          4.4228406623005867E-003
  0.17480000000000001          6.5406262874603271E-003
  0.17590000000000000          8.6323088034987450E-003
  0.17700000000000005          1.0679938830435276E-002
  0.17810000000000004          1.2665799818933010E-002
  0.17920000000000003          1.4572656713426113E-002
  0.18030000000000002          1.6383996233344078E-002
  0.18140000000000001          1.8084254115819931E-002
  0.18250000000000000          1.9659029319882393E-002
  0.18360000000000004          2.1095264703035355E-002
  0.18470000000000003          2.2381408140063286E-002
  0.18580000000000002          2.3507568985223770E-002
  0.18690000000000001          2.4465644732117653E-002
  0.18800000000000000          2.5249406695365906E-002
  0.18910000000000005          2.5854567065834999E-002
  0.19020000000000004          2.6278803125023842E-002
  0.19130000000000003          2.6521733030676842E-002
  0.19240000000000002          2.6584902778267860E-002
  0.19350000000000001          2.6471732184290886E-002
  0.19460000000000005          2.6187445968389511E-002
  0.19570000000000004          2.5738943368196487E-002
  0.19680000000000003          2.5134678930044174E-002
  0.19790000000000002          2.4384500458836555E-002
  0.19900000000000001          2.3499483242630959E-002
  0.20010000000000000          2.2491754963994026E-002
  0.20120000000000005          2.1374322474002838E-002
  0.20230000000000004          2.0160883665084839E-002
  0.20340000000000003          1.8865633755922318E-002
  0.20450000000000002          1.7503054812550545E-002
  0.20560000000000000          1.6087744385004044E-002
  0.20670000000000005          1.4634226448833942E-002
  0.20780000000000004          1.3156799599528313E-002
  0.20890000000000003          1.1669381521642208E-002
