 -0.12000000000000000          0.0000000000000000
 -0.11889999999999999          0.0000000000000000
 -0.11780000000000000          0.0000000000000000
 -0.11670000000000000          0.0000000000000000
 -0.11559999999999999          0.0000000000000000
 -0.11449999999999999          0.0000000000000000
 -0.11340000000000000          0.0000000000000000
 -0.11230000000000000          0.0000000000000000
 -0.11119999999999999          0.0000000000000000
 -0.11009999999999999         -1.3574530486280599E-026
 -0.10900000000000000          4.2071246300359188E-027
 -0.10790000000000000         -1.8970216434773461E-025
 -0.10679999999999999         -3.9906832364448128E-024
 -0.10569999999999999         -1.3579617283264594E-023
 -0.10460000000000000          1.3424877483540061E-023
 -0.10349999999999999          1.6246602964801222E-022
 -0.10239999999999999          1.3768569980448562E-022
 -0.10130000000000000         -1.3419141455017145E-021
 -0.10020000000000000         -4.2536551310189029E-021
  -9.9099999999999994E-002     6.7158422348139522E-022
  -9.7999999999999990E-002     3.1262186189842098E-020
  -9.6899999999999986E-002     6.7105518331853073E-020
  -9.5799999999999996E-002    -3.0249762356516942E-020
  -9.4699999999999993E-002    -4.2962349639084089E-019
  -9.3599999999999989E-002    -8.0203349475080308E-019
  -9.2499999999999999E-002     2.5651811713216167E-019
  -9.1399999999999995E-002     4.0977266095442848E-018
  -9.0299999999999991E-002     7.7138206899846687E-018
  -8.9200000000000002E-002     1.2538403725078793E-019
  -8.8099999999999984E-002    -2.8809158870560155E-017
  -8.6999999999999994E-002    -6.0155558612506264E-017
  -8.5899999999999990E-002    -2.4017890534636604E-017
  -8.4799999999999986E-002     1.5043688955040599E-016
  -8.3699999999999997E-002     3.7891267153680437E-016
  -8.2599999999999993E-002     2.9199324745378147E-016
  -8.1499999999999989E-002    -5.4936921126534535E-016
  -8.0399999999999999E-002    -1.9139173193749538E-015
  -7.9299999999999995E-002    -2.1807346035841897E-015
  -7.8199999999999992E-002     9.8282461067689987E-016
  -7.7100000000000002E-002     7.6099278042821884E-015
  -7.5999999999999984E-002     1.1899581323017612E-014
  -7.4899999999999994E-002     3.4079252549286398E-015
  -7.3799999999999991E-002    -2.2554076729614132E-014
  -7.2699999999999987E-002    -4.9895546407659891E-014
  -7.1599999999999997E-002    -3.9645776895788631E-014
  -7.0499999999999993E-002     4.0415153862438657E-014
  -6.9399999999999989E-002     1.6122898101236099E-013
  -6.8300000000000000E-002     2.0365844698600616E-013
  -6.7199999999999996E-002     2.3565527242259965E-014
  -6.6099999999999992E-002    -3.8120686620367328E-013
  -6.5000000000000002E-002    -7.2413613733807169E-013
  -6.3899999999999985E-002    -5.1544315690654763E-013
  -6.2799999999999995E-002     5.1516516746952234E-013
  -6.1699999999999991E-002     1.8888963743829423E-012
  -6.0599999999999994E-002     2.3014387704606287E-012
  -5.9499999999999990E-002     4.6620140473768723E-013
  -5.8399999999999994E-002    -3.3888642760049326E-012
  -5.7299999999999990E-002    -6.6075322296965666E-012
  -5.6199999999999986E-002    -5.2442473107150445E-012
  -5.5099999999999996E-002     2.5655493354759251E-012
  -5.3999999999999992E-002     1.3188674111153098E-011
  -5.2899999999999989E-002     1.7688926712278175E-011
  -5.1799999999999985E-002     7.6895963554979296E-012
  -5.0699999999999995E-002    -1.5809999143190367E-011
  -4.9599999999999991E-002    -3.8018761749913921E-011
  -4.8499999999999988E-002    -3.7228595206606485E-011
  -4.7399999999999998E-002    -2.0823186924756598E-012
  -4.6299999999999994E-002     5.2479208478839467E-011
  -4.5199999999999990E-002     8.6649569464025689E-011
  -4.4099999999999986E-002     6.1142500784594489E-011
  -4.2999999999999997E-002    -2.6969065869408837E-011
  -4.1899999999999993E-002    -1.2698218865292432E-010
  -4.0799999999999989E-002    -1.5899109806483125E-010
  -3.9699999999999985E-002    -7.3204949047056544E-011
  -3.8599999999999995E-002     9.7089433714891982E-011
  -3.7499999999999992E-002     2.3829072048897615E-010
  -3.6399999999999988E-002     2.2976966163046342E-010
  -3.5299999999999984E-002     4.3640202562755803E-011
  -3.4199999999999994E-002    -2.0927289068328747E-010
  -3.3099999999999991E-002    -3.4140204552279840E-010
  -3.1999999999999987E-002    -2.3043890406970746E-010
  -3.0899999999999997E-002     6.4625360618464356E-011
  -2.9799999999999993E-002     3.2151034612404317E-010
  -2.8699999999999989E-002     3.1994906724008843E-010
  -2.7599999999999986E-002     3.8199443608277761E-011
  -2.6499999999999996E-002    -2.8994223688627585E-010
  -2.5399999999999992E-002    -3.4093544654112407E-010
  -2.4299999999999988E-002     1.0173167863669619E-011
  -2.3199999999999985E-002     5.1518728172439410E-010
  -2.2099999999999995E-002     6.8265570973835565E-010
  -2.0999999999999991E-002     1.7396220575172094E-010
  -1.9899999999999987E-002    -8.2312900939740530E-010
  -1.8799999999999983E-002    -1.5867350766640698E-009
  -1.7699999999999994E-002    -1.3273189214402237E-009
  -1.6599999999999990E-002     1.4880413568008066E-010
  -1.5499999999999986E-002     2.0934647348980207E-009
  -1.4399999999999996E-002     3.1571556480258778E-009
  -1.3299999999999992E-002     2.2987425296605579E-009
  -1.2199999999999989E-002    -3.4332714449192281E-010
  -1.1099999999999985E-002    -3.3159377466063233E-009
  -9.9999999999999950E-003    -4.6914840901024490E-009
  -8.8999999999999913E-003    -3.3918141628674903E-009
  -7.7999999999999875E-003    -4.7785553292101213E-011
  -6.6999999999999837E-003     3.3229281548585732E-009
  -5.5999999999999939E-003     4.6986077251176539E-009
  -4.4999999999999901E-003     3.5174645418578621E-009
  -3.3999999999999864E-003     1.0628600222162277E-009
  -2.2999999999999826E-003    -6.4192617887925962E-010
  -1.1999999999999927E-003    -6.3992239285326491E-010
  -9.9999999999988987E-005    -3.7010144948723678E-011
   1.0000000000000148E-003    -1.1313106007548868E-009
   2.1000000000000185E-003    -5.0797495099175194E-009
   3.2000000000000084E-003    -9.9281649568183639E-009
   4.3000000000000121E-003    -1.0987816878582635E-008
   5.4000000000000159E-003    -4.0152046132391206E-009
   6.5000000000000058E-003     1.0656928672858612E-008
   7.6000000000000234E-003     2.6241977479912748E-008
   8.7000000000000133E-003     3.2148228967798786E-008
   9.8000000000000032E-003     2.0448869264555469E-008
   1.0900000000000021E-002    -7.6485084932187419E-009
   1.2000000000000011E-002    -4.0033871329114845E-008
   1.3100000000000001E-002    -5.8895079035892195E-008
   1.4200000000000018E-002    -5.0659327399671383E-008
   1.5300000000000008E-002    -1.4858263952532980E-008
   1.6400000000000026E-002     3.3908804653037805E-008
   1.7500000000000016E-002     7.2785468319125357E-008
   1.8600000000000005E-002     8.2609624030283157E-008
   1.9700000000000023E-002     5.7990476420854975E-008
   2.0800000000000013E-002     9.6067971355751069E-009
   2.1900000000000003E-002    -4.2252391807551248E-008
   2.3000000000000020E-002    -7.8469547304393927E-008
   2.4100000000000010E-002    -8.9500865385616635E-008
   2.5200000000000000E-002    -7.6941724103107845E-008
   2.6300000000000018E-002    -4.8725784296266283E-008
   2.7400000000000008E-002    -1.2445726227383602E-008
   2.8500000000000025E-002     2.8285636943792269E-008
   2.9600000000000015E-002     7.2537609696610161E-008
   3.0700000000000005E-002     1.1777764541420765E-007
   3.1800000000000023E-002     1.5630612892891804E-007
   3.2900000000000013E-002     1.7487032266672031E-007
   3.4000000000000002E-002     1.5730708469163801E-007
   3.5100000000000020E-002     8.8624688032723498E-008
   3.6200000000000010E-002    -4.0270830226063481E-008
   3.7300000000000028E-002    -2.2641170005499589E-007
   3.8400000000000017E-002    -4.4659802256319381E-007
   3.9500000000000007E-002    -6.4978104319379781E-007
   4.0600000000000025E-002    -7.5651985298463842E-007
   4.1700000000000015E-002    -6.7271849957251106E-007
   4.2800000000000005E-002    -3.1954445489645877E-007
   4.3900000000000022E-002     3.2815896133797651E-007
   4.5000000000000012E-002     1.2105454061384080E-006
   4.6100000000000002E-002     2.1739706426160410E-006
   4.7200000000000020E-002     2.9904356324550463E-006
   4.8300000000000010E-002     3.3969565720326500E-006
   4.9400000000000027E-002     3.1374345326184994E-006
   5.0500000000000017E-002     1.9917326881113695E-006
   5.1600000000000007E-002    -2.1174787434574682E-007
   5.2700000000000025E-002    -3.5920261325372849E-006
   5.3800000000000014E-002    -8.2103188105975278E-006
   5.4900000000000004E-002    -1.4064405149838421E-005
   5.6000000000000022E-002    -2.1097479475429282E-005
   5.7100000000000012E-002    -2.9240456569823436E-005
   5.8200000000000002E-002    -3.8492653402499855E-005
   5.9300000000000019E-002    -4.9019701691577211E-005
   6.0400000000000009E-002    -6.1227663536556065E-005
   6.1500000000000027E-002    -7.5776362791657448E-005
   6.2600000000000017E-002    -9.3526497948914766E-005
   6.3700000000000007E-002    -1.1545655434019864E-004
   6.4800000000000024E-002    -1.4260967145673931E-004
   6.5900000000000014E-002    -1.7611718794796616E-004
   6.7000000000000004E-002    -2.1729903528466821E-004
   6.8100000000000022E-002    -2.6779039762914181E-004
   6.9200000000000012E-002    -3.2962538534775376E-004
   7.0300000000000029E-002    -4.0523725328966975E-004
   7.1400000000000019E-002    -4.9739726819097996E-004
   7.2500000000000009E-002    -6.0916860820725560E-004
   7.3600000000000027E-002    -7.4395711999386549E-004
   7.4700000000000016E-002    -9.0568885207176208E-004
   7.5800000000000006E-002    -1.0990628506988287E-003
   7.6900000000000024E-002    -1.3297715922817588E-003
   7.8000000000000014E-002    -1.6045898664742708E-003
   7.9100000000000004E-002    -1.9313097000122070E-003
   8.0200000000000021E-002    -2.3185980971902609E-003
   8.1300000000000011E-002    -2.7759154327213764E-003
   8.2400000000000029E-002    -3.3136070705950260E-003
   8.3500000000000019E-002    -3.9431932382285595E-003
   8.4600000000000009E-002    -4.6777636744081974E-003
   8.5700000000000026E-002    -5.5323247797787189E-003
   8.6800000000000016E-002    -6.5239612013101578E-003
   8.7900000000000006E-002    -7.6717627234756947E-003
   8.9000000000000024E-002    -8.9965872466564178E-003
   9.0100000000000013E-002    -1.0520786046981812E-002
   9.1200000000000003E-002    -1.2268030084669590E-002
   9.2300000000000021E-002    -1.4263279736042023E-002
   9.3400000000000011E-002    -1.6532875597476959E-002
   9.4500000000000028E-002    -1.9104670733213425E-002
   9.5600000000000018E-002    -2.2008106112480164E-002
   9.6700000000000008E-002    -2.5274140760302544E-002
   9.7800000000000026E-002    -2.8935018926858902E-002
   9.8900000000000016E-002    -3.3023834228515625E-002
  0.10000000000000001         -3.7573914974927902E-002
  0.10110000000000002         -4.2618058621883392E-002
  0.10220000000000001         -4.8187632113695145E-002
  0.10330000000000003         -5.4311677813529968E-002
  0.10440000000000002         -6.1016049236059189E-002
  0.10550000000000001         -6.8322636187076569E-002
  0.10660000000000003         -7.6248720288276672E-002
  0.10770000000000002         -8.4806278347969055E-002
  0.10880000000000001         -9.4001173973083496E-002
  0.10990000000000003        -0.10383210331201553
  0.11100000000000002        -0.11428919434547424
  0.11210000000000001        -0.12535242736339569
  0.11320000000000002        -0.13698995113372803
  0.11430000000000001        -0.14915663003921509
  0.11540000000000003        -0.16179282963275909
  0.11650000000000002        -0.17482359707355499
  0.11760000000000001        -0.18815800547599792
  0.11870000000000003        -0.20168893039226532
  0.11980000000000002        -0.21529287099838257
  0.12090000000000001        -0.22882974147796631
  0.12200000000000003        -0.24214267730712891
  0.12310000000000001        -0.25505802035331726
  0.12420000000000003        -0.26738563179969788
  0.12530000000000002        -0.27891969680786133
  0.12640000000000001        -0.28944039344787598
  0.12750000000000003        -0.29871615767478943
  0.12860000000000002        -0.30650654435157776
  0.12970000000000001        -0.31256562471389771
  0.13080000000000003        -0.31664538383483887
  0.13190000000000002        -0.31849908828735352
  0.13300000000000001        -0.31788495182991028
  0.13410000000000000        -0.31457030773162842
  0.13520000000000004        -0.30833601951599121
  0.13630000000000003        -0.29898113012313843
  0.13740000000000002        -0.28632822632789612
  0.13850000000000001        -0.27022901177406311
  0.13960000000000000        -0.25056934356689453
  0.14070000000000005        -0.22727382183074951
  0.14180000000000004        -0.20031011104583740
  0.14290000000000003        -0.16969272494316101
  0.14400000000000002        -0.13548615574836731
  0.14510000000000001         -9.7807496786117554E-002
  0.14620000000000000         -5.6828588247299194E-002
  0.14730000000000004         -1.2777011841535568E-002
  0.14840000000000003          3.4063868224620819E-002
  0.14950000000000002          8.3355665206909180E-002
  0.15060000000000001         0.13470698893070221
  0.15170000000000000         0.18767625093460083
  0.15280000000000005         0.24177564680576324
  0.15390000000000004         0.29647633433341980
  0.15500000000000003         0.35121458768844604
  0.15610000000000002         0.40539935231208801
  0.15720000000000001         0.45842039585113525
  0.15830000000000000         0.50965702533721924
  0.15940000000000004         0.55848765373229980
  0.16050000000000003         0.60429942607879639
  0.16160000000000002         0.64649814367294312
  0.16270000000000001         0.68451821804046631
  0.16380000000000000         0.71783250570297241
  0.16490000000000005         0.74596172571182251
  0.16600000000000004         0.76848286390304565
  0.16710000000000003         0.78503680229187012
  0.16820000000000002         0.79533529281616211
  0.16930000000000001         0.79916691780090332
  0.17040000000000000         0.79640179872512817
  0.17150000000000004         0.78699529170989990
  0.17260000000000003         0.77099019289016724
  0.17370000000000002         0.74851685762405396
  0.17480000000000001         0.71979153156280518
  0.17590000000000000         0.68511325120925903
  0.17700000000000005         0.64485907554626465
  0.17810000000000004         0.59947788715362549
  0.17920000000000003         0.54948347806930542
  0.18030000000000002         0.49544626474380493
  0.18140000000000001         0.43798425793647766
  0.18250000000000000         0.37775346636772156
  0.18360000000000004         0.31543749570846558
  0.18470000000000003         0.25173720717430115
  0.18580000000000002         0.18735963106155396
  0.18690000000000001         0.12300670892000198
  0.18800000000000000          5.9364564716815948E-002
  0.18910000000000005         -2.9071141034364700E-003
  0.19020000000000004         -6.3184767961502075E-002
  0.19130000000000003        -0.12088944017887115
  0.19240000000000002        -0.17549405992031097
  0.19350000000000001        -0.22652921080589294
  0.19460000000000005        -0.27358785271644592
  0.19570000000000004        -0.31632900238037109
  0.19680000000000003        -0.35448023676872253
  0.19790000000000002        -0.38783895969390869
  0.19900000000000001        -0.41627228260040283
  0.20010000000000000        -0.43971586227416992
  0.20120000000000005        -0.45817127823829651
  0.20230000000000004        -0.47170218825340271
  0.20340000000000003        -0.48042976856231689
  0.20450000000000002        -0.48452734947204590
  0.20560000000000000        -0.48421460390090942
  0.20670000000000005        -0.47975116968154907
  0.20780000000000004        -0.47142937779426575
  0.20890000000000003        -0.45956718921661377
