-1.199999999999999956e-01 0.000000000000000000e+00
-1.189999999999999947e-01 0.000000000000000000e+00
-1.179999999999999938e-01 0.000000000000000000e+00
-1.170000000000000068e-01 0.000000000000000000e+00
-1.160000000000000059e-01 0.000000000000000000e+00
-1.150000000000000050e-01 0.000000000000000000e+00
-1.140000000000000041e-01 0.000000000000000000e+00
-1.130000000000000032e-01 0.000000000000000000e+00
-1.120000000000000023e-01 0.000000000000000000e+00
-1.110000000000000014e-01 0.000000000000000000e+00
-1.100000000000000006e-01 0.000000000000000000e+00
-1.089999999999999997e-01 0.000000000000000000e+00
-1.079999999999999988e-01 0.000000000000000000e+00
-1.069999999999999979e-01 0.000000000000000000e+00
-1.059999999999999970e-01 0.000000000000000000e+00
-1.049999999999999961e-01 0.000000000000000000e+00
-1.039999999999999952e-01 0.000000000000000000e+00
-1.029999999999999943e-01 0.000000000000000000e+00
-1.019999999999999934e-01 0.000000000000000000e+00
-1.010000000000000064e-01 0.000000000000000000e+00
-1.000000000000000056e-01 0.000000000000000000e+00
-9.900000999999999940e-02 0.000000000000000000e+00
-9.800000000000000377e-02 0.000000000000000000e+00
-9.700000000000000289e-02 0.000000000000000000e+00
-9.600000000000000200e-02 0.000000000000000000e+00
-9.500000999999999585e-02 0.000000000000000000e+00
-9.400000000000000022e-02 0.000000000000000000e+00
-9.299999999999999933e-02 0.000000000000000000e+00
-9.200000999999999318e-02 0.000000000000000000e+00
-9.100001000000000617e-02 0.000000000000000000e+00
-8.999999999999999667e-02 0.000000000000000000e+00
-8.899999999999999578e-02 0.000000000000000000e+00
-8.799999999999999489e-02 0.000000000000000000e+00
-8.699999999999999400e-02 0.000000000000000000e+00
-8.599999999999999312e-02 0.000000000000000000e+00
-8.500001000000000084e-02 0.000000000000000000e+00
-8.400000999999999995e-02 0.000000000000000000e+00
-8.300000000000000433e-02 0.000000000000000000e+00
-8.200000000000000344e-02 0.000000000000000000e+00
-8.100000000000000255e-02 0.000000000000000000e+00
-8.000000000000000167e-02 0.000000000000000000e+00
-7.900000000000000078e-02 0.000000000000000000e+00
-7.799999999999999989e-02 0.000000000000000000e+00
-7.700000999999999374e-02 0.000000000000000000e+00
-7.600001000000000673e-02 0.000000000000000000e+00
-7.499999999999999722e-02 0.000000000000000000e+00
-7.399999999999999634e-02 0.000000000000000000e+00
-7.299999999999999545e-02 0.000000000000000000e+00
-7.199999999999999456e-02 0.000000000000000000e+00
-7.099999999999999367e-02 0.000000000000000000e+00
-7.000001000000000140e-02 0.000000000000000000e+00
-6.900001000000000051e-02 0.000000000000000000e+00
-6.800000000000000488e-02 0.000000000000000000e+00
-6.700000000000000400e-02 0.000000000000000000e+00
-6.600000000000000311e-02 0.000000000000000000e+00
-6.500000000000000222e-02 0.000000000000000000e+00
-6.400000000000000133e-02 0.000000000000000000e+00
-6.300000000000000044e-02 0.000000000000000000e+00
-6.199999999999999956e-02 0.000000000000000000e+00
-6.099999999999999867e-02 0.000000000000000000e+00
-5.999999999999999778e-02 0.000000000000000000e+00
-5.899999999999999689e-02 0.000000000000000000e+00
-5.800000000000000294e-02 0.000000000000000000e+00
-5.700000000000000205e-02 0.000000000000000000e+00
-5.600000000000000117e-02 0.000000000000000000e+00
-5.500000000000000028e-02 0.000000000000000000e+00
-5.400001000000000106e-02 0.000000000000000000e+00
-5.299999999999999850e-02 0.000000000000000000e+00
-5.199999999999999761e-02 0.000000000000000000e+00
-5.099999999999999672e-02 0.000000000000000000e+00
-5.000000000000000278e-02 0.000000000000000000e+00
-4.900000000000000189e-02 0.000000000000000000e+00
-4.800000000000000100e-02 0.000000000000000000e+00
-4.700000000000000011e-02 0.000000000000000000e+00
-4.599999999999999922e-02 0.000000000000000000e+00
-4.499999999999999833e-02 0.000000000000000000e+00
-4.399999999999999745e-02 -0.000000000000000000e+00
-4.299999999999999656e-02 1.681558157189780485e-44
-4.200000000000000261e-02 -1.705380231083302375e-41
-4.100000000000000172e-02 nan
-4.000000000000000083e-02 nan
-3.899999999999999994e-02 nan
-3.799999999999999906e-02 nan
-3.699999999999999817e-02 nan
-3.599999999999999728e-02 nan
-3.500000000000000333e-02 nan
-3.400000000000000244e-02 nan
-3.300000000000000155e-02 nan
-3.200000000000000067e-02 nan
-3.099999999999999978e-02 nan
-2.999999999999999889e-02 nan
-2.900000000000000147e-02 nan
-2.800000000000000058e-02 nan
-2.699999999999999969e-02 nan
-2.599999999999999881e-02 nan
-2.500000000000000139e-02 nan
-2.400000000000000050e-02 nan
-2.299999999999999961e-02 nan
-2.199999999999999872e-02 nan
-2.100000000000000130e-02 nan
-2.000000000000000042e-02 nan
-1.899999999999999953e-02 nan
-1.799999999999999864e-02 nan
-1.700000000000000122e-02 nan
-1.600000000000000033e-02 nan
-1.499999999999999944e-02 nan
-1.400000000000000029e-02 nan
-1.299999999999999940e-02 nan
-1.200000000000000025e-02 nan
-1.099999999999999936e-02 nan
-9.999997999999999526e-03 nan
-8.999995999999999691e-03 nan
-8.000000999999999640e-03 nan
-6.999998999999999805e-03 nan
-5.999996999999999969e-03 nan
-5.000003000000000260e-03 nan
-4.000001000000000424e-03 nan
-2.999999000000000155e-03 nan
-1.999996999999999886e-03 nan
-1.000002000000000052e-03 nan
0.000000000000000000e+00 nan
1.000002000000000052e-03 nan
2.000004000000000105e-03 nan
2.999999000000000155e-03 nan
4.000001000000000424e-03 nan
4.999995000000000134e-03 nan
5.999996999999999969e-03 nan
6.999998999999999805e-03 nan
8.000000999999999640e-03 nan
9.000002999999999476e-03 nan
1.000001000000000015e-02 nan
1.100000999999999930e-02 nan
1.199999000000000031e-02 nan
1.299999999999999940e-02 nan
1.400000000000000029e-02 nan
1.499999999999999944e-02 nan
1.600000000000000033e-02 nan
1.700000000000000122e-02 nan
1.800001000000000032e-02 nan
1.900001000000000120e-02 nan
2.000000000000000042e-02 nan
2.100000000000000130e-02 nan
2.199999999999999872e-02 nan
2.299999999999999961e-02 nan
2.400000000000000050e-02 nan
2.500000999999999959e-02 nan
2.600001000000000048e-02 nan
2.699999999999999969e-02 nan
2.800000000000000058e-02 nan
2.900000000000000147e-02 nan
2.999999999999999889e-02 nan
3.099999999999999978e-02 nan
3.200001000000000234e-02 nan
3.300001000000000323e-02 nan
3.400000999999999718e-02 nan
3.500000000000000333e-02 nan
3.599999999999999728e-02 nan
3.699999999999999817e-02 nan
3.799999999999999906e-02 nan
3.899999999999999994e-02 nan
4.000001000000000251e-02 nan
4.100001000000000340e-02 nan
4.200000000000000261e-02 nan
4.299999999999999656e-02 nan
4.399999999999999745e-02 nan
4.499999999999999833e-02 nan
4.599999999999999922e-02 nan
4.700001000000000179e-02 nan
4.800001000000000267e-02 nan
4.900000999999999662e-02 nan
5.000000000000000278e-02 nan
5.099999999999999672e-02 nan
5.199999999999999761e-02 nan
5.299999999999999850e-02 nan
5.400001000000000106e-02 nan
5.500001000000000195e-02 nan
5.600001000000000284e-02 nan
5.700000000000000205e-02 nan
5.800000000000000294e-02 nan
5.899999999999999689e-02 nan
5.999999999999999778e-02 nan
6.099999999999999867e-02 nan
6.200001000000000123e-02 nan
6.300000999999999518e-02 nan
6.400000999999999607e-02 nan
6.500000000000000222e-02 nan
6.600000000000000311e-02 nan
6.700000000000000400e-02 nan
6.800000000000000488e-02 nan
6.900001000000000051e-02 nan
7.000001000000000140e-02 nan
7.100001000000000229e-02 nan
7.199999999999999456e-02 nan
7.299999999999999545e-02 nan
7.399999999999999634e-02 nan
7.499999999999999722e-02 nan
7.600001000000000673e-02 nan
7.700000999999999374e-02 nan
7.800000999999999463e-02 nan
7.900000999999999551e-02 nan
8.000000000000000167e-02 nan
8.100000000000000255e-02 nan
8.200000000000000344e-02 nan
8.300000000000000433e-02 nan
8.400000999999999995e-02 nan
8.500001000000000084e-02 nan
8.600001000000000173e-02 nan
8.700001000000000262e-02 nan
8.799999999999999489e-02 nan
8.899999999999999578e-02 nan
8.999999999999999667e-02 nan
9.100001000000000617e-02 nan
9.200000999999999318e-02 nan
9.300000999999999407e-02 nan
9.400000999999999496e-02 nan
9.500000000000000111e-02 nan
9.600000000000000200e-02 nan
9.700000000000000289e-02 nan
9.800000000000000377e-02 nan
9.900000999999999940e-02 nan
1.000000000000000056e-01 nan
1.010000000000000064e-01 nan
1.019999999999999934e-01 nan
1.029999999999999943e-01 nan
1.039999999999999952e-01 nan
1.049999999999999961e-01 nan
1.059999999999999970e-01 nan
1.069999999999999979e-01 nan
1.079999999999999988e-01 nan
1.089999999999999997e-01 nan
1.100000000000000006e-01 nan
1.110000000000000014e-01 nan
1.120000000000000023e-01 nan
1.130000000000000032e-01 nan
1.140000000000000041e-01 nan
1.150000000000000050e-01 nan
1.160000000000000059e-01 nan
1.170000000000000068e-01 nan
1.179999999999999938e-01 nan
1.189999999999999947e-01 nan
1.199999999999999956e-01 nan
1.209999999999999964e-01 nan
1.219999999999999973e-01 nan
1.229999999999999982e-01 nan
1.239999999999999991e-01 nan
1.250000000000000000e-01 nan
1.260000000000000009e-01 nan
1.270000000000000018e-01 nan
1.280000000000000027e-01 nan
1.290000000000000036e-01 nan
1.300000000000000044e-01 nan
1.310000000000000053e-01 nan
1.320000000000000062e-01 nan
1.330000000000000071e-01 nan
1.340000000000000080e-01 nan
1.350000000000000089e-01 nan
1.360000000000000098e-01 nan
1.370000000000000107e-01 nan
1.380000000000000115e-01 nan
1.390000000000000124e-01 nan
1.400000000000000133e-01 nan
1.409999999999999865e-01 nan
1.419999999999999873e-01 nan
1.429999999999999882e-01 nan
1.439999999999999891e-01 nan
1.449999999999999900e-01 nan
1.459999999999999909e-01 nan
1.469999999999999918e-01 nan
1.479999999999999927e-01 nan
1.489999999999999936e-01 nan
1.499999999999999944e-01 nan
1.509999999999999953e-01 nan
1.519999999999999962e-01 nan
1.529999999999999971e-01 nan
1.539999999999999980e-01 nan
1.549999999999999989e-01 nan
1.559999999999999998e-01 nan
1.570000000000000007e-01 nan
1.580000000000000016e-01 nan
1.590000000000000024e-01 nan
1.600000000000000033e-01 nan
1.610000000000000042e-01 nan
1.620000000000000051e-01 nan
1.630000000000000060e-01 nan
1.640000000000000069e-01 nan
1.650000000000000078e-01 nan
1.660000000000000087e-01 nan
1.670000000000000095e-01 nan
1.680000000000000104e-01 nan
1.690000000000000113e-01 nan
1.700000000000000122e-01 nan
1.710000000000000131e-01 nan
1.719999999999999862e-01 nan
1.729999999999999871e-01 nan
1.739999999999999880e-01 nan
1.749999999999999889e-01 nan
1.759999999999999898e-01 nan
1.769999999999999907e-01 nan
1.779999999999999916e-01 nan
1.789999999999999925e-01 nan
1.799999999999999933e-01 nan
1.809999999999999942e-01 nan
1.819999999999999951e-01 nan
1.829999999999999960e-01 nan
1.839999999999999969e-01 nan
1.849999999999999978e-01 nan
1.859999999999999987e-01 nan
1.869999999999999996e-01 nan
1.880000000000000004e-01 nan
1.890000000000000013e-01 nan
1.900000000000000022e-01 nan
1.910000000000000031e-01 nan
1.920000000000000040e-01 nan
1.930000000000000049e-01 nan
1.940000000000000058e-01 nan
1.950000000000000067e-01 nan
1.960000000000000075e-01 nan
1.970000000000000084e-01 nan
1.980000000000000093e-01 nan
1.990000000000000102e-01 nan
2.000000000000000111e-01 nan
2.010000000000000120e-01 nan
2.020000000000000129e-01 nan
2.030000000000000138e-01 nan
2.039999999999999869e-01 nan
2.049999999999999878e-01 nan
2.059999999999999887e-01 nan
2.069999999999999896e-01 nan
2.079999999999999905e-01 nan
2.089999999999999913e-01 nan
2.099999999999999922e-01 nan
2.109999999999999931e-01 nan
2.119999999999999940e-01 nan
2.129999999999999949e-01 nan
2.139999999999999958e-01 nan
2.149999999999999967e-01 nan
2.159999999999999976e-01 nan
2.169999999999999984e-01 nan
2.179999999999999993e-01 nan
2.190000000000000002e-01 nan
2.200000000000000011e-01 nan
2.210000000000000020e-01 nan
2.220000000000000029e-01 nan
2.230000000000000038e-01 nan
2.240000000000000047e-01 nan
2.250000000000000056e-01 nan
2.260000000000000064e-01 nan
2.270000000000000073e-01 nan
2.280000000000000082e-01 nan
2.290000000000000091e-01 nan
2.300000000000000100e-01 nan
2.310000000000000109e-01 nan
2.320000000000000118e-01 nan
2.330000000000000127e-01 nan
2.340000000000000135e-01 nan
2.349999999999999867e-01 nan
2.359999999999999876e-01 nan
2.369999999999999885e-01 nan
2.379999999999999893e-01 nan
2.389999999999999902e-01 nan
2.399999999999999911e-01 nan
2.409999999999999920e-01 nan
2.419999999999999929e-01 nan
2.429999999999999938e-01 nan
2.439999999999999947e-01 nan
2.449999999999999956e-01 nan
2.459999999999999964e-01 nan
2.469999999999999973e-01 nan
2.479999999999999982e-01 nan
2.489999999999999991e-01 nan
2.500000000000000000e-01 nan
2.510000000000000009e-01 nan
2.520000000000000018e-01 nan
2.530000000000000027e-01 nan
2.540000000000000036e-01 nan
2.550000000000000044e-01 nan
2.560000000000000053e-01 nan
2.570000000000000062e-01 nan
2.580000000000000071e-01 nan
2.590000000000000080e-01 nan
2.600000000000000089e-01 nan
2.610000000000000098e-01 nan
2.620000000000000107e-01 nan
2.630000000000000115e-01 nan
2.640000000000000124e-01 nan
2.650000000000000133e-01 nan
2.660000000000000142e-01 nan
2.670000000000000151e-01 nan
2.680000000000000160e-01 nan
2.690000000000000169e-01 nan
2.700000000000000178e-01 nan
2.710000000000000187e-01 nan
2.720000000000000195e-01 nan
2.730000000000000204e-01 nan
2.740000000000000213e-01 nan
2.750000000000000222e-01 nan
2.760000000000000231e-01 nan
2.770000000000000240e-01 nan
2.780000000000000249e-01 nan
2.790000000000000258e-01 nan
2.800000000000000266e-01 nan
2.810000000000000275e-01 nan
2.819999999999999729e-01 nan
2.829999999999999738e-01 nan
2.839999999999999747e-01 nan
2.849999999999999756e-01 nan
2.859999999999999765e-01 nan
2.869999999999999774e-01 nan
2.879999999999999782e-01 nan
2.889999999999999791e-01 nan
2.899999999999999800e-01 nan
2.909999999999999809e-01 nan
2.919999999999999818e-01 nan
2.929999999999999827e-01 nan
2.939999999999999836e-01 nan
2.949999999999999845e-01 nan
2.959999999999999853e-01 nan
2.969999999999999862e-01 nan
2.979999999999999871e-01 nan
2.989999999999999880e-01 nan
2.999999999999999889e-01 nan
3.009999999999999898e-01 nan
3.019999999999999907e-01 nan
3.029999999999999916e-01 nan
3.039999999999999925e-01 nan
3.049999999999999933e-01 nan
3.059999999999999942e-01 nan
3.069999999999999951e-01 nan
3.079999999999999960e-01 nan
3.089999999999999969e-01 nan
3.099999999999999978e-01 nan
3.109999999999999987e-01 nan
3.119999999999999996e-01 nan
3.130000000000000004e-01 nan
3.140000000000000013e-01 nan
3.150000000000000022e-01 nan
3.160000000000000031e-01 nan
3.170000000000000040e-01 nan
3.180000000000000049e-01 nan
3.190000000000000058e-01 nan
3.200000000000000067e-01 nan
3.210000000000000075e-01 nan
3.220000000000000084e-01 nan
3.230000000000000093e-01 nan
3.240000000000000102e-01 nan
3.250000000000000111e-01 nan
3.260000000000000120e-01 nan
3.270000000000000129e-01 nan
3.280000000000000138e-01 nan
3.290000000000000147e-01 nan
3.300000000000000155e-01 nan
3.310000000000000164e-01 nan
3.320000000000000173e-01 nan
3.330000000000000182e-01 nan
3.340000000000000191e-01 nan
3.350000000000000200e-01 nan
3.360000000000000209e-01 nan
3.370000000000000218e-01 nan
3.380000000000000226e-01 nan
3.390000000000000235e-01 nan
3.400000000000000244e-01 nan
3.410000000000000253e-01 nan
3.420000000000000262e-01 nan
3.430000000000000271e-01 nan
3.439999999999999725e-01 nan
3.449999999999999734e-01 nan
3.459999999999999742e-01 nan
3.469999999999999751e-01 nan
3.479999999999999760e-01 nan
3.489999999999999769e-01 nan
3.499999999999999778e-01 nan
3.509999999999999787e-01 nan
3.519999999999999796e-01 nan
3.529999999999999805e-01 nan
3.539999999999999813e-01 nan
3.549999999999999822e-01 nan
3.559999999999999831e-01 nan
3.569999999999999840e-01 nan
3.579999999999999849e-01 nan
3.589999999999999858e-01 nan
3.599999999999999867e-01 nan
3.609999999999999876e-01 nan
3.619999999999999885e-01 nan
3.629999999999999893e-01 nan
3.639999999999999902e-01 nan
3.649999999999999911e-01 nan
3.659999999999999920e-01 nan
3.669999999999999929e-01 nan
3.679999999999999938e-01 nan
3.689999999999999947e-01 nan
3.699999999999999956e-01 nan
3.709999999999999964e-01 nan
3.719999999999999973e-01 nan
3.729999999999999982e-01 nan
3.739999999999999991e-01 nan
3.750000000000000000e-01 nan
3.760000000000000009e-01 nan
3.770000000000000018e-01 nan
3.780000000000000027e-01 nan
3.790000000000000036e-01 nan
3.800000000000000044e-01 nan
3.810000000000000053e-01 nan
3.820000000000000062e-01 nan
3.830000000000000071e-01 nan
3.840000000000000080e-01 nan
3.850000000000000089e-01 nan
3.860000000000000098e-01 nan
3.870000000000000107e-01 nan
3.880000000000000115e-01 nan
3.890000000000000124e-01 nan
3.900000000000000133e-01 nan
3.910000000000000142e-01 nan
3.920000000000000151e-01 nan
3.930000000000000160e-01 nan
3.940000000000000169e-01 nan
3.950000000000000178e-01 nan
3.960000000000000187e-01 nan
3.970000000000000195e-01 nan
3.980000000000000204e-01 nan
3.990000000000000213e-01 nan
4.000000000000000222e-01 nan
4.010000000000000231e-01 nan
4.020000000000000240e-01 nan
4.030000000000000249e-01 nan
4.040000000000000258e-01 nan
4.050000000000000266e-01 nan
4.060000000000000275e-01 nan
4.069999999999999729e-01 nan
4.079999999999999738e-01 nan
4.089999999999999747e-01 nan
4.099999999999999756e-01 nan
4.109999999999999765e-01 nan
4.119999999999999774e-01 nan
4.129999999999999782e-01 nan
4.139999999999999791e-01 nan
4.149999999999999800e-01 nan
4.159999999999999809e-01 nan
4.169999999999999818e-01 nan
4.179999999999999827e-01 nan
4.189999999999999836e-01 nan
4.199999999999999845e-01 nan
4.209999999999999853e-01 nan
4.220000999999999891e-01 nan
4.229999999999999871e-01 nan
4.239999999999999880e-01 nan
4.249999999999999889e-01 nan
4.259999999999999898e-01 nan
4.269999999999999907e-01 nan
4.279999999999999916e-01 nan
4.289999999999999925e-01 nan
4.299999999999999933e-01 nan
4.309999999999999942e-01 nan
4.319999999999999951e-01 nan
4.329999999999999960e-01 nan
4.339999999999999969e-01 nan
4.349999999999999978e-01 nan
4.359999999999999987e-01 nan
4.369999999999999996e-01 nan
4.380000000000000004e-01 nan
4.390000000000000013e-01 nan
4.400000000000000022e-01 nan
4.410000000000000031e-01 nan
4.420000000000000040e-01 nan
4.430000000000000049e-01 nan
4.440000000000000058e-01 nan
4.450000000000000067e-01 nan
4.460000000000000075e-01 nan
4.470000000000000084e-01 nan
4.480000000000000093e-01 nan
4.490000000000000102e-01 nan
4.500000000000000111e-01 nan
4.510000000000000120e-01 nan
4.520000000000000129e-01 nan
4.530000000000000138e-01 nan
4.540000000000000147e-01 nan
4.550000000000000155e-01 nan
4.560000000000000164e-01 nan
4.570000000000000173e-01 nan
4.580000000000000182e-01 nan
4.590001000000000220e-01 nan
4.600000000000000200e-01 nan
4.610000000000000209e-01 nan
4.620000000000000218e-01 nan
4.630000000000000226e-01 nan
4.640000000000000235e-01 nan
4.650000000000000244e-01 nan
4.660000000000000253e-01 nan
4.670000000000000262e-01 nan
4.680000000000000271e-01 nan
4.689999999999999725e-01 nan
4.699999999999999734e-01 nan
4.709999999999999742e-01 nan
4.719999999999999751e-01 nan
4.729999999999999760e-01 nan
4.739999999999999769e-01 nan
4.749999999999999778e-01 nan
4.759999999999999787e-01 nan
4.769999999999999796e-01 nan
4.779999999999999805e-01 nan
4.789999999999999813e-01 nan
4.799999999999999822e-01 nan
4.809999999999999831e-01 nan
4.820000999999999869e-01 nan
4.829999999999999849e-01 nan
4.839999999999999858e-01 nan
4.849999999999999867e-01 nan
4.859999999999999876e-01 nan
4.869999999999999885e-01 nan
4.879999999999999893e-01 nan
4.889999999999999902e-01 nan
4.899999999999999911e-01 nan
4.909999999999999920e-01 nan
4.919999999999999929e-01 nan
4.929999999999999938e-01 nan
4.939999999999999947e-01 nan
4.949999999999999956e-01 nan
4.960000999999999993e-01 nan
4.969999999999999973e-01 nan
4.979999999999999982e-01 nan
4.989999999999999991e-01 nan
5.000000000000000000e-01 nan
5.010000000000000009e-01 nan
5.020000000000000018e-01 nan
5.030000000000000027e-01 nan
5.040000000000000036e-01 nan
5.050000000000000044e-01 nan
5.060000000000000053e-01 nan
5.070000000000000062e-01 nan
5.080000000000000071e-01 nan
5.090000000000000080e-01 nan
5.100000999999999562e-01 nan
5.110000000000000098e-01 nan
5.120000000000000107e-01 nan
5.130000000000000115e-01 nan
5.140000000000000124e-01 nan
5.150000000000000133e-01 nan
5.160000000000000142e-01 nan
5.170000000000000151e-01 nan
5.180000000000000160e-01 nan
5.190000999999999642e-01 nan
5.200000000000000178e-01 nan
5.210000000000000187e-01 nan
5.220000000000000195e-01 nan
5.230000000000000204e-01 nan
5.240000000000000213e-01 nan
5.250000000000000222e-01 nan
5.260000000000000231e-01 nan
5.270000000000000240e-01 nan
5.280000000000000249e-01 nan
5.290000000000000258e-01 nan
5.300000000000000266e-01 nan
5.310000000000000275e-01 nan
5.320000000000000284e-01 nan
5.330000999999999767e-01 nan
5.340000000000000302e-01 nan
5.350000000000000311e-01 nan
5.360000000000000320e-01 nan
5.370000000000000329e-01 nan
5.380000000000000338e-01 nan
5.390000000000000346e-01 nan
5.400000000000000355e-01 nan
5.410000000000000364e-01 nan
5.420000999999999847e-01 nan
5.430000000000000382e-01 nan
5.440000000000000391e-01 nan
5.450000000000000400e-01 nan
5.460000000000000409e-01 nan
5.470000999999999891e-01 nan
5.480000000000000426e-01 nan
5.490000000000000435e-01 nan
5.500000000000000444e-01 nan
5.510000000000000453e-01 nan
5.520000000000000462e-01 nan
5.530000000000000471e-01 nan
5.540000000000000480e-01 nan
5.550000000000000488e-01 nan
5.560000999999999971e-01 nan
5.570000000000000506e-01 nan
5.580000000000000515e-01 nan
5.590000000000000524e-01 nan
5.600000000000000533e-01 nan
5.610000000000000542e-01 nan
5.620000000000000551e-01 nan
5.629999999999999449e-01 nan
5.639999999999999458e-01 nan
5.650001000000000051e-01 nan
5.659999999999999476e-01 nan
5.669999999999999485e-01 nan
5.679999999999999494e-01 nan
5.689999999999999503e-01 nan
5.700001000000000095e-01 nan
5.709999999999999520e-01 nan
5.719999999999999529e-01 nan
5.729999999999999538e-01 nan
5.739999999999999547e-01 nan
5.749999999999999556e-01 nan
5.759999999999999565e-01 nan
5.769999999999999574e-01 nan
5.779999999999999583e-01 nan
5.790001000000000175e-01 nan
5.799999999999999600e-01 nan
5.809999999999999609e-01 nan
5.819999999999999618e-01 nan
5.829999999999999627e-01 nan
5.840001000000000220e-01 nan
5.849999999999999645e-01 nan
5.859999999999999654e-01 nan
5.869999999999999662e-01 nan
5.879999999999999671e-01 nan
5.889999999999999680e-01 nan
5.899999999999999689e-01 nan
5.909999999999999698e-01 nan
5.919999999999999707e-01 nan
5.930001000000000300e-01 nan
5.939999999999999725e-01 nan
5.949999999999999734e-01 nan
5.959999999999999742e-01 nan
5.969999999999999751e-01 nan
5.979999999999999760e-01 nan
5.989999999999999769e-01 nan
5.999999999999999778e-01 nan
6.009999999999999787e-01 nan
6.020001000000000380e-01 nan
6.029999999999999805e-01 nan
6.039999999999999813e-01 nan
6.049999999999999822e-01 nan
6.059999999999999831e-01 nan
6.070001000000000424e-01 nan
6.079999999999999849e-01 nan
6.089999999999999858e-01 nan
6.099999999999999867e-01 nan
6.109999999999999876e-01 nan
6.119999999999999885e-01 nan
6.129999999999999893e-01 nan
6.139999999999999902e-01 nan
6.149999999999999911e-01 nan
6.160001000000000504e-01 nan
6.169999999999999929e-01 nan
6.179999999999999938e-01 nan
6.189999999999999947e-01 nan
6.199999999999999956e-01 nan
6.210001000000000548e-01 nan
6.219999999999999973e-01 nan
6.229999999999999982e-01 nan
6.239999999999999991e-01 nan
6.250000999999999474e-01 nan
6.260000000000000009e-01 nan
6.270000000000000018e-01 nan
6.280000000000000027e-01 nan
6.290000000000000036e-01 nan
6.300000999999999518e-01 nan
6.310000000000000053e-01 nan
6.320000000000000062e-01 nan
6.330000000000000071e-01 nan
6.340000000000000080e-01 nan
6.350000999999999562e-01 nan
6.360000000000000098e-01 nan
6.370000000000000107e-01 nan
6.380000000000000115e-01 nan
6.390000999999999598e-01 nan
6.400000000000000133e-01 nan
6.410000000000000142e-01 nan
6.420000000000000151e-01 nan
6.430000000000000160e-01 nan
6.440000999999999642e-01 nan
6.450000000000000178e-01 nan
6.460000000000000187e-01 nan
6.470000000000000195e-01 nan
6.480000000000000204e-01 nan
6.490000000000000213e-01 nan
6.500000000000000222e-01 nan
6.510000000000000231e-01 nan
6.520000000000000240e-01 nan
6.530000999999999722e-01 nan
6.540000000000000258e-01 nan
6.550000000000000266e-01 nan
6.560000000000000275e-01 nan
6.570000000000000284e-01 nan
6.580000999999999767e-01 nan
6.590000000000000302e-01 nan
6.600000000000000311e-01 nan
6.610000000000000320e-01 nan
6.620000999999999802e-01 nan
6.630000000000000338e-01 nan
6.640000000000000346e-01 nan
6.650000000000000355e-01 nan
6.660000000000000364e-01 nan
6.670000999999999847e-01 nan
6.680000000000000382e-01 nan
6.690000000000000391e-01 nan
6.700000000000000400e-01 nan
6.710000000000000409e-01 nan
6.720000999999999891e-01 nan
6.730000000000000426e-01 nan
6.740000000000000435e-01 nan
6.750000000000000444e-01 nan
6.760000999999999927e-01 nan
6.770000000000000462e-01 nan
6.780000000000000471e-01 nan
6.790000000000000480e-01 nan
6.800000000000000488e-01 nan
6.810000999999999971e-01 nan
6.820000000000000506e-01 nan
6.830000000000000515e-01 nan
6.840000000000000524e-01 nan
6.850001000000000007e-01 nan
6.860000000000000542e-01 nan
6.870000000000000551e-01 nan
6.879999999999999449e-01 nan
6.889999999999999458e-01 nan
6.900001000000000051e-01 nan
6.909999999999999476e-01 nan
6.919999999999999485e-01 nan
6.929999999999999494e-01 nan
6.939999999999999503e-01 nan
6.950001000000000095e-01 nan
6.959999999999999520e-01 nan
6.969999999999999529e-01 nan
6.979999999999999538e-01 nan
6.990001000000000131e-01 nan
6.999999999999999556e-01 nan
7.009999999999999565e-01 nan
7.019999999999999574e-01 nan
7.029999999999999583e-01 nan
7.040001000000000175e-01 nan
7.049999999999999600e-01 nan
7.059999999999999609e-01 nan
7.069999999999999618e-01 nan
7.080001000000000211e-01 nan
7.090001000000000220e-01 nan
7.099999999999999645e-01 nan
7.109999999999999654e-01 nan
7.119999999999999662e-01 nan
7.130001000000000255e-01 nan
7.139999999999999680e-01 nan
7.149999999999999689e-01 nan
7.159999999999999698e-01 nan
7.169999999999999707e-01 nan
7.180001000000000300e-01 nan
7.189999999999999725e-01 nan
7.199999999999999734e-01 nan
7.209999999999999742e-01 nan
7.220001000000000335e-01 nan
7.229999999999999760e-01 nan
7.239999999999999769e-01 nan
7.249999999999999778e-01 nan
7.259999999999999787e-01 nan
7.270001000000000380e-01 nan
7.279999999999999805e-01 nan
7.289999999999999813e-01 nan
7.299999999999999822e-01 nan
7.309999999999999831e-01 nan
7.320001000000000424e-01 nan
7.329999999999999849e-01 nan
7.339999999999999858e-01 nan
7.349999999999999867e-01 nan
7.360001000000000460e-01 nan
7.369999999999999885e-01 nan
7.379999999999999893e-01 nan
7.389999999999999902e-01 nan
7.399999999999999911e-01 nan
7.410001000000000504e-01 nan
7.419999999999999929e-01 nan
7.429999999999999938e-01 nan
7.439999999999999947e-01 nan
7.450001000000000539e-01 nan
7.460001000000000548e-01 nan
7.469999999999999973e-01 nan
7.479999999999999982e-01 nan
7.489999999999999991e-01 nan
7.500000999999999474e-01 nan
7.510000000000000009e-01 nan
7.520000000000000018e-01 nan
7.530000000000000027e-01 nan
7.540000000000000036e-01 nan
7.550000999999999518e-01 nan
7.560000000000000053e-01 nan
7.570000000000000062e-01 nan
7.580000000000000071e-01 nan
7.590000999999999554e-01 nan
7.600000999999999562e-01 nan
7.610000000000000098e-01 nan
7.620000000000000107e-01 nan
7.630000000000000115e-01 nan
7.640000999999999598e-01 nan
7.650000000000000133e-01 nan
7.660000000000000142e-01 nan
7.670000000000000151e-01 nan
7.680000999999999634e-01 nan
7.690000999999999642e-01 nan
7.700000000000000178e-01 nan
7.710000000000000187e-01 nan
7.720000000000000195e-01 nan
7.730000999999999678e-01 nan
7.740000000000000213e-01 nan
7.750000000000000222e-01 nan
7.760000000000000231e-01 nan
7.770000000000000240e-01 nan
7.780000999999999722e-01 nan
7.790000000000000258e-01 nan
7.800000000000000266e-01 nan
7.810000000000000275e-01 nan
7.820000999999999758e-01 nan
7.830000999999999767e-01 nan
7.840000000000000302e-01 nan
7.850000000000000311e-01 nan
7.860000000000000320e-01 nan
7.870000999999999802e-01 nan
7.880000000000000338e-01 nan
7.890000000000000346e-01 nan
7.900000000000000355e-01 nan
7.910000999999999838e-01 nan
7.920000999999999847e-01 nan
7.930000000000000382e-01 nan
7.940000000000000391e-01 nan
7.950000000000000400e-01 nan
7.960000999999999882e-01 nan
7.970000999999999891e-01 nan
7.980000000000000426e-01 nan
7.990000000000000435e-01 nan
8.000000000000000444e-01 nan
8.010000999999999927e-01 nan
8.020000000000000462e-01 nan
8.030000000000000471e-01 nan
8.040000000000000480e-01 nan
8.050000999999999962e-01 nan
8.060000999999999971e-01 nan
8.070000000000000506e-01 nan
8.080000000000000515e-01 nan
8.090000000000000524e-01 nan
8.100001000000000007e-01 nan
8.110000000000000542e-01 nan
8.120000000000000551e-01 nan
8.129999999999999449e-01 nan
8.139999999999999458e-01 nan
8.150001000000000051e-01 nan
8.159999999999999476e-01 nan
8.169999999999999485e-01 nan
8.179999999999999494e-01 nan
8.190001000000000086e-01 nan
8.200001000000000095e-01 nan
8.209999999999999520e-01 nan
8.219999999999999529e-01 nan
8.229999999999999538e-01 nan
8.240001000000000131e-01 nan
8.249999999999999556e-01 nan
8.259999999999999565e-01 nan
8.269999999999999574e-01 nan
8.280001000000000166e-01 nan
8.290001000000000175e-01 nan
8.299999999999999600e-01 nan
8.309999999999999609e-01 nan
8.319999999999999618e-01 nan
8.330001000000000211e-01 nan
8.340001000000000220e-01 nan
8.349999999999999645e-01 nan
8.359999999999999654e-01 nan
8.369999999999999662e-01 nan
8.380001000000000255e-01 nan
8.389999999999999680e-01 nan
8.399999999999999689e-01 nan
8.409999999999999698e-01 nan
8.420001000000000291e-01 nan
8.430001000000000300e-01 nan
8.439999999999999725e-01 nan
8.449999999999999734e-01 nan
8.459999999999999742e-01 nan
8.470001000000000335e-01 nan
8.479999999999999760e-01 nan
8.489999999999999769e-01 nan
8.499999999999999778e-01 nan
8.510001000000000371e-01 nan
8.520001000000000380e-01 nan