 -0.12000000000000000          0.0000000000000000
 -0.11889999999999999          0.0000000000000000
 -0.11780000000000000          0.0000000000000000
 -0.11670000000000000          0.0000000000000000
 -0.11559999999999999          0.0000000000000000
 -0.11449999999999999          0.0000000000000000
 -0.11340000000000000          0.0000000000000000
 -0.11230000000000000          0.0000000000000000
 -0.11119999999999999          0.0000000000000000
 -0.11009999999999999          0.0000000000000000
 -0.10900000000000000          0.0000000000000000
 -0.10790000000000000          1.3798711813295184E-026
 -0.10679999999999999         -2.2683379785268106E-025
 -0.10569999999999999          9.1622683710392288E-024
 -0.10460000000000000          1.7556732112139605E-023
 -0.10349999999999999         -1.0192276639693795E-022
 -0.10239999999999999          6.0345264212573588E-022
 -0.10130000000000000          5.9230687814514359E-021
 -0.10020000000000000          4.4013472600379656E-021
  -9.9099999999999994E-002    -6.9089187913634732E-020
  -9.7999999999999990E-002    -1.7224172515099143E-019
  -9.6899999999999986E-002     4.3168790655522596E-019
  -9.5799999999999996E-002     2.5697310782809647E-018
  -9.4699999999999993E-002     1.4972148998993031E-018
  -9.3599999999999989E-002    -1.7699496241068678E-017
  -9.2499999999999999E-002    -4.9108717041815739E-017
  -9.1399999999999995E-002     1.6010630003890586E-017
  -9.0299999999999991E-002     3.4849188028286020E-016
  -8.9200000000000002E-002     6.5404199593656516E-016
  -8.8099999999999984E-002    -5.5254373193297686E-016
  -8.6999999999999994E-002    -4.6360209609772312E-015
  -8.5899999999999990E-002    -7.0606091502958823E-015
  -8.4799999999999986E-002     7.1684372915143020E-015
  -8.3699999999999997E-002     4.6960492542129015E-014
  -8.2599999999999993E-002     6.6460095619110676E-014
  -8.1499999999999989E-002    -5.7688669650741292E-014
  -8.0399999999999999E-002    -3.8240938193823126E-013
  -7.9299999999999995E-002    -5.5527425105866834E-013
  -7.8199999999999992E-002     2.9280774311267466E-013
  -7.7100000000000002E-002     2.5647713119969495E-012
  -7.5999999999999984E-002     4.0816911482666196E-012
  -7.4899999999999994E-002    -5.2344169580373356E-013
  -7.3799999999999991E-002    -1.4253682435738657E-011
  -7.2699999999999987E-002    -2.6056249172179413E-011
  -7.1599999999999997E-002    -6.6549534979976066E-012
  -7.0499999999999993E-002     6.4927889453780807E-011
  -6.9399999999999989E-002     1.4306307527522932E-010
  -6.8300000000000000E-002     8.6810905686185436E-011
  -6.7199999999999996E-002    -2.3269859650287827E-010
  -6.6099999999999992E-002    -6.7014110927132720E-010
  -6.5000000000000002E-002    -6.3041660780527309E-010
  -6.3899999999999985E-002     5.6991922292581876E-010
  -6.2799999999999995E-002     2.6465047930912533E-009
  -6.1699999999999991E-002     3.4216300903722185E-009
  -6.0599999999999994E-002    -2.2825687173710918E-010
  -5.9499999999999990E-002    -8.5928295590065318E-009
  -5.8399999999999994E-002    -1.4921660351774335E-008
  -5.7299999999999990E-002    -6.9019305826145683E-009
  -5.6199999999999986E-002     2.1492846613568872E-008
  -5.5099999999999996E-002     5.3430191826464579E-008
  -5.3999999999999992E-002     4.7155793936326518E-008
  -5.2899999999999989E-002    -3.2264942717574741E-008
  -5.1799999999999985E-002    -1.5615735549090459E-007
  -5.0699999999999995E-002    -2.0401164135819272E-007
  -4.9599999999999991E-002    -3.2297059249231097E-008
  -4.8499999999999988E-002     3.5663836683852423E-007
  -4.7399999999999998E-002     6.7499837541618035E-007
  -4.6299999999999994E-002     4.5106150992069161E-007
  -4.5199999999999990E-002    -5.3939675126457587E-007
  -4.4099999999999986E-002    -1.7701447632134659E-006
  -4.2999999999999997E-002    -1.9618200894910842E-006
  -4.1899999999999993E-002    -2.8838280652365711E-009
  -4.0799999999999989E-002     3.5794050745607819E-006
  -3.9699999999999985E-002     5.9372105170041323E-006
  -3.8599999999999995E-002     3.4287443213543156E-006
  -3.7499999999999992E-002    -4.7881558202789165E-006
  -3.6399999999999988E-002    -1.3760239198745694E-005
  -3.5299999999999984E-002    -1.4191903574101161E-005
  -3.4199999999999994E-002     2.4808932153064234E-007
  -3.3099999999999991E-002     2.4034668967942707E-005
  -3.1999999999999987E-002     3.8101894460851327E-005
  -3.0899999999999997E-002     2.1720092263421975E-005
  -2.9799999999999993E-002    -2.6638501367415302E-005
  -2.8699999999999989E-002    -7.6421150879468769E-005
  -2.7599999999999986E-002    -7.8279459557961673E-005
  -2.6499999999999996E-002    -4.1400339796382468E-006
  -2.5399999999999992E-002     1.1302896018605679E-004
  -2.4299999999999988E-002     1.8071450176648796E-004
  -2.3199999999999985E-002     1.0896070307353511E-004
  -2.2099999999999995E-002    -9.9818542366847396E-005
  -2.0999999999999991E-002    -3.0993457767181098E-004
  -1.9899999999999987E-002    -3.2351652043871582E-004
  -1.8799999999999983E-002    -4.3604577513178810E-005
  -1.7699999999999994E-002     3.9037113310769200E-004
  -1.6599999999999990E-002     6.3787505496293306E-004
  -1.5499999999999986E-002     3.9879401447251439E-004
  -1.4399999999999996E-002    -2.8901809128001332E-004
  -1.3299999999999992E-002    -9.5863465685397387E-004
  -1.2199999999999989E-002    -9.9294853862375021E-004
  -1.1099999999999985E-002    -1.4430457667913288E-004
  -9.9999999999999950E-003     1.1090438347309828E-003
  -8.8999999999999913E-003     1.7600742867216468E-003
  -7.7999999999999875E-003     1.0260572889819741E-003
  -6.6999999999999837E-003    -8.6016952991485596E-004
  -5.5999999999999939E-003    -2.5420801248401403E-003
  -4.4999999999999901E-003    -2.4301409721374512E-003
  -3.3999999999999864E-003    -8.0729434557724744E-005
  -2.2999999999999826E-003     3.0530150979757309E-003
  -1.1999999999999927E-003     4.3722540140151978E-003
  -9.9999999999988987E-005     2.1434670779854059E-003
   1.0000000000000148E-003    -2.6882274542003870E-003
   2.1000000000000185E-003    -6.5745217725634575E-003
   3.2000000000000084E-003    -5.7877446524798870E-003
   4.3000000000000121E-003     3.2586432644166052E-004
   5.4000000000000159E-003     7.9270703718066216E-003
   6.5000000000000058E-003     1.0834380984306335E-002
   7.6000000000000234E-003     5.2799209952354431E-003
   8.7000000000000133E-003    -6.2188208103179932E-003
   9.8000000000000032E-003    -1.5446668490767479E-002
   1.0900000000000021E-002    -1.4106398448348045E-002
   1.2000000000000011E-002    -8.2884059520438313E-004
   1.3100000000000001E-002     1.6086468473076820E-002
   1.4200000000000018E-002     2.3487046360969543E-002
   1.5300000000000008E-002     1.3317512348294258E-002
   1.6400000000000026E-002    -9.5942560583353043E-003
   1.7500000000000016E-002    -2.8924440965056419E-002
   1.8600000000000005E-002    -2.8138790279626846E-002
   1.9700000000000023E-002    -4.2126928456127644E-003
   2.0800000000000013E-002     2.7233863249421120E-002
   2.1900000000000003E-002     4.1396148502826691E-002
   2.3000000000000020E-002     2.3283224552869797E-002
   2.4100000000000010E-002    -1.7812691628932953E-002
   2.5200000000000000E-002    -5.1417768001556396E-002
   2.6300000000000018E-002    -4.7408945858478546E-002
   2.7400000000000008E-002    -1.5283477259799838E-003
   2.8500000000000025E-002     5.5776391178369522E-002
   2.9600000000000015E-002     7.7953167259693146E-002
   3.0700000000000005E-002     3.8287661969661713E-002
   3.1800000000000023E-002    -4.3452531099319458E-002
   3.2900000000000013E-002   -0.10784626007080078
   3.4000000000000002E-002    -9.7164556384086609E-002
   3.5100000000000020E-002    -3.7391365040093660E-003
   3.6200000000000010E-002    0.11338804662227631
   3.7300000000000028E-002    0.16356231272220612
   3.8400000000000017E-002     9.2514365911483765E-002
   3.9500000000000007E-002    -6.6275998950004578E-002
   4.0600000000000025E-002   -0.20204269886016846
   4.1700000000000015E-002   -0.20197442173957825
   4.2800000000000005E-002    -4.1860997676849365E-002
   4.3900000000000022E-002    0.17859691381454468
   4.5000000000000012E-002    0.29409739375114441
   4.6100000000000002E-002    0.19483195245265961
   4.7200000000000020E-002    -7.6325953006744385E-002
   4.8300000000000010E-002   -0.33242252469062805
   4.9400000000000027E-002   -0.36726981401443481
   5.0500000000000017E-002   -0.11580905318260193
   5.1600000000000007E-002    0.27166098356246948
   5.2700000000000025E-002    0.51340240240097046
   5.3800000000000014E-002    0.39621174335479736
   5.4900000000000004E-002    -4.8058383166790009E-002
   5.6000000000000022E-002   -0.53041964769363403
   5.7100000000000012E-002   -0.68943721055984497
   5.8200000000000002E-002   -0.35680782794952393
   5.9300000000000019E-002    0.28927227854728699
   6.0400000000000009E-002    0.81366288661956787
   6.1500000000000027E-002    0.81741762161254883
   6.2600000000000017E-002    0.23641489446163177
   6.3700000000000007E-002   -0.57709652185440063
   6.4800000000000024E-002    -1.0708477497100830
   6.5900000000000014E-002   -0.87226253747940063
   6.7000000000000004E-002    -6.5411664545536041E-002
   6.8100000000000022E-002    0.84251427650451660
   6.9200000000000012E-002     1.2556666135787964
   7.0300000000000029E-002    0.89418411254882812
   7.1400000000000019E-002    -1.9318494945764542E-002
   7.2500000000000009E-002   -0.92296665906906128
   7.3600000000000027E-002    -1.3018925189971924
   7.4700000000000016E-002    -1.0084596872329712
   7.5800000000000006E-002   -0.28986063599586487
   7.6900000000000024E-002    0.46280875802040100
   7.8000000000000014E-002     1.0056883096694946
   7.9100000000000004E-002     1.3175528049468994
   8.0200000000000021E-002     1.4162075519561768
   8.1300000000000011E-002     1.1378320455551147
   8.2400000000000029E-002    0.17427295446395874
   8.3500000000000019E-002    -1.5570098161697388
   8.4600000000000009E-002    -3.4934689998626709
   8.5700000000000026E-002    -4.4202589988708496
   8.6800000000000016E-002    -3.1148381233215332
   8.7900000000000006E-002    0.64699447154998779
   8.9000000000000024E-002     5.4567894935607910
   9.0100000000000013E-002     8.6819343566894531
   9.1200000000000003E-002     7.9359707832336426
   9.2300000000000021E-002     2.7821972370147705
   9.3400000000000011E-002    -4.5529489517211914
   9.4500000000000028E-002    -10.201140403747559
   9.5600000000000018E-002    -10.992650985717773
   9.6700000000000008E-002    -6.6324815750122070
   9.7800000000000026E-002    -9.7154058516025543E-002
   9.8900000000000016E-002     4.2900228500366211
  0.10000000000000001          3.9886550903320312
  0.10110000000000002         0.38414740562438965
  0.10220000000000001         -1.8314241170883179
  0.10330000000000003          2.0056180953979492
  0.10440000000000002          12.586838722229004
  0.10550000000000001          24.973812103271484
  0.10660000000000003          30.859828948974609
  0.10770000000000002          23.724525451660156
  0.10880000000000001          3.5694332122802734
  0.10990000000000003         -22.255489349365234
  0.11100000000000002         -43.289524078369141
  0.11210000000000001         -52.945400238037109
  0.11320000000000002         -53.679977416992188
  0.11430000000000001         -56.529228210449219
  0.11540000000000003         -74.714149475097656
  0.11650000000000002         -115.14250183105469
  0.11760000000000001         -173.50640869140625
  0.11870000000000003         -236.77153015136719
  0.11980000000000002         -292.14755249023438
  0.12090000000000001         -337.13714599609375
  0.12200000000000003         -384.04589843750000
  0.12310000000000001         -455.51492309570312
  0.12420000000000003         -573.33001708984375
  0.12530000000000002         -747.34759521484375
  0.12640000000000001         -971.73577880859375
  0.12750000000000003         -1231.4278564453125
  0.12860000000000002         -1515.3231201171875
  0.12970000000000001         -1828.3894042968750
  0.13080000000000003         -2195.2834472656250
  0.13190000000000002         -2653.1330566406250
  0.13300000000000001         -3237.7846679687500
  0.13410000000000000         -3971.7546386718750
  0.13520000000000004         -4861.2158203125000
  0.13630000000000003         -5904.1254882812500
  0.13740000000000002         -7105.2226562500000
  0.13850000000000001         -8489.6435546875000
  0.13960000000000000         -10107.713867187500
  0.14070000000000005         -12028.732421875000
  0.14180000000000004         -14326.475585937500
  0.14290000000000003         -17064.919921875000
  0.14400000000000002         -20291.031250000000
  0.14510000000000001         -24038.986328125000
  0.14620000000000000         -28344.328125000000
  0.14730000000000004         -33261.343750000000
  0.14840000000000003         -38875.132812500000
  0.14950000000000002         -45302.351562500000
  0.15060000000000001         -52678.804687500000
  0.15170000000000000         -61140.238281250000
  0.15280000000000005         -70804.179687500000
  0.15390000000000004         -81764.359375000000
  0.15500000000000003         -94101.171875000000
  0.15610000000000002         -107902.36718750000
  0.15720000000000001         -123281.94531250000
  0.15830000000000000         -140388.43750000000
  0.15940000000000004         -159391.81250000000
  0.16050000000000003         -180457.50000000000
  0.16160000000000002         -203718.90625000000
  0.16270000000000001         -229267.92187500000
  0.16380000000000000         -257162.04687500000
  0.16490000000000005         -287449.21875000000
  0.16600000000000004         -320192.62500000000
  0.16710000000000003         -355464.84375000000
  0.16820000000000002         -393329.40625000000
  0.16930000000000001         -433792.78125000000
  0.17040000000000000         -476782.18750000000
  0.17150000000000004         -522150.75000000000
  0.17260000000000003         -569691.43750000000
  0.17370000000000002         -619175.93750000000
  0.17480000000000001         -670382.37500000000
  0.17590000000000000         -723070.37500000000
  0.17700000000000005         -776945.50000000000
  0.17810000000000004         -831605.37500000000
  0.17920000000000003         -886511.62500000000
  0.18030000000000002         -941013.81250000000
  0.18140000000000001         -994370.68750000000
  0.18250000000000000         -1045837.5000000000
  0.18360000000000004         -1094684.8750000000
  0.18470000000000003         -1140190.1250000000
  0.18580000000000002         -1181569.5000000000
  0.18690000000000001         -1217943.2500000000
  0.18800000000000000         -1248333.8750000000
  0.18910000000000005         -1271690.5000000000
  0.19020000000000004         -1286934.6250000000
  0.19130000000000003         -1293091.1250000000
  0.19240000000000002         -1289286.0000000000
  0.19350000000000001         -1274725.5000000000
  0.19460000000000005         -1248627.6250000000
  0.19570000000000004         -1210261.1250000000
  0.19680000000000003         -1158896.3750000000
  0.19790000000000002         -1093940.6250000000
  0.19900000000000001         -1014900.0625000000
  0.20010000000000000         -921473.81250000000
  0.20120000000000005         -813585.31250000000
  0.20230000000000004         -691411.81250000000
  0.20340000000000003         -555307.25000000000
  0.20450000000000002         -405793.31250000000
  0.20560000000000000         -243550.09375000000
  0.20670000000000005         -69453.687500000000
  0.20780000000000004          115424.43750000000
  0.20890000000000003          309725.40625000000
