 -0.12000000000000000          0.0000000000000000
 -0.11889999999999999          0.0000000000000000
 -0.11780000000000000          0.0000000000000000
 -0.11670000000000000          2.3117417702334109E-010
 -0.11559999999999999          7.7702155820702501E-010
 -0.11449999999999999         -1.6359047450009712E-010
 -0.11340000000000000         -5.6365472289598983E-009
 -0.11230000000000000         -1.2840427388027820E-008
 -0.11119999999999999         -7.1585377625638102E-009
 -0.11009999999999999          2.5509450551908230E-008
 -0.10900000000000000          6.8357039140209963E-008
 -0.10790000000000000          6.2652439680732641E-008
 -0.10679999999999999         -4.2087727081252524E-008
 -0.10569999999999999         -2.0027960090374108E-007
 -0.10460000000000000         -2.4954067612270592E-007
 -0.10349999999999999         -4.1034340370060818E-008
 -0.10239999999999999          3.5518149843483116E-007
 -0.10130000000000000          5.9918079386989120E-007
 -0.10020000000000000          3.4192629527751706E-007
  -9.9099999999999994E-002    -3.6486073895503068E-007
  -9.7999999999999990E-002    -9.4240982662086026E-007
  -9.6899999999999986E-002    -7.2572913722979138E-007
  -9.5799999999999996E-002     3.0886727131473890E-007
  -9.4699999999999993E-002     1.2670307114603929E-006
  -9.3599999999999989E-002     1.0073456451209495E-006
  -9.2499999999999999E-002    -6.5207620991714066E-007
  -9.1399999999999995E-002    -2.3578729724249570E-006
  -9.0299999999999991E-002    -2.1333028143999400E-006
  -8.9200000000000002E-002     7.2033162723528221E-007
  -8.8099999999999984E-002     4.4429007175494917E-006
  -8.6999999999999994E-002     5.7869333431881387E-006
  -8.5899999999999990E-002     2.7261578452453250E-006
  -8.4799999999999986E-002    -3.3617877761571435E-006
  -8.3699999999999997E-002    -8.2502483564894646E-006
  -8.2599999999999993E-002    -8.1080934251076542E-006
  -8.1499999999999989E-002    -2.8013866995024728E-006
  -8.0399999999999999E-002     3.7810248159075854E-006
  -7.9299999999999995E-002     6.9414372774190269E-006
  -7.8199999999999992E-002     5.2160412451485172E-006
  -7.7100000000000002E-002     1.5467609273400740E-006
  -7.5999999999999984E-002     3.4333550047449535E-007
  -7.4899999999999994E-002     3.0177554890542524E-006
  -7.3799999999999991E-002     6.1800151343049947E-006
  -7.2699999999999987E-002     4.3917998482356779E-006
  -7.1599999999999997E-002    -4.8510869419260416E-006
  -7.0499999999999993E-002    -1.8467741028871387E-005
  -6.9399999999999989E-002    -3.0063678423175588E-005
  -6.8300000000000000E-002    -3.5252654924988747E-005
  -6.7199999999999996E-002    -3.5321532777743414E-005
  -6.6099999999999992E-002    -3.6005207221023738E-005
  -6.5000000000000002E-002    -4.2591284000081941E-005
  -6.3899999999999985E-002    -5.5871092627057806E-005
  -6.2799999999999995E-002    -7.2542075940873474E-005
  -6.1699999999999991E-002    -8.9448854851070791E-005
  -6.0599999999999994E-002    -1.0751171794254333E-004
  -5.9499999999999990E-002    -1.3162550749257207E-004
  -5.8399999999999994E-002    -1.6673214850015938E-004
  -5.7299999999999990E-002    -2.1392242342699319E-004
  -5.6199999999999986E-002    -2.7036361279897392E-004
  -5.5099999999999996E-002    -3.3318347414024174E-004
  -5.3999999999999992E-002    -4.0367172914557159E-004
  -5.2899999999999989E-002    -4.8786090337671340E-004
  -5.1799999999999985E-002    -5.9299333952367306E-004
  -5.0699999999999995E-002    -7.2332087438553572E-004
  -4.9599999999999991E-002    -8.7937695207074285E-004
  -4.8499999999999988E-002    -1.0615838691592216E-003
  -4.7399999999999998E-002    -1.2748399749398232E-003
  -4.6299999999999994E-002    -1.5295548364520073E-003
  -4.5199999999999990E-002    -1.8377662636339664E-003
  -4.4099999999999986E-002    -2.2077111061662436E-003
  -4.2999999999999997E-002    -2.6421109214425087E-003
  -4.1899999999999993E-002    -3.1424483750015497E-003
  -4.0799999999999989E-002    -3.7160022184252739E-003
  -3.9699999999999985E-002    -4.3794051744043827E-003
  -3.8599999999999995E-002    -5.1550529897212982E-003
  -3.7499999999999992E-002    -6.0630002990365028E-003
  -3.6399999999999988E-002    -7.1154953911900520E-003
  -3.5299999999999984E-002    -8.3195930346846581E-003
  -3.4199999999999994E-002    -9.6862502396106720E-003
  -3.3099999999999991E-002    -1.1237965896725655E-002
  -3.1999999999999987E-002    -1.3007594272494316E-002
  -3.0899999999999997E-002    -1.5028485096991062E-002
  -2.9799999999999993E-002    -1.7324279993772507E-002
  -2.8699999999999989E-002    -1.9907804206013680E-002
  -2.7599999999999986E-002    -2.2790800780057907E-002
  -2.6499999999999996E-002    -2.5996090844273567E-002
  -2.5399999999999992E-002    -2.9560705646872520E-002
  -2.4299999999999988E-002    -3.3526193350553513E-002
  -2.3199999999999985E-002    -3.7923932075500488E-002
  -2.2099999999999995E-002    -4.2768634855747223E-002
  -2.0999999999999991E-002    -4.8066020011901855E-002
  -1.9899999999999987E-002    -5.3827438503503799E-002
  -1.8799999999999983E-002    -6.0077179223299026E-002
  -1.7699999999999994E-002    -6.6844552755355835E-002
  -1.6599999999999990E-002    -7.4146844446659088E-002
  -1.5499999999999986E-002    -8.1978313624858856E-002
  -1.4399999999999996E-002    -9.0315192937850952E-002
  -1.3299999999999992E-002    -9.9131301045417786E-002
  -1.2199999999999989E-002   -0.10840880870819092
  -1.1099999999999985E-002   -0.11813219636678696
  -9.9999999999999950E-003   -0.12827023863792419
  -8.8999999999999913E-003   -0.13876266777515411
  -7.7999999999999875E-003   -0.14952303469181061
  -6.6999999999999837E-003   -0.16045482456684113
  -5.5999999999999939E-003   -0.17146418988704681
  -4.4999999999999901E-003   -0.18245615065097809
  -3.3999999999999864E-003   -0.19331692159175873
  -2.2999999999999826E-003   -0.20389975607395172
  -1.1999999999999927E-003   -0.21402867138385773
  -9.9999999999988987E-005   -0.22351606190204620
   1.0000000000000148E-003   -0.23217791318893433
   2.1000000000000185E-003   -0.23983246088027954
   3.2000000000000084E-003   -0.24628381431102753
   4.3000000000000121E-003   -0.25130850076675415
   5.4000000000000159E-003   -0.25466024875640869
   6.5000000000000058E-003   -0.25609076023101807
   7.6000000000000234E-003   -0.25536882877349854
   8.7000000000000133E-003   -0.25228065252304077
   9.8000000000000032E-003   -0.24661496281623840
   1.0900000000000021E-002   -0.23815076053142548
   1.2000000000000011E-002   -0.22666327655315399
   1.3100000000000001E-002   -0.21194741129875183
   1.4200000000000018E-002   -0.19383829832077026
   1.5300000000000008E-002   -0.17221400141716003
   1.6400000000000026E-002   -0.14698165655136108
   1.7500000000000016E-002   -0.11806556582450867
   1.8600000000000005E-002    -8.5414141416549683E-002
   1.9700000000000023E-002    -4.9020536243915558E-002
   2.0800000000000013E-002    -8.9420229196548462E-003
   2.1900000000000003E-002     3.4698173403739929E-002
   2.3000000000000020E-002     8.1725791096687317E-002
   2.4100000000000010E-002    0.13192826509475708
   2.5200000000000000E-002    0.18505232036113739
   2.6300000000000018E-002    0.24078838527202606
   2.7400000000000008E-002    0.29875510931015015
   2.8500000000000025E-002    0.35850098729133606
   2.9600000000000015E-002    0.41952311992645264
   3.0700000000000005E-002    0.48128476738929749
   3.1800000000000023E-002    0.54321771860122681
   3.2900000000000013E-002    0.60471224784851074
   3.4000000000000002E-002    0.66510897874832153
   3.5100000000000020E-002    0.72370672225952148
   3.6200000000000010E-002    0.77978545427322388
   3.7300000000000028E-002    0.83262783288955688
   3.8400000000000017E-002    0.88152676820755005
   3.9500000000000007E-002    0.92578089237213135
   4.0600000000000025E-002    0.96469163894653320
   4.1700000000000015E-002    0.99757432937622070
   4.2800000000000005E-002     1.0237796306610107
   4.3900000000000022E-002     1.0427160263061523
   4.5000000000000012E-002     1.0538619756698608
   4.6100000000000002E-002     1.0567635297775269
   4.7200000000000020E-002     1.0510317087173462
   4.8300000000000010E-002     1.0363487005233765
   4.9400000000000027E-002     1.0124825239181519
   5.0500000000000017E-002    0.97930592298507690
   5.1600000000000007E-002    0.93680793046951294
   5.2700000000000025E-002    0.88509058952331543
   5.3800000000000014E-002    0.82435953617095947
   5.4900000000000004E-002    0.75492238998413086
   5.6000000000000022E-002    0.67719018459320068
   5.7100000000000012E-002    0.59168404340744019
   5.8200000000000002E-002    0.49904048442840576
   5.9300000000000019E-002    0.40000510215759277
   6.0400000000000009E-002    0.29541715979576111
   6.1500000000000027E-002    0.18619188666343689
   6.2600000000000017E-002     7.3312118649482727E-002
   6.3700000000000007E-002    -4.2176004499197006E-002
   6.4800000000000024E-002   -0.15916842222213745
   6.5900000000000014E-002   -0.27651226520538330
   6.7000000000000004E-002   -0.39302664995193481
   6.8100000000000022E-002   -0.50752705335617065
   6.9200000000000012E-002   -0.61884582042694092
   7.0300000000000029E-002   -0.72584104537963867
   7.1400000000000019E-002   -0.82740324735641479
   7.2500000000000009E-002   -0.92246663570404053
   7.3600000000000027E-002    -1.0100256204605103
   7.4700000000000016E-002    -1.0891619920730591
   7.5800000000000006E-002    -1.1590664386749268
   7.6900000000000024E-002    -1.2190442085266113
   7.8000000000000014E-002    -1.2685122489929199
   7.9100000000000004E-002    -1.3069996833801270
   8.0200000000000021E-002    -1.3341573476791382
   8.1300000000000011E-002    -1.3497761487960815
   8.2400000000000029E-002    -1.3538023233413696
   8.3500000000000019E-002    -1.3463355302810669
   8.4600000000000009E-002    -1.3276100158691406
   8.5700000000000026E-002    -1.2979763746261597
   8.6800000000000016E-002    -1.2578985691070557
   8.7900000000000006E-002    -1.2079604864120483
   8.9000000000000024E-002    -1.1488732099533081
   9.0100000000000013E-002    -1.0814657211303711
   9.1200000000000003E-002    -1.0066545009613037
   9.2300000000000021E-002   -0.92541074752807617
   9.3400000000000011E-002   -0.83874058723449707
   9.4500000000000028E-002   -0.74768650531768799
   9.5600000000000018E-002   -0.65332978963851929
   9.6700000000000008E-002   -0.55678087472915649
   9.7800000000000026E-002   -0.45915073156356812
   9.8900000000000016E-002   -0.36151272058486938
  0.10000000000000001        -0.26488092541694641
  0.10110000000000002        -0.17021276056766510
  0.10220000000000001         -7.8415736556053162E-002
  0.10330000000000003          9.6565373241901398E-003
  0.10440000000000002          9.3225538730621338E-002
  0.10550000000000001         0.17161720991134644
  0.10660000000000003         0.24427375197410583
  0.10770000000000002         0.31074085831642151
  0.10880000000000001         0.37065309286117554
  0.10990000000000003         0.42373192310333252
  0.11100000000000002         0.46979656815528870
  0.11210000000000001         0.50877898931503296
  0.11320000000000002         0.54072040319442749
  0.11430000000000001         0.56574833393096924
  0.11540000000000003         0.58405542373657227
  0.11650000000000002         0.59589153528213501
  0.11760000000000001         0.60157209634780884
  0.11870000000000003         0.60148489475250244
  0.11980000000000002         0.59607815742492676
  0.12090000000000001         0.58583396673202515
  0.12200000000000003         0.57124209403991699
  0.12310000000000001         0.55279457569122314
  0.12420000000000003         0.53099548816680908
  0.12530000000000002         0.50636816024780273
  0.12640000000000001         0.47944447398185730
  0.12750000000000003         0.45073771476745605
  0.12860000000000002         0.42072054743766785
  0.12970000000000001         0.38982319831848145
  0.13080000000000003         0.35844859480857849
  0.13190000000000002         0.32698515057563782
  0.13300000000000001         0.29580065608024597
  0.13410000000000000         0.26522231101989746
  0.13520000000000004         0.23552100360393524
  0.13630000000000003         0.20691420137882233
  0.13740000000000002         0.17958395183086395
  0.13850000000000001         0.15369109809398651
  0.13960000000000000         0.12937229871749878
  0.14070000000000005         0.10672674328088760
  0.14180000000000004          8.5807621479034424E-002
  0.14290000000000003          6.6629998385906219E-002
  0.14400000000000002          4.9188449978828430E-002
  0.14510000000000001          3.3467289060354233E-002
  0.14620000000000000          1.9437197595834732E-002
  0.14730000000000004          7.0453346706926823E-003
  0.14840000000000003         -3.7866090424358845E-003
  0.14950000000000002         -1.3151146471500397E-002
  0.15060000000000001         -2.1140396595001221E-002
  0.15170000000000000         -2.7841718867421150E-002
  0.15280000000000005         -3.3345580101013184E-002
  0.15390000000000004         -3.7754606455564499E-002
  0.15500000000000003         -4.1181650012731552E-002
  0.15610000000000002         -4.3737154453992844E-002
  0.15720000000000001         -4.5517452061176300E-002
  0.15830000000000000         -4.6605512499809265E-002
  0.15940000000000004         -4.7082848846912384E-002
  0.16050000000000003         -4.7038245946168900E-002
  0.16160000000000002         -4.6562809497117996E-002
  0.16270000000000001         -4.5736413449048996E-002
  0.16380000000000000         -4.4619794934988022E-002
  0.16490000000000005         -4.3260261416435242E-002
  0.16600000000000004         -4.1705172508955002E-002
  0.16710000000000003         -4.0008936077356339E-002
  0.16820000000000002         -3.8225885480642319E-002
  0.16930000000000001         -3.6396931856870651E-002
  0.17040000000000000         -3.4544810652732849E-002
  0.17150000000000004         -3.2683547586202621E-002
  0.17260000000000003         -3.0832350254058838E-002
  0.17370000000000002         -2.9018666595220566E-002
  0.17480000000000001         -2.7267817407846451E-002
  0.17590000000000000         -2.5590915232896805E-002
  0.17700000000000005         -2.3984495550394058E-002
  0.17810000000000004         -2.2443275898694992E-002
  0.17920000000000003         -2.0972680300474167E-002
  0.18030000000000002         -1.9587339833378792E-002
  0.18140000000000001         -1.8297078087925911E-002
  0.18250000000000000         -1.7095912247896194E-002
  0.18360000000000004         -1.5966586768627167E-002
  0.18470000000000003         -1.4896941371262074E-002
  0.18580000000000002         -1.3890955597162247E-002
  0.18690000000000001         -1.2962327338755131E-002
  0.18800000000000000         -1.2116434052586555E-002
  0.18910000000000005         -1.1339905671775341E-002
  0.19020000000000004         -1.0610059835016727E-002
  0.19130000000000003         -9.9151311442255974E-003
  0.19240000000000002         -9.2641878873109818E-003
  0.19350000000000001         -8.6752725765109062E-003
  0.19460000000000005         -8.1530418246984482E-003
  0.19570000000000004         -7.6792226172983646E-003
  0.19680000000000003         -7.2269244119524956E-003
  0.19790000000000002         -6.7851399071514606E-003
  0.19900000000000001         -6.3684969209134579E-003
  0.20010000000000000         -6.0013202019035816E-003
  0.20120000000000005         -5.6912186555564404E-003
  0.20230000000000004         -5.4188058711588383E-003
  0.20340000000000003         -5.1544988527894020E-003
  0.20450000000000002         -4.8861689865589142E-003
  0.20560000000000000         -4.6299374662339687E-003
  0.20670000000000005         -4.4126748107373714E-003
  0.20780000000000004         -4.2433971539139748E-003
  0.20890000000000003         -4.1020731441676617E-003
