 -0.12000000000000000          0.0000000000000000
 -0.11889999999999999          0.0000000000000000
 -0.11780000000000000          0.0000000000000000
 -0.11670000000000000          2.0388473842558597E-007
 -0.11559999999999999          9.8483133115223609E-007
 -0.11449999999999999          2.0203351596137509E-006
 -0.11340000000000000          1.0174170483878697E-006
 -0.11230000000000000         -5.7222755458496977E-006
 -0.11119999999999999         -1.8752458345261402E-005
 -0.11009999999999999         -2.9235370675451122E-005
 -0.10900000000000000         -1.9040708139073104E-005
 -0.10790000000000000          2.5904200811055489E-005
 -0.10679999999999999          9.4458104285877198E-005
 -0.10569999999999999          1.4129844203125685E-004
 -0.10460000000000000          1.0885146912187338E-004
 -0.10349999999999999         -2.5907047529472038E-005
 -0.10239999999999999         -2.1582965564448386E-004
 -0.10130000000000000         -3.5767300869338214E-004
 -0.10020000000000000         -3.5617148387245834E-004
  -9.9099999999999994E-002    -1.8915475811809301E-004
  -9.7999999999999990E-002     8.3881728642154485E-005
  -9.6899999999999986E-002     3.7587815313600004E-004
  -9.5799999999999996E-002     6.2856840668246150E-004
  -9.4699999999999993E-002     8.0356671242043376E-004
  -9.3599999999999989E-002     8.1653188681229949E-004
  -9.2499999999999999E-002     5.1131442887708545E-004
  -9.1399999999999995E-002    -2.3549124307464808E-004
  -9.0299999999999991E-002    -1.3184397248551250E-003
  -8.9200000000000002E-002    -2.2963804658502340E-003
  -8.8099999999999984E-002    -2.5481453631073236E-003
  -8.6999999999999994E-002    -1.6623393166810274E-003
  -8.5899999999999990E-002     2.0728734671138227E-004
  -8.4799999999999986E-002     2.3292154073715210E-003
  -8.3699999999999997E-002     3.7869471125304699E-003
  -8.2599999999999993E-002     3.9988486096262932E-003
  -8.1499999999999989E-002     2.9686563648283482E-003
  -8.0399999999999999E-002     1.1124071897938848E-003
  -7.9299999999999995E-002    -1.1026621796190739E-003
  -7.8199999999999992E-002    -3.3206650987267494E-003
  -7.7100000000000002E-002    -5.1356200128793716E-003
  -7.5999999999999984E-002    -5.9002614580094814E-003
  -7.4899999999999994E-002    -4.9144113436341286E-003
  -7.3799999999999991E-002    -2.0194118842482567E-003
  -7.2699999999999987E-002     1.9163747783750296E-003
  -7.1599999999999997E-002     5.2427207119762897E-003
  -7.0499999999999993E-002     6.5563577227294445E-003
  -6.9399999999999989E-002     5.7697459124028683E-003
  -6.8300000000000000E-002     4.2419349774718285E-003
  -6.7199999999999996E-002     3.6862730048596859E-003
  -6.6099999999999992E-002     4.6712672337889671E-003
  -6.5000000000000002E-002     6.0274251736700535E-003
  -6.3899999999999985E-002     5.8006546460092068E-003
  -6.2799999999999995E-002     3.0533692333847284E-003
  -6.1699999999999991E-002    -9.9932763259857893E-004
  -6.0599999999999994E-002    -3.5313172265887260E-003
  -5.9499999999999990E-002    -1.9233459606766701E-003
  -5.8399999999999994E-002     4.6020774170756340E-003
  -5.7299999999999990E-002     1.4737823978066444E-002
  -5.6199999999999986E-002     2.6174340397119522E-002
  -5.5099999999999996E-002     3.6880359053611755E-002
  -5.3999999999999992E-002     4.5596402138471603E-002
  -5.2899999999999989E-002     5.1631022244691849E-002
  -5.1799999999999985E-002     5.4841391742229462E-002
  -5.0699999999999995E-002     5.6291390210390091E-002
  -4.9599999999999991E-002     5.8926776051521301E-002
  -4.8499999999999988E-002     6.7040704190731049E-002
  -4.7399999999999998E-002     8.4179133176803589E-002
  -4.6299999999999994E-002    0.11078561097383499
  -4.5199999999999990E-002    0.14363834261894226
  -4.4099999999999986E-002    0.17797386646270752
  -4.2999999999999997E-002    0.21094700694084167
  -4.1899999999999993E-002    0.24377015233039856
  -4.0799999999999989E-002    0.28085026144981384
  -3.9699999999999985E-002    0.32674947381019592
  -3.8599999999999995E-002    0.38359335064888000
  -3.7499999999999992E-002    0.45099753141403198
  -3.6399999999999988E-002    0.52815717458724976
  -3.5299999999999984E-002    0.61590379476547241
  -3.4199999999999994E-002    0.71673387289047241
  -3.3099999999999991E-002    0.83308231830596924
  -3.1999999999999987E-002    0.96585547924041748
  -3.0899999999999997E-002     1.1148724555969238
  -2.9799999999999993E-002     1.2807713747024536
  -2.8699999999999989E-002     1.4662142992019653
  -2.7599999999999986E-002     1.6748385429382324
  -2.6499999999999996E-002     1.9086672067642212
  -2.5399999999999992E-002     2.1664996147155762
  -2.4299999999999988E-002     2.4451014995574951
  -2.3199999999999985E-002     2.7424719333648682
  -2.2099999999999995E-002     3.0603604316711426
  -2.0999999999999991E-002     3.4036438465118408
  -1.9899999999999987E-002     3.7768917083740234
  -1.8799999999999983E-002     4.1807699203491211
  -1.7699999999999994E-002     4.6108689308166504
  -1.6599999999999990E-002     5.0594687461853027
  -1.5499999999999986E-002     5.5184082984924316
  -1.4399999999999996E-002     5.9806084632873535
  -1.3299999999999992E-002     6.4397897720336914
  -1.2199999999999989E-002     6.8895416259765625
  -1.1099999999999985E-002     7.3227958679199219
  -9.9999999999999950E-003     7.7317752838134766
  -8.8999999999999913E-003     8.1075086593627930
  -7.7999999999999875E-003     8.4380712509155273
  -6.6999999999999837E-003     8.7068080902099609
  -5.5999999999999939E-003     8.8919248580932617
  -4.4999999999999901E-003     8.9684457778930664
  -3.3999999999999864E-003     8.9112920761108398
  -2.2999999999999826E-003     8.6970748901367188
  -1.1999999999999927E-003     8.3036003112792969
  -9.9999999999988987E-005     7.7077584266662598
   1.0000000000000148E-003     6.8836002349853516
   2.1000000000000185E-003     5.8022251129150391
   3.2000000000000084E-003     4.4330835342407227
   4.3000000000000121E-003     2.7457666397094727
   5.4000000000000159E-003    0.71135836839675903
   6.5000000000000058E-003    -1.6973500251770020
   7.6000000000000234E-003    -4.5044751167297363
   8.7000000000000133E-003    -7.7304582595825195
   9.8000000000000032E-003    -11.391316413879395
   1.0900000000000021E-002    -15.498691558837891
   1.2000000000000011E-002    -20.060916900634766
   1.3100000000000001E-002    -25.081716537475586
   1.4200000000000018E-002    -30.558309555053711
   1.5300000000000008E-002    -36.477283477783203
   1.6400000000000026E-002    -42.812160491943359
   1.7500000000000016E-002    -49.523376464843750
   1.8600000000000005E-002    -56.559329986572266
   1.9700000000000023E-002    -63.857963562011719
   2.0800000000000013E-002    -71.346534729003906
   2.1900000000000003E-002    -78.941101074218750
   2.3000000000000020E-002    -86.544631958007812
   2.4100000000000010E-002    -94.048233032226562
   2.5200000000000000E-002    -101.33116149902344
   2.6300000000000018E-002    -108.26108551025391
   2.7400000000000008E-002    -114.69229888916016
   2.8500000000000025E-002    -120.46623229980469
   2.9600000000000015E-002    -125.41461944580078
   3.0700000000000005E-002    -129.36418151855469
   3.1800000000000023E-002    -132.14202880859375
   3.2900000000000013E-002    -133.58120727539062
   3.4000000000000002E-002    -133.51933288574219
   3.5100000000000020E-002    -131.80053710937500
   3.6200000000000010E-002    -128.27456665039062
   3.7300000000000028E-002    -122.80273437500000
   3.8400000000000017E-002    -115.26560211181641
   3.9500000000000007E-002    -105.56780242919922
   4.0600000000000025E-002    -93.642730712890625
   4.1700000000000015E-002    -79.451934814453125
   4.2800000000000005E-002    -62.991001129150391
   4.3900000000000022E-002    -44.290332794189453
   4.5000000000000012E-002    -23.422599792480469
   4.6100000000000002E-002   -0.50166666507720947
   4.7200000000000020E-002     24.316333770751953
   4.8300000000000010E-002     50.834667205810547
   4.9400000000000027E-002     78.814537048339844
   5.0500000000000017E-002     107.97413635253906
   5.1600000000000007E-002     137.99087524414062
   5.2700000000000025E-002     168.50047302246094
   5.3800000000000014E-002     199.10572814941406
   5.4900000000000004E-002     229.38160705566406
   5.6000000000000022E-002     258.88674926757812
   5.7100000000000012E-002     287.16766357421875
   5.8200000000000002E-002     313.75939941406250
   5.9300000000000019E-002     338.19851684570312
   6.0400000000000009E-002     360.02511596679688
   6.1500000000000027E-002     378.80139160156250
   6.2600000000000017E-002     394.11511230468750
   6.3700000000000007E-002     405.58639526367188
   6.4800000000000024E-002     412.87219238281250
   6.5900000000000014E-002     415.68972778320312
   6.7000000000000004E-002     413.81539916992188
   6.8100000000000022E-002     407.09088134765625
   6.9200000000000012E-002     395.43765258789062
   7.0300000000000029E-002     378.85406494140625
   7.1400000000000019E-002     357.40499877929688
   7.2500000000000009E-002     331.23474121093750
   7.3600000000000027E-002     300.56427001953125
   7.4700000000000016E-002     265.69866943359375
   7.5800000000000006E-002     227.01733398437500
   7.6900000000000024E-002     184.97320556640625
   7.8000000000000014E-002     140.07414245605469
   7.9100000000000004E-002     92.881736755371094
   8.0200000000000021E-002     44.003067016601562
   8.1300000000000011E-002    -5.9181332588195801
   8.2400000000000029E-002    -56.212001800537109
   8.3500000000000019E-002    -106.19813537597656
   8.4600000000000009E-002    -155.19787597656250
   8.5700000000000026E-002    -202.55000305175781
   8.6800000000000016E-002    -247.61199951171875
   8.7900000000000006E-002    -289.77853393554688
   8.9000000000000024E-002    -328.48385620117188
   9.0100000000000013E-002    -363.22894287109375
   9.1200000000000003E-002    -393.58319091796875
   9.2300000000000021E-002    -419.18920898437500
   9.3400000000000011E-002    -439.76879882812500
   9.4500000000000028E-002    -455.12100219726562
   9.5600000000000018E-002    -465.12841796875000
   9.6700000000000008E-002    -469.76086425781250
   9.7800000000000026E-002    -469.07083129882812
   9.8900000000000016E-002    -463.20327758789062
  0.10000000000000001         -452.36624145507812
  0.10110000000000002         -436.85003662109375
  0.10220000000000001         -417.00573730468750
  0.10330000000000003         -393.24087524414062
  0.10440000000000002         -366.02185058593750
  0.10550000000000001         -335.84613037109375
  0.10660000000000003         -303.23529052734375
  0.10770000000000002         -268.71801757812500
  0.10880000000000001         -232.83366394042969
  0.10990000000000003         -196.12139892578125
  0.11100000000000002         -159.10932922363281
  0.11210000000000001         -122.30953216552734
  0.11320000000000002         -86.193733215332031
  0.11430000000000001         -51.191268920898438
  0.11540000000000003         -17.696466445922852
  0.11650000000000002          13.940133094787598
  0.11760000000000001          43.412467956542969
  0.11870000000000003          70.469535827636719
  0.11980000000000002          94.919998168945312
  0.12090000000000001          116.63079833984375
  0.12200000000000003          135.52180480957031
  0.12310000000000001          151.55540466308594
  0.12420000000000003          164.73826599121094
  0.12530000000000002          175.11999511718750
  0.12640000000000001          182.79254150390625
  0.12750000000000003          187.88574218750000
  0.12860000000000002          190.55647277832031
  0.12970000000000001          190.98052978515625
  0.13080000000000003          189.34803771972656
  0.13190000000000002          185.86453247070312
  0.13300000000000001          180.74696350097656
  0.13410000000000000          174.21989440917969
  0.13520000000000004          166.50343322753906
  0.13630000000000003          157.81265258789062
  0.13740000000000002          148.35154724121094
  0.13850000000000001          138.32037353515625
  0.13960000000000000          127.90985107421875
  0.14070000000000005          117.29749298095703
  0.14180000000000004          106.64139556884766
  0.14290000000000003          96.075523376464844
  0.14400000000000002          85.715682983398438
  0.14510000000000001          75.663101196289062
  0.14620000000000000          66.009147644042969
  0.14730000000000004          56.831115722656250
  0.14840000000000003          48.186817169189453
  0.14950000000000002          40.116554260253906
  0.15060000000000001          32.647052764892578
  0.15170000000000000          25.797700881958008
  0.15280000000000005          19.580749511718750
  0.15390000000000004          13.997875213623047
  0.15500000000000003          9.0364913940429688
  0.15610000000000002          4.6700000762939453
  0.15720000000000001         0.86636668443679810
  0.15830000000000000         -2.4052166938781738
  0.15940000000000004         -5.1730332374572754
  0.16050000000000003         -7.4691500663757324
  0.16160000000000002         -9.3316669464111328
  0.16270000000000001         -10.806108474731445
  0.16380000000000000         -11.937408447265625
  0.16490000000000005         -12.765158653259277
  0.16600000000000004         -13.322691917419434
  0.16710000000000003         -13.642466545104980
  0.16820000000000002         -13.760267257690430
  0.16930000000000001         -13.713466644287109
  0.17040000000000000         -13.536728858947754
  0.17150000000000004         -13.257017135620117
  0.17260000000000003         -12.894946098327637
  0.17370000000000002         -12.470499992370605
  0.17480000000000001         -12.005854606628418
  0.17590000000000000         -11.522904396057129
  0.17700000000000005         -11.037917137145996
  0.17810000000000004         -10.557862281799316
  0.17920000000000003         -10.082470893859863
  0.18030000000000002         -9.6121463775634766
  0.18140000000000001         -9.1518583297729492
  0.18250000000000000         -8.7085247039794922
  0.18360000000000004         -8.2870330810546875
  0.18470000000000003         -7.8863544464111328
  0.18580000000000002         -7.5017104148864746
  0.18690000000000001         -7.1298103332519531
  0.18800000000000000         -6.7717499732971191
  0.18910000000000005         -6.4298686981201172
  0.19020000000000004         -6.1039519309997559
  0.19130000000000003         -5.7890772819519043
  0.19240000000000002         -5.4785332679748535
  0.19350000000000001         -5.1694998741149902
  0.19460000000000005         -4.8643398284912109
  0.19570000000000004         -4.5673761367797852
  0.19680000000000003         -4.2809896469116211
  0.19790000000000002         -4.0038075447082520
  0.19900000000000001         -3.7344083786010742
  0.20010000000000000         -3.4744760990142822
  0.20120000000000005         -3.2288136482238770
  0.20230000000000004         -3.0009958744049072
  0.20340000000000003         -2.7903165817260742
  0.20450000000000002         -2.5926542282104492
  0.20560000000000000         -2.4053678512573242
  0.20670000000000005         -2.2300405502319336
  0.20780000000000004         -2.0703885555267334
  0.20890000000000003         -1.9266093969345093
