 -0.12000000000000000          0.0000000000000000
 -0.11889999999999999          0.0000000000000000
 -0.11780000000000000          0.0000000000000000
 -0.11670000000000000          0.0000000000000000
 -0.11559999999999999          0.0000000000000000
 -0.11449999999999999          0.0000000000000000
 -0.11340000000000000          1.8004143098257486E-012
 -0.11230000000000000          3.9959150571755586E-011
 -0.11119999999999999          2.8585522837687449E-010
 -0.11009999999999999          1.1047183168244601E-009
 -0.10900000000000000          2.6223787585877290E-009
 -0.10790000000000000          3.6438712047726085E-009
 -0.10679999999999999          1.4078933574523944E-009
 -0.10569999999999999         -5.1050128568874698E-009
 -0.10460000000000000         -9.0809670894032024E-009
 -0.10349999999999999          4.1329553113200745E-009
 -0.10239999999999999          4.0921360522361283E-008
 -0.10130000000000000          7.5559455581242219E-008
 -0.10020000000000000          5.1788191512969206E-008
  -9.9099999999999994E-002    -6.7695538064072025E-008
  -9.7999999999999990E-002    -2.4158072164937039E-007
  -9.6899999999999986E-002    -3.5545684795579291E-007
  -9.5799999999999996E-002    -2.8909744287375361E-007
  -9.4699999999999993E-002     8.2769396669846174E-008
  -9.3599999999999989E-002     9.8922600955120288E-007
  -9.2499999999999999E-002     2.5988722427428002E-006
  -9.1399999999999995E-002     4.1069192775466945E-006
  -9.0299999999999991E-002     2.6022178190032719E-006
  -8.9200000000000002E-002    -5.9565222727542277E-006
  -8.8099999999999984E-002    -2.1342435502447188E-005
  -8.6999999999999994E-002    -3.1610106816515326E-005
  -8.5899999999999990E-002    -1.3390467756835278E-005
  -8.4799999999999986E-002     4.9288115405943245E-005
  -8.3699999999999997E-002     1.3193445920478553E-004
  -8.2599999999999993E-002     1.5285544213838875E-004
  -8.1499999999999989E-002     1.4316346096165944E-005
  -8.0399999999999999E-002    -2.9187282780185342E-004
  -7.9299999999999995E-002    -5.8471469674259424E-004
  -7.8199999999999992E-002    -5.2673154277727008E-004
  -7.7100000000000002E-002     1.3597337238024920E-004
  -7.5999999999999984E-002     1.2306302087381482E-003
  -7.4899999999999994E-002     2.0070266909897327E-003
  -7.3799999999999991E-002     1.4721149345859885E-003
  -7.2699999999999987E-002    -8.0996489850804210E-004
  -7.1599999999999997E-002    -3.9483564905822277E-003
  -7.0499999999999993E-002    -5.7292617857456207E-003
  -6.9399999999999989E-002    -3.8034066092222929E-003
  -6.8300000000000000E-002     2.3928596638143063E-003
  -6.7199999999999996E-002     1.0260195471346378E-002
  -6.6099999999999992E-002     1.4552309177815914E-002
  -6.5000000000000002E-002     1.0155045427381992E-002
  -6.3899999999999985E-002    -4.0640328079462051E-003
  -6.2799999999999995E-002    -2.2673215717077255E-002
  -6.1699999999999991E-002    -3.4578114748001099E-002
  -6.0599999999999994E-002    -2.8104389086365700E-002
  -5.9499999999999990E-002     1.3435211731120944E-003
  -5.8399999999999994E-002     4.4781208038330078E-002
  -5.7299999999999990E-002     7.8985370695590973E-002
  -5.6199999999999986E-002     7.5154781341552734E-002
  -5.5099999999999996E-002     1.6247183084487915E-002
  -5.3999999999999992E-002    -8.4200099110603333E-002
  -5.2899999999999989E-002   -0.17487734556198120
  -5.1799999999999985E-002   -0.18397876620292664
  -5.0699999999999995E-002    -6.2574207782745361E-002
  -4.9599999999999991E-002    0.16477259993553162
  -4.8499999999999988E-002    0.37895712256431580
  -4.7399999999999998E-002    0.40935614705085754
  -4.6299999999999994E-002    0.14189162850379944
  -4.5199999999999990E-002   -0.36091846227645874
  -4.4099999999999986E-002   -0.82009398937225342
  -4.2999999999999997E-002   -0.85475492477416992
  -4.1899999999999993E-002   -0.23554901778697968
  -4.0799999999999989E-002    0.86053293943405151
  -3.9699999999999985E-002     1.7986689805984497
  -3.8599999999999995E-002     1.7734829187393188
  -3.7499999999999992E-002    0.35973066091537476
  -3.6399999999999988E-002    -1.9913626909255981
  -3.5299999999999984E-002    -3.9193797111511230
  -3.4199999999999994E-002    -3.8008952140808105
  -3.3099999999999991E-002   -0.85172015428543091
  -3.1999999999999987E-002     3.9692254066467285
  -3.0899999999999997E-002     7.9976153373718262
  -2.9799999999999993E-002     8.1455659866333008
  -2.8699999999999989E-002     2.9180510044097900
  -2.7599999999999986E-002    -6.0396103858947754
  -2.6499999999999996E-002    -14.094120025634766
  -2.5399999999999992E-002    -15.857843399047852
  -2.4299999999999988E-002    -8.5337638854980469
  -2.3199999999999985E-002     5.6161971092224121
  -2.2099999999999995E-002     19.551651000976562
  -2.0999999999999991E-002     24.923305511474609
  -1.9899999999999987E-002     17.122390747070312
  -1.8799999999999983E-002    -1.0936690568923950
  -1.7699999999999994E-002    -20.064491271972656
  -1.6599999999999990E-002    -28.262390136718750
  -1.5499999999999986E-002    -19.467056274414062
  -1.4399999999999996E-002     2.2121260166168213
  -1.3299999999999992E-002     23.146190643310547
  -1.2199999999999989E-002     27.395761489868164
  -1.1099999999999985E-002     6.8615970611572266
  -9.9999999999999950E-003    -31.568675994873047
  -8.8999999999999913E-003    -66.914512634277344
  -7.7999999999999875E-003    -73.802017211914062
  -6.6999999999999837E-003    -36.307426452636719
  -5.5999999999999939E-003     41.993152618408203
  -4.4999999999999901E-003     138.40992736816406
  -3.3999999999999864E-003     222.92700195312500
  -2.2999999999999826E-003     275.37335205078125
  -1.1999999999999927E-003     298.01690673828125
  -9.9999999999988987E-005     315.62689208984375
   1.0000000000000148E-003     362.32940673828125
   2.1000000000000185E-003     462.89871215820312
   3.2000000000000084E-003     620.11883544921875
   4.3000000000000121E-003     816.54351806640625
   5.4000000000000159E-003     1030.0223388671875
   6.5000000000000058E-003     1253.3114013671875
   7.6000000000000234E-003     1504.9769287109375
   8.7000000000000133E-003     1824.0230712890625
   9.8000000000000032E-003     2251.2792968750000
   1.0900000000000021E-002     2809.7587890625000
   1.2000000000000011E-002     3497.6970214843750
   1.3100000000000001E-002     4300.4799804687500
   1.4200000000000018E-002     5215.3022460937500
   1.5300000000000008E-002     6273.2690429687500
   1.6400000000000026E-002     7543.8320312500000
   1.7500000000000016E-002     9116.6083984375000
   1.8600000000000005E-002     11070.254882812500
   1.9700000000000023E-002     13447.668945312500
   2.0800000000000013E-002     16255.221679687500
   2.1900000000000003E-002     19490.179687500000
   2.3000000000000020E-002     23182.972656250000
   2.4100000000000010E-002     27429.552734375000
   2.5200000000000000E-002     32392.804687500000
   2.6300000000000018E-002     38269.007812500000
   2.7400000000000008E-002     45236.894531250000
   2.8500000000000025E-002     53419.460937500000
   2.9600000000000015E-002     62883.195312500000
   3.0700000000000005E-002     73676.984375000000
   3.1800000000000023E-002     85890.531250000000
   3.2900000000000013E-002     99697.156250000000
   3.4000000000000002E-002     115356.07031250000
   3.5100000000000020E-002     133172.31250000000
   3.6200000000000010E-002     153437.21875000000
   3.7300000000000028E-002     176383.73437500000
   3.8400000000000017E-002     202181.12500000000
   3.9500000000000007E-002     230967.00000000000
   4.0600000000000025E-002     262896.68750000000
   4.1700000000000015E-002     298177.53125000000
   4.2800000000000005E-002     337066.84375000000
   4.3900000000000022E-002     379835.68750000000
   4.5000000000000012E-002     426717.90625000000
   4.6100000000000002E-002     477873.87500000000
   4.7200000000000020E-002     533383.68750000000
   4.8300000000000010E-002     593272.18750000000
   4.9400000000000027E-002     657537.25000000000
   5.0500000000000017E-002     726169.81250000000
   5.1600000000000007E-002     799132.75000000000
   5.2700000000000025E-002     876320.06250000000
   5.3800000000000014E-002     957501.37500000000
   5.4900000000000004E-002     1042301.7500000000
   5.6000000000000022E-002     1130209.5000000000
   5.7100000000000012E-002     1220609.5000000000
   5.8200000000000002E-002     1312822.2500000000
   5.9300000000000019E-002     1406106.5000000000
   6.0400000000000009E-002     1499631.8750000000
   6.1500000000000027E-002     1592434.1250000000
   6.2600000000000017E-002     1683366.7500000000
   6.3700000000000007E-002     1771108.5000000000
   6.4800000000000024E-002     1854193.8750000000
   6.5900000000000014E-002     1931056.5000000000
   6.7000000000000004E-002     2000069.0000000000
   6.8100000000000022E-002     2059573.3750000000
   6.9200000000000012E-002     2107862.2500000000
   7.0300000000000029E-002     2143195.5000000000
   7.1400000000000019E-002     2163780.0000000000
   7.2500000000000009E-002     2167815.5000000000
   7.3600000000000027E-002     2153508.2500000000
   7.4700000000000016E-002     2119139.2500000000
   7.5800000000000006E-002     2063105.0000000000
   7.6900000000000024E-002     1983956.0000000000
   7.8000000000000014E-002     1880450.5000000000
   7.9100000000000004E-002     1751551.5000000000
   8.0200000000000021E-002     1596478.8750000000
   8.1300000000000011E-002     1414734.6250000000
   8.2400000000000029E-002     1206112.0000000000
   8.3500000000000019E-002     970766.43750000000
   8.4600000000000009E-002     709249.87500000000
   8.5700000000000026E-002     422517.59375000000
   8.6800000000000016E-002     111938.48437500000
   8.7900000000000006E-002    -220711.62500000000
   8.9000000000000024E-002    -573261.43750000000
   9.0100000000000013E-002    -943138.37500000000
   9.1200000000000003E-002    -1327356.3750000000
   9.2300000000000021E-002    -1722539.7500000000
   9.3400000000000011E-002    -2124953.2500000000
   9.4500000000000028E-002    -2530584.5000000000
   9.5600000000000018E-002    -2935149.0000000000
   9.6700000000000008E-002    -3334181.0000000000
   9.7800000000000026E-002    -3723052.2500000000
   9.8900000000000016E-002    -4097026.7500000000
  0.10000000000000001         -4451408.5000000000
  0.10110000000000002         -4781570.0000000000
  0.10220000000000001         -5083053.0000000000
  0.10330000000000003         -5351617.0000000000
  0.10440000000000002         -5583321.0000000000
  0.10550000000000001         -5774557.0000000000
  0.10660000000000003         -5922170.5000000000
  0.10770000000000002         -6023485.5000000000
  0.10880000000000001         -6076374.5000000000
  0.10990000000000003         -6079298.0000000000
  0.11100000000000002         -6031348.0000000000
  0.11210000000000001         -5932288.5000000000
  0.11320000000000002         -5782578.0000000000
  0.11430000000000001         -5583375.5000000000
  0.11540000000000003         -5336466.5000000000
  0.11650000000000002         -5044249.5000000000
  0.11760000000000001         -4709718.0000000000
  0.11870000000000003         -4336418.5000000000
  0.11980000000000002         -3928422.0000000000
  0.12090000000000001         -3490288.2500000000
  0.12200000000000003         -3026889.5000000000
  0.12310000000000001         -2543366.7500000000
  0.12420000000000003         -2045030.7500000000
  0.12530000000000002         -1537379.7500000000
  0.12640000000000001         -1026019.3750000000
  0.12750000000000003         -516512.09375000000
  0.12860000000000002         -14283.010742187500
  0.12970000000000001          475571.37500000000
  0.13080000000000003          948254.62500000000
  0.13190000000000002          1399302.5000000000
  0.13300000000000001          1824600.1250000000
  0.13410000000000000          2220464.0000000000
  0.13520000000000004          2583691.2500000000
  0.13630000000000003          2911689.0000000000
  0.13740000000000002          3202445.2500000000
  0.13850000000000001          3454503.0000000000
  0.13960000000000000          3666889.5000000000
  0.14070000000000005          3839182.2500000000
  0.14180000000000004          3971541.5000000000
  0.14290000000000003          4064619.0000000000
  0.14400000000000002          4119563.5000000000
  0.14510000000000001          4137898.5000000000
  0.14620000000000000          4121523.7500000000
  0.14730000000000004          4072664.5000000000
  0.14840000000000003          3993873.7500000000
  0.14950000000000002          3887949.0000000000
  0.15060000000000001          3757861.5000000000
  0.15170000000000000          3606616.7500000000
  0.15280000000000005          3437223.2500000000
  0.15390000000000004          3252707.0000000000
  0.15500000000000003          3056090.0000000000
  0.15610000000000002          2850420.0000000000
  0.15720000000000001          2638593.2500000000
  0.15830000000000000          2423314.0000000000
  0.15940000000000004          2207018.2500000000
  0.16050000000000003          1992003.6250000000
  0.16160000000000002          1780363.2500000000
  0.16270000000000001          1574048.2500000000
  0.16380000000000000          1374701.3750000000
  0.16490000000000005          1183644.0000000000
  0.16600000000000004          1001905.0000000000
  0.16710000000000003          830309.00000000000
  0.16820000000000002          669577.12500000000
  0.16930000000000001          520326.56250000000
  0.17040000000000000          382993.18750000000
  0.17150000000000004          257611.81250000000
  0.17260000000000003          143994.85937500000
  0.17370000000000002          41802.468750000000
  0.17480000000000001         -49257.164062500000
  0.17590000000000000         -129510.17968750000
  0.17700000000000005         -199334.01562500000
  0.17810000000000004         -259282.37500000000
  0.17920000000000003         -310093.03125000000
  0.18030000000000002         -352514.09375000000
  0.18140000000000001         -387258.15625000000
  0.18250000000000000         -414866.62500000000
  0.18360000000000004         -435913.84375000000
  0.18470000000000003         -451076.68750000000
  0.18580000000000002         -461069.59375000000
  0.18690000000000001         -466569.46875000000
  0.18800000000000000         -468164.21875000000
  0.18910000000000005         -466234.53125000000
  0.19020000000000004         -461191.81250000000
  0.19130000000000003         -453483.15625000000
  0.19240000000000002         -443619.71875000000
  0.19350000000000001         -432081.62500000000
  0.19460000000000005         -419174.34375000000
  0.19570000000000004         -405059.31250000000
  0.19680000000000003         -389889.15625000000
  0.19790000000000002         -373874.96875000000
  0.19900000000000001         -357327.46875000000
  0.20010000000000000         -340516.06250000000
  0.20120000000000005         -323575.90625000000
  0.20230000000000004         -306550.40625000000
  0.20340000000000003         -289439.87500000000
  0.20450000000000002         -272372.15625000000
  0.20560000000000000         -255497.18750000000
  0.20670000000000005         -238958.85937500000
  0.20780000000000004         -222864.35937500000
  0.20890000000000003         -207222.12500000000
