 -0.12000000000000000          0.0000000000000000
 -0.11889999999999999          0.0000000000000000
 -0.11780000000000000          0.0000000000000000
 -0.11670000000000000          0.0000000000000000
 -0.11559999999999999          0.0000000000000000
 -0.11449999999999999          0.0000000000000000
 -0.11340000000000000          0.0000000000000000
 -0.11230000000000000          0.0000000000000000
 -0.11119999999999999          0.0000000000000000
 -0.11009999999999999          0.0000000000000000
 -0.10900000000000000         -5.9352341438921774E-026
 -0.10790000000000000         -2.8590128654910819E-025
 -0.10679999999999999          1.4471355511287741E-024
 -0.10569999999999999          1.4697586224978380E-023
 -0.10460000000000000          2.9786270754103613E-023
 -0.10349999999999999         -1.1889928658012207E-022
 -0.10239999999999999         -7.9638625960358575E-022
 -0.10130000000000000         -1.4134340674610281E-021
 -0.10020000000000000          2.5787428297761663E-021
  -9.9099999999999994E-002     1.8271875278432260E-020
  -9.7999999999999990E-002     3.3014494000527528E-020
  -9.6899999999999986E-002    -2.5311067584572019E-020
  -9.5799999999999996E-002    -2.5253650910303182E-019
  -9.4699999999999993E-002    -4.9503016669026904E-019
  -9.3599999999999989E-002     4.4616157687155499E-020
  -9.2499999999999999E-002     2.4036234919081192E-018
  -9.1399999999999995E-002     5.4017280415779923E-018
  -9.0299999999999991E-002     2.3576521021848721E-018
  -8.9200000000000002E-002    -1.6086839808086321E-017
  -8.8099999999999984E-002    -4.4590924542569569E-017
  -8.6999999999999994E-002    -3.9305981582184570E-017
  -8.5899999999999990E-002     6.9911591454752689E-017
  -8.4799999999999986E-002     2.7995825923205755E-016
  -8.3699999999999997E-002     3.6454590749040777E-016
  -8.2599999999999993E-002    -1.0884921296655514E-016
  -8.1499999999999989E-002    -1.3139316955827372E-015
  -8.0399999999999999E-002    -2.3563490975054766E-015
  -7.9299999999999995E-002    -1.0585287097333450E-015
  -7.8199999999999992E-002     4.2937091124868772E-015
  -7.7100000000000002E-002     1.1252401564503228E-014
  -7.5999999999999984E-002     1.0958102508078563E-014
  -7.4899999999999994E-002    -6.8507533494818404E-015
  -7.3799999999999991E-002    -3.9675538245423358E-014
  -7.2699999999999987E-002    -5.9077844341819813E-014
  -7.1599999999999997E-002    -1.9779144278366315E-014
  -7.0499999999999993E-002     9.5598781169915770E-014
  -6.9399999999999989E-002     2.1962776920476240E-013
  -6.8300000000000000E-002     1.9770486246392660E-013
  -6.7199999999999996E-002    -9.8797191131275164E-014
  -6.6099999999999992E-002    -5.7879189722248592E-013
  -6.5000000000000002E-002    -8.3344025040774095E-013
  -6.3899999999999985E-002    -3.4851873990937587E-013
  -6.2799999999999995E-002     9.6499533624311296E-013
  -6.1699999999999991E-002     2.3072969316390024E-012
  -6.0599999999999994E-002     2.2081941310203579E-012
  -5.9499999999999990E-002    -3.0709755485108792E-013
  -5.8399999999999994E-002    -4.2728893340227003E-012
  -5.7299999999999990E-002    -6.5264182946833671E-012
  -5.6199999999999986E-002    -3.7175974104686205E-012
  -5.5099999999999996E-002     4.2420867166215181E-012
  -5.3999999999999992E-002     1.2257879607180389E-011
  -5.2899999999999989E-002     1.2636097029838922E-011
  -5.1799999999999985E-002     1.7669277499465785E-012
  -5.0699999999999995E-002    -1.4304987749902409E-011
  -4.9599999999999991E-002    -2.2083437509201609E-011
  -4.8499999999999988E-002    -1.1865094844132340E-011
  -4.7399999999999998E-002     1.0330902799893238E-011
  -4.6299999999999994E-002     2.3405428636880110E-011
  -4.5199999999999990E-002     9.6604720750681494E-012
  -4.4099999999999986E-002    -2.1871917471605329E-011
  -4.2999999999999997E-002    -3.2762965951338430E-011
  -4.1899999999999993E-002     1.2191719855891847E-011
  -4.0799999999999989E-002     9.6374921931818847E-011
  -3.9699999999999985E-002     1.3588347114179555E-010
  -3.8599999999999995E-002     3.5510483442635632E-011
  -3.7499999999999992E-002    -2.0583311444166696E-010
  -3.6399999999999988E-002    -4.2999617755334896E-010
  -3.5299999999999984E-002    -3.8876146746247287E-010
  -3.4199999999999994E-002     5.3325954763039363E-011
  -3.3099999999999991E-002     7.2237393844432063E-010
  -3.1999999999999987E-002     1.1434035940283138E-009
  -3.0899999999999997E-002     8.3607853973433066E-010
  -2.9799999999999993E-002    -2.6338414782500763E-010
  -2.8699999999999989E-002    -1.5941128417296113E-009
  -2.7599999999999986E-002    -2.2330619575683386E-009
  -2.6499999999999996E-002    -1.5350132276381601E-009
  -2.5399999999999992E-002     3.0603081180302638E-010
  -2.4299999999999988E-002     2.2671200472501596E-009
  -2.3199999999999985E-002     3.1654838750228009E-009
  -2.2099999999999995E-002     2.5051400953657321E-009
  -2.0999999999999991E-002     7.9232487237845817E-010
  -1.9899999999999987E-002    -9.8753316635225019E-010
  -1.8799999999999983E-002    -2.2735533455886525E-009
  -1.7699999999999994E-002    -3.3125795440014372E-009
  -1.6599999999999990E-002    -4.5182964036882822E-009
  -1.5499999999999986E-002    -5.3333444327563484E-009
  -1.4399999999999996E-002    -3.8769294441465263E-009
  -1.3299999999999992E-002     1.7298353860439875E-009
  -1.2199999999999989E-002     1.0955990781269520E-008
  -1.1099999999999985E-002     1.9391071859331532E-008
  -9.9999999999999950E-003     2.0175267678723685E-008
  -8.8999999999999913E-003     8.3537097239627656E-009
  -7.7999999999999875E-003    -1.4391098090982268E-008
  -6.6999999999999837E-003    -3.8280788317024417E-008
  -5.5999999999999939E-003    -4.9299117677037430E-008
  -4.4999999999999901E-003    -3.6897965571824898E-008
  -3.3999999999999864E-003    -1.1352270234965545E-009
  -2.2999999999999826E-003     4.5300485140842284E-008
  -1.1999999999999927E-003     8.1807939977807109E-008
  -9.9999999999988987E-005     8.9026869432018430E-008
   1.0000000000000148E-003     5.7825054966542666E-008
   2.1000000000000185E-003    -5.9030860199982271E-009
   3.2000000000000084E-003    -8.2156262237731426E-008
   4.3000000000000121E-003    -1.4262487013638747E-007
   5.4000000000000159E-003    -1.5951975740335911E-007
   6.5000000000000058E-003    -1.1551657053132658E-007
   7.6000000000000234E-003    -1.2583910802277387E-008
   8.7000000000000133E-003     1.2346072253421880E-007
   9.8000000000000032E-003     2.4622409000585321E-007
   1.0900000000000021E-002     3.0169636033861025E-007
   1.2000000000000011E-002     2.4867836145858746E-007
   1.3100000000000001E-002     7.9786602213971491E-008
   1.4200000000000018E-002    -1.6632209565159428E-007
   1.5300000000000008E-002    -4.0921383970271563E-007
   1.6400000000000026E-002    -5.4955773975962074E-007
   1.7500000000000016E-002    -5.0528922201920068E-007
   1.8600000000000005E-002    -2.4915078711273964E-007
   1.9700000000000023E-002     1.6742356478971487E-007
   2.0800000000000013E-002     6.1695698150288081E-007
   2.1900000000000003E-002     9.3002870471536880E-007
   2.3000000000000020E-002     9.5372161013074219E-007
   2.4100000000000010E-002     6.1559688901979825E-007
   2.5200000000000000E-002    -3.1489093998970930E-008
   2.6300000000000018E-002    -8.0474899277760414E-007
   2.7400000000000008E-002    -1.4355551911648945E-006
   2.8500000000000025E-002    -1.6542030607524794E-006
   2.9600000000000015E-002    -1.2921841516799759E-006
   3.0700000000000005E-002    -3.6885290910504409E-007
   3.1800000000000023E-002     8.7335382659148308E-007
   3.2900000000000013E-002     2.0134543774474878E-006
   3.4000000000000002E-002     2.5825672764767660E-006
   3.5100000000000020E-002     2.2505703327624360E-006
   3.6200000000000010E-002     9.9927217434014892E-007
   3.7300000000000028E-002    -8.0598658769304166E-007
   3.8400000000000017E-002    -2.5089034352276940E-006
   3.9500000000000007E-002    -3.4097474781447090E-006
   4.0600000000000025E-002    -3.0714481908944435E-006
   4.1700000000000015E-002    -1.5377918316517025E-006
   4.2800000000000005E-002     6.5492213252582587E-007
   4.3900000000000022E-002     2.6902976060227957E-006
   4.5000000000000012E-002     3.8067751120252069E-006
   4.6100000000000002E-002     3.5902007766708266E-006
   4.7200000000000020E-002     2.0930483515257947E-006
   4.8300000000000010E-002    -2.4223015770985512E-007
   4.9400000000000027E-002    -2.7689377475326182E-006
   5.0500000000000017E-002    -4.8073161451611668E-006
   5.1600000000000007E-002    -5.7333672884851694E-006
   5.2700000000000025E-002    -5.0179146455775481E-006
   5.3800000000000014E-002    -2.3114516807254404E-006
   5.4900000000000004E-002     2.3606835384271108E-006
   5.6000000000000022E-002     8.3412141975713894E-006
   5.7100000000000012E-002     1.4187895430950448E-005
   5.8200000000000002E-002     1.7817981643020175E-005
   5.9300000000000019E-002     1.7031921743182465E-005
   6.0400000000000009E-002     1.0284293239237741E-005
   6.1500000000000027E-002    -2.6311809051549062E-006
   6.2600000000000017E-002    -2.0369949197629467E-005
   6.3700000000000007E-002    -4.0521183109376580E-005
   6.4800000000000024E-002    -6.0678034060401842E-005
   6.5900000000000014E-002    -7.9647841630503535E-005
   6.7000000000000004E-002    -9.8221506050322205E-005
   6.8100000000000022E-002    -1.1910012108273804E-004
   6.9200000000000012E-002    -1.4600297436118126E-004
   7.0300000000000029E-002    -1.8242551595903933E-004
   7.1400000000000019E-002    -2.3071300529409200E-004
   7.2500000000000009E-002    -2.9193761292845011E-004
   7.3600000000000027E-002    -3.6661195917986333E-004
   7.4700000000000016E-002    -4.5581819722428918E-004
   7.5800000000000006E-002    -5.6214939104393125E-004
   7.6900000000000024E-002    -6.9004180841147900E-004
   7.8000000000000014E-002    -8.4549491293728352E-004
   7.9100000000000004E-002    -1.0355310514569283E-003
   8.0200000000000021E-002    -1.2678444618359208E-003
   8.1300000000000011E-002    -1.5508924843743443E-003
   8.2400000000000029E-002    -1.8943498143926263E-003
   8.3500000000000019E-002    -2.3096173536032438E-003
   8.4600000000000009E-002    -2.8100837953388691E-003
   8.5700000000000026E-002    -3.4110418055206537E-003
   8.6800000000000016E-002    -4.1294423863291740E-003
   8.7900000000000006E-002    -4.9838409759104252E-003
   8.9000000000000024E-002    -5.9948056004941463E-003
   9.0100000000000013E-002    -7.1858055889606476E-003
   9.1200000000000003E-002    -8.5843214765191078E-003
   9.2300000000000021E-002    -1.0222723707556725E-002
   9.3400000000000011E-002    -1.2138547375798225E-002
   9.4500000000000028E-002    -1.4374174177646637E-002
   9.5600000000000018E-002    -1.6976242884993553E-002
   9.6700000000000008E-002    -1.9995193928480148E-002
   9.7800000000000026E-002    -2.3485323414206505E-002
   9.8900000000000016E-002    -2.7505276724696159E-002
  0.10000000000000001         -3.2118491828441620E-002
  0.10110000000000002         -3.7393234670162201E-002
  0.10220000000000001         -4.3402206152677536E-002
  0.10330000000000003         -5.0221990793943405E-002
  0.10440000000000002         -5.7932816445827484E-002
  0.10550000000000001         -6.6618666052818298E-002
  0.10660000000000003         -7.6367408037185669E-002
  0.10770000000000002         -8.7270185351371765E-002
  0.10880000000000001         -9.9419668316841125E-002
  0.10990000000000003        -0.11290720850229263
  0.11100000000000002        -0.12781965732574463
  0.11210000000000001        -0.14423681795597076
  0.11320000000000002        -0.16222940385341644
  0.11430000000000001        -0.18185842037200928
  0.11540000000000003        -0.20317454636096954
  0.11650000000000002        -0.22621604800224304
  0.11760000000000001        -0.25100520253181458
  0.11870000000000003        -0.27754300832748413
  0.11980000000000002        -0.30580416321754456
  0.12090000000000001        -0.33573225140571594
  0.12200000000000003        -0.36723580956459045
  0.12310000000000001        -0.40018668770790100
  0.12420000000000003        -0.43441966176033020
  0.12530000000000002        -0.46973076462745667
  0.12640000000000001        -0.50587445497512817
  0.12750000000000003        -0.54255968332290649
  0.12860000000000002        -0.57944476604461670
  0.12970000000000001        -0.61613517999649048
  0.13080000000000003        -0.65218597650527954
  0.13190000000000002        -0.68710494041442871
  0.13300000000000001        -0.72035402059555054
  0.13410000000000000        -0.75135326385498047
  0.13520000000000004        -0.77948498725891113
  0.13630000000000003        -0.80409497022628784
  0.13740000000000002        -0.82449817657470703
  0.13850000000000001        -0.83999127149581909
  0.13960000000000000        -0.84986221790313721
  0.14070000000000005        -0.85340124368667603
  0.14180000000000004        -0.84991252422332764
  0.14290000000000003        -0.83872658014297485
  0.14400000000000002        -0.81921339035034180
  0.14510000000000001        -0.79079216718673706
  0.14620000000000000        -0.75294297933578491
  0.14730000000000004        -0.70522266626358032
  0.14840000000000003        -0.64728879928588867
  0.14950000000000002        -0.57891589403152466
  0.15060000000000001        -0.50000572204589844
  0.15170000000000000        -0.41059556603431702
  0.15280000000000005        -0.31086421012878418
  0.15390000000000004        -0.20114247500896454
  0.15500000000000003         -8.1919476389884949E-002
  0.15610000000000002          4.6155404299497604E-002
  0.15720000000000001         0.18227136135101318
  0.15830000000000000         0.32545334100723267
  0.15940000000000004         0.47456294298171997
  0.16050000000000003         0.62830287218093872
  0.16160000000000002         0.78523224592208862
  0.16270000000000001         0.94379132986068726
  0.16380000000000000          1.1023259162902832
  0.16490000000000005          1.2591080665588379
  0.16600000000000004          1.4123471975326538
  0.16710000000000003          1.5602055788040161
  0.16820000000000002          1.7008272409439087
  0.16930000000000001          1.8323791027069092
  0.17040000000000000          1.9530897140502930
  0.17150000000000004          2.0612771511077881
  0.17260000000000003          2.1553688049316406
  0.17370000000000002          2.2339203357696533
  0.17480000000000001          2.2956438064575195
  0.17590000000000000          2.3394410610198975
  0.17700000000000005          2.3644340038299561
  0.17810000000000004          2.3699831962585449
  0.17920000000000003          2.3556933403015137
  0.18030000000000002          2.3214163780212402
  0.18140000000000001          2.2672629356384277
  0.18250000000000000          2.1936082839965820
  0.18360000000000004          2.1010928153991699
  0.18470000000000003          1.9906147718429565
  0.18580000000000002          1.8633044958114624
  0.18690000000000001          1.7205116748809814
  0.18800000000000000          1.5637878179550171
  0.18910000000000005          1.3948628902435303
  0.19020000000000004          1.2156250476837158
  0.19130000000000003          1.0280861854553223
  0.19240000000000002         0.83434516191482544
  0.19350000000000001         0.63654798269271851
  0.19460000000000005         0.43686002492904663
  0.19570000000000004         0.23743790388107300
  0.19680000000000003          4.0396638214588165E-002
  0.19790000000000002        -0.15222850441932678
  0.19900000000000001        -0.33851090073585510
  0.20010000000000000        -0.51665294170379639
  0.20120000000000005        -0.68501329421997070
  0.20230000000000004        -0.84212267398834229
  0.20340000000000003        -0.98670482635498047
  0.20450000000000002         -1.1176919937133789
  0.20560000000000000         -1.2342283725738525
  0.20670000000000005         -1.3356838226318359
  0.20780000000000004         -1.4216580390930176
  0.20890000000000003         -1.4919707775115967
