 -0.12000000000000000          0.0000000000000000
 -0.11889999999999999          0.0000000000000000
 -0.11780000000000000          0.0000000000000000
 -0.11670000000000000          0.0000000000000000
 -0.11559999999999999          0.0000000000000000
 -0.11449999999999999          0.0000000000000000
 -0.11340000000000000          0.0000000000000000
 -0.11230000000000000          0.0000000000000000
 -0.11119999999999999          0.0000000000000000
 -0.11009999999999999          0.0000000000000000
 -0.10900000000000000         -6.1131974015371733E-035
 -0.10790000000000000          1.0769453125531625E-033
 -0.10679999999999999         -1.2303404486935187E-031
 -0.10569999999999999         -1.6787333565618557E-031
 -0.10460000000000000         -1.8975238883007451E-031
 -0.10349999999999999         -2.3017512493733770E-029
 -0.10239999999999999         -1.0738657961812681E-028
 -0.10130000000000000          7.1041139894317891E-029
 -0.10020000000000000          1.4075690776398196E-027
  -9.9099999999999994E-002     1.0642160204914131E-027
  -9.7999999999999990E-002    -1.4900805964671336E-026
  -9.6899999999999986E-002    -4.0719869021445285E-026
  -9.5799999999999996E-002     5.8323974967304677E-026
  -9.4699999999999993E-002     4.7719842903958653E-025
  -9.3599999999999989E-002     5.7062509958956086E-025
  -9.2499999999999999E-002    -2.2210930989131242E-024
  -9.1399999999999995E-002    -8.6515535101119040E-024
  -9.0299999999999991E-002    -4.8645943913013227E-024
  -8.9200000000000002E-002     4.0123412548254746E-023
  -8.8099999999999984E-002     1.1288983255656978E-022
  -8.6999999999999994E-002     3.2121759728326457E-023
  -8.5899999999999990E-002    -4.8878356850731993E-022
  -8.4799999999999986E-002    -1.1795167404415693E-021
  -8.3699999999999997E-002    -2.7574295940621757E-022
  -8.2599999999999993E-002     4.4826456240993602E-021
  -8.1499999999999989E-002     1.0365044826732533E-020
  -8.0399999999999999E-002     3.4787266453437977E-021
  -7.9299999999999995E-002    -3.2385022479071746E-020
  -7.8199999999999992E-002    -7.8025226533393625E-020
  -7.7100000000000002E-002    -4.1136635365148260E-020
  -7.5999999999999984E-002     1.8640374224684403E-019
  -7.4899999999999994E-002     5.0479012243657050E-019
  -7.3799999999999991E-002     3.8629603439925472E-019
  -7.2699999999999987E-002    -8.3482407160574736E-019
  -7.1599999999999997E-002    -2.7961165566614681E-018
  -7.0499999999999993E-002    -2.8860269533429194E-018
  -6.9399999999999989E-002     2.6111825463420688E-018
  -6.8300000000000000E-002     1.3138799537810608E-017
  -6.7199999999999996E-002     1.7561514243088708E-017
  -6.6099999999999992E-002    -2.6195784295594821E-018
  -6.5000000000000002E-002    -5.1386573925439765E-017
  -6.3899999999999985E-002    -8.8525266202119047E-017
  -6.2799999999999995E-002    -3.2842743000274934E-017
  -6.1699999999999991E-002     1.6001107500678875E-016
  -6.0599999999999994E-002     3.7216949518327209E-016
  -5.9499999999999990E-002     2.9264848037804188E-016
  -5.8399999999999994E-002    -3.4596128994359918E-016
  -5.7299999999999990E-002    -1.2971354557551580E-015
  -5.6199999999999986E-002    -1.5352642634364829E-015
  -5.5099999999999996E-002     1.5855217986915143E-016
  -5.3999999999999992E-002     3.6446853632463201E-015
  -5.2899999999999989E-002     6.0819235661157406E-015
  -5.1799999999999985E-002     2.9403128813421412E-015
  -5.0699999999999995E-002    -7.5585950665797361E-015
  -4.9599999999999991E-002    -1.9175701066083406E-014
  -4.8499999999999988E-002    -1.7877172452888251E-014
  -4.7399999999999998E-002     7.4302323056210304E-015
  -4.6299999999999994E-002     4.7830480082253907E-014
  -4.5199999999999990E-002     6.7228490027541887E-014
  -4.4099999999999986E-002     2.2977974368067547E-014
  -4.2999999999999997E-002    -8.7513336692341542E-014
  -4.1899999999999993E-002    -1.8985565886347339E-013
  -4.0799999999999989E-002    -1.5812673978370106E-013
  -3.9699999999999985E-002     7.8479730309874429E-014
  -3.8599999999999995E-002     4.1135370392082760E-013
  -3.7499999999999992E-002     5.4199738230495398E-013
  -3.6399999999999988E-002     1.7962383967382034E-013
  -3.5299999999999984E-002    -6.3117116784819349E-013
  -3.4199999999999994E-002    -1.3306105349497610E-012
  -3.3099999999999991E-002    -1.1077978812057410E-012
  -3.1999999999999987E-002     3.9564250313428584E-013
  -3.0899999999999997E-002     2.4281778844559287E-012
  -2.9799999999999993E-002     3.2449657110661390E-012
  -2.8699999999999989E-002     1.3254957027808434E-012
  -2.7599999999999986E-002    -2.9558603828472307E-012
  -2.6499999999999996E-002    -6.6802370926599686E-012
  -2.5399999999999992E-002    -5.9554305931186491E-012
  -2.4299999999999988E-002     7.4622339557572914E-013
  -2.3199999999999985E-002     9.9486235222157049E-012
  -2.2099999999999995E-002     1.4176604334892318E-011
  -2.0999999999999991E-002     7.2938044493042753E-012
  -1.9899999999999987E-002    -9.0962480603362650E-012
  -1.8799999999999983E-002    -2.3909051821702221E-011
  -1.7699999999999994E-002    -2.3095607024070652E-011
  -1.6599999999999990E-002    -1.5174961981445634E-012
  -1.5499999999999986E-002     2.8976973598382472E-011
  -1.4399999999999996E-002     4.4283889055751757E-011
  -1.3299999999999992E-002     2.5779923334967592E-011
  -1.2199999999999989E-002    -2.0898572802852122E-011
  -1.1099999999999985E-002    -6.3081116719043706E-011
  -9.9999999999999950E-003    -6.2108429510487895E-011
  -8.8999999999999913E-003    -6.4318238235383518E-012
  -7.7999999999999875E-003     6.9860478513206203E-011
  -6.6999999999999837E-003     1.0446863513147164E-010
  -5.5999999999999939E-003     5.5014534594555187E-011
  -4.4999999999999901E-003    -5.7039054035534775E-011
  -3.3999999999999864E-003    -1.4781700863331082E-010
  -2.2999999999999826E-003    -1.2928652592947287E-010
  -1.1999999999999927E-003     1.2549711270182229E-011
  -9.9999999999988987E-005     1.8451547234565879E-010
   1.0000000000000148E-003     2.4011817534308477E-010
   2.1000000000000185E-003     9.5542643241408598E-011
   3.2000000000000084E-003    -1.7889677239590895E-010
   4.3000000000000121E-003    -3.7896855098473736E-010
   5.4000000000000159E-003    -3.0913713255920072E-010
   6.5000000000000058E-003     4.6030734779378690E-011
   7.6000000000000234E-003     4.6277059961852274E-010
   8.7000000000000133E-003     6.0875371410418211E-010
   9.8000000000000032E-003     2.9621594066497892E-010
   1.0900000000000021E-002    -3.2867536470249092E-010
   1.2000000000000011E-002    -8.3284251717330449E-010
   1.3100000000000001E-002    -7.9018225296323408E-010
   1.4200000000000018E-002    -1.2901929524744560E-010
   1.5300000000000008E-002     7.4265382732363605E-010
   1.6400000000000026E-002     1.1789067499989869E-009
   1.7500000000000016E-002     7.7383199847957940E-010
   1.8600000000000005E-002    -2.7285326775761121E-010
   1.9700000000000023E-002    -1.2205660926412065E-009
   2.0800000000000013E-002    -1.3030172496542036E-009
   2.1900000000000003E-002    -3.4741526322434879E-010
   2.3000000000000020E-002     9.9313335333306441E-010
   2.4100000000000010E-002     1.6497687660432803E-009
   2.5200000000000000E-002     9.5985663861597459E-010
   2.6300000000000018E-002    -7.0971339916070519E-010
   2.7400000000000008E-002    -2.0895076779936517E-009
   2.8500000000000025E-002    -1.9112063043280614E-009
   2.9600000000000015E-002     2.4325541581049492E-011
   3.0700000000000005E-002     2.4710280488449143E-009
   3.1800000000000023E-002     3.4896519007787674E-009
   3.2900000000000013E-002     1.9104593462770936E-009
   3.4000000000000002E-002    -1.5673705666685578E-009
   3.5100000000000020E-002    -4.5992414321460728E-009
   3.6200000000000010E-002    -4.7806261171956521E-009
   3.7300000000000028E-002    -1.5312362489083853E-009
   3.8400000000000017E-002     3.1930798005674887E-009
   3.9500000000000007E-002     6.1000084983220404E-009
   4.0600000000000025E-002     4.9661093015629376E-009
   4.1700000000000015E-002     4.6502957040672754E-010
   4.2800000000000005E-002    -4.1298160446956445E-009
   4.3900000000000022E-002    -5.3727111648527170E-009
   4.5000000000000012E-002    -2.4459021474854126E-009
   4.6100000000000002E-002     1.9668355832891393E-009
   4.7200000000000020E-002     3.7195631019670827E-009
   4.8300000000000010E-002     7.9818196496717064E-010
   4.9400000000000027E-002    -4.4431636148090092E-009
   5.0500000000000017E-002    -6.6301111267819124E-009
   5.1600000000000007E-002    -1.8046946159699928E-009
   5.2700000000000025E-002     8.3483673307682693E-009
   5.3800000000000014E-002     1.6299926741680792E-008
   5.4900000000000004E-002     1.3668756793094872E-008
   5.6000000000000022E-002    -1.6164172222943307E-009
   5.7100000000000012E-002    -2.1553667295393097E-008
   5.8200000000000002E-002    -3.1725551963290854E-008
   5.9300000000000019E-002    -2.1209119793752507E-008
   6.0400000000000009E-002     7.7792705610590929E-009
   6.1500000000000027E-002     3.8261163126662723E-008
   6.2600000000000017E-002     4.7992841700761346E-008
   6.3700000000000007E-002     2.5153568117275427E-008
   6.4800000000000024E-002    -2.0482277207634070E-008
   6.5900000000000014E-002    -6.0267652202128374E-008
   6.7000000000000004E-002    -6.3990185594775539E-008
   6.8100000000000022E-002    -2.1696880736499224E-008
   6.9200000000000012E-002     4.5159978867559403E-008
   7.0300000000000029E-002     9.3248011978630529E-008
   7.1400000000000019E-002     8.4228432228883321E-008
   7.2500000000000009E-002     1.2707136676226582E-008
   7.3600000000000027E-002    -8.4218555684856256E-008
   7.4700000000000016E-002    -1.4519157787162840E-007
   7.5800000000000006E-002    -1.2202779942072084E-007
   7.6900000000000024E-002    -1.3609231075406569E-008
   7.8000000000000014E-002     1.2668994031628245E-007
   7.9100000000000004E-002     2.1773011837922240E-007
   8.0200000000000021E-002     1.9751746549445670E-007
   8.1300000000000011E-002     6.2296479086398904E-008
   8.2400000000000029E-002    -1.2685424621849961E-007
   8.3500000000000019E-002    -2.7530160195965436E-007
   8.4600000000000009E-002    -3.0612997647949669E-007
   8.5700000000000026E-002    -2.0118605448260496E-007
   8.6800000000000016E-002    -8.1921740502366447E-009
   8.7900000000000006E-002     1.8868871620725258E-007
   8.9000000000000024E-002     3.1536143296762020E-007
   9.0100000000000013E-002     3.4268265380887897E-007
   9.1200000000000003E-002     2.8994276135563268E-007
   9.2300000000000021E-002     1.9791896477272530E-007
   9.3400000000000011E-002     9.1752724529214902E-008
   9.4500000000000028E-002    -3.9985270205988854E-008
   9.5600000000000018E-002    -2.3393877768285165E-007
   9.6700000000000008E-002    -5.1242182053101715E-007
   9.7800000000000026E-002    -8.3837556985599804E-007
   9.8900000000000016E-002    -1.0943501820293022E-006
  0.10000000000000001         -1.1062231806135969E-006
  0.10110000000000002         -7.1140243562695105E-007
  0.10220000000000001          1.5285664289876877E-007
  0.10330000000000003          1.3814961903335643E-006
  0.10440000000000002          2.6932639229926281E-006
  0.10550000000000001          3.6991257275076350E-006
  0.10660000000000003          4.0283566704601981E-006
  0.10770000000000002          3.4585768844408449E-006
  0.10880000000000001          1.9834662907669554E-006
  0.10990000000000003         -2.2512517716677394E-007
  0.11100000000000002         -2.9503801215469139E-006
  0.11210000000000001         -6.0908732848474756E-006
  0.11320000000000002         -9.7541706054471433E-006
  0.11430000000000001         -1.4220428965927567E-005
  0.11540000000000003         -1.9791745216934942E-005
  0.11650000000000002         -2.6626343242242001E-005
  0.11760000000000001         -3.4686818253248930E-005
  0.11870000000000003         -4.3876014387933537E-005
  0.11980000000000002         -5.4313040891429409E-005
  0.12090000000000001         -6.6587650508154184E-005
  0.12200000000000003         -8.1807418609969318E-005
  0.12310000000000001         -1.0135725460713729E-004
  0.12420000000000003         -1.2647750554606318E-004
  0.12530000000000002         -1.5792291378602386E-004
  0.12640000000000001         -1.9597380014602095E-004
  0.12750000000000003         -2.4089538783300668E-004
  0.12860000000000002         -2.9366559465415776E-004
  0.12970000000000001         -3.5658039269037545E-004
  0.13080000000000003         -4.3335126247256994E-004
  0.13190000000000002         -5.2856525871902704E-004
  0.13300000000000001         -6.4675568137317896E-004
  0.13410000000000000         -7.9160492168739438E-004
  0.13520000000000004         -9.6579518867656589E-004
  0.13630000000000003         -1.1716942535713315E-003
  0.13740000000000002         -1.4125932939350605E-003
  0.13850000000000001         -1.6938832122832537E-003
  0.13960000000000000         -2.0235616248100996E-003
  0.14070000000000005         -2.4118274450302124E-003
  0.14180000000000004         -2.8700348921120167E-003
  0.14290000000000003         -3.4096369054168463E-003
  0.14400000000000002         -4.0417336858808994E-003
  0.14510000000000001         -4.7774696722626686E-003
  0.14620000000000000         -5.6290058419108391E-003
  0.14730000000000004         -6.6104731522500515E-003
  0.14840000000000003         -7.7383457683026791E-003
  0.14950000000000002         -9.0310694649815559E-003
  0.15060000000000001         -1.0508271865546703E-002
  0.15170000000000000         -1.2190114706754684E-002
  0.15280000000000005         -1.4097223058342934E-002
  0.15390000000000004         -1.6251197084784508E-002
  0.15500000000000003         -1.8675211817026138E-002
  0.15610000000000002         -2.1394150331616402E-002
  0.15720000000000001         -2.4433948099613190E-002
  0.15830000000000000         -2.7820277959108353E-002
  0.15940000000000004         -3.1577240675687790E-002
  0.16050000000000003         -3.5726558417081833E-002
  0.16160000000000002         -4.0287502110004425E-002
  0.16270000000000001         -4.5277379453182220E-002
  0.16380000000000000         -5.0711814314126968E-002
  0.16490000000000005         -5.6604258716106415E-002
  0.16600000000000004         -6.2964551150798798E-002
  0.16710000000000003         -6.9796867668628693E-002
  0.16820000000000002         -7.7097751200199127E-002
  0.16930000000000001         -8.4855057299137115E-002
  0.17040000000000000         -9.3047857284545898E-002
  0.17150000000000004        -0.10164684802293777
  0.17260000000000003        -0.11061450839042664
  0.17370000000000002        -0.11990430951118469
  0.17480000000000001        -0.12945896387100220
  0.17590000000000000        -0.13920770585536957
  0.17700000000000005        -0.14906382560729980
  0.17810000000000004        -0.15892422199249268
  0.17920000000000003        -0.16867044568061829
  0.18030000000000002        -0.17817096412181854
  0.18140000000000001        -0.18728370964527130
  0.18250000000000000        -0.19585713744163513
  0.18360000000000004        -0.20373128354549408
  0.18470000000000003        -0.21073698997497559
  0.18580000000000002        -0.21669462323188782
  0.18690000000000001        -0.22141461074352264
  0.18800000000000000        -0.22469951212406158
  0.18910000000000005        -0.22634838521480560
  0.19020000000000004        -0.22616179287433624
  0.19130000000000003        -0.22394743561744690
  0.19240000000000002        -0.21952402591705322
  0.19350000000000001        -0.21272477507591248
  0.19460000000000005        -0.20340003073215485
  0.19570000000000004        -0.19141945242881775
  0.19680000000000003        -0.17667494714260101
  0.19790000000000002        -0.15908548235893250
  0.19900000000000001        -0.13860204815864563
  0.20010000000000000        -0.11521077156066895
  0.20120000000000005         -8.8936612010002136E-002
  0.20230000000000004         -5.9846047312021255E-002
  0.20340000000000003         -2.8049414977431297E-002
  0.20450000000000002          6.2970649451017380E-003
  0.20560000000000000          4.2991273105144501E-002
  0.20670000000000005          8.1784725189208984E-002
  0.20780000000000004         0.12238128483295441
  0.20890000000000003         0.16443966329097748
