 -0.12000000000000000          0.0000000000000000
 -0.11889999999999999          0.0000000000000000
 -0.11780000000000000          0.0000000000000000
 -0.11670000000000000         -5.7401437312364578E-002
 -0.11559999999999999        -0.15647105872631073
 -0.11449999999999999          2.7559187263250351E-002
 -0.11340000000000000         0.91014438867568970
 -0.11230000000000000          2.1506564617156982
 -0.11119999999999999          2.1453495025634766
 -0.11009999999999999        -0.85900318622589111
 -0.10900000000000000         -6.3606228828430176
 -0.10790000000000000         -10.390030860900879
 -0.10679999999999999         -7.8118910789489746
 -0.10569999999999999          2.8420815467834473
 -0.10460000000000000          16.399637222290039
 -0.10349999999999999          23.664447784423828
 -0.10239999999999999          18.290475845336914
 -0.10130000000000000          1.9550187587738037
 -0.10020000000000000         -17.040405273437500
  -9.9099999999999994E-002    -30.254388809204102
  -9.7999999999999990E-002    -34.107112884521484
  -9.6899999999999986E-002    -28.855617523193359
  -9.5799999999999996E-002    -14.297122955322266
  -9.4699999999999993E-002     10.783915519714355
  -9.3599999999999989E-002     42.898277282714844
  -9.2499999999999999E-002     68.407859802246094
  -9.1399999999999995E-002     67.900482177734375
  -9.0299999999999991E-002     31.384044647216797
  -8.9200000000000002E-002    -27.611919403076172
  -8.8099999999999984E-002    -74.336128234863281
  -8.6999999999999994E-002    -74.636146545410156
  -8.5899999999999990E-002    -21.308267593383789
  -8.4799999999999986E-002     56.783515930175781
  -8.3699999999999997E-002     112.15527343750000
  -8.2599999999999993E-002     110.60377502441406
  -8.1499999999999989E-002     53.905662536621094
  -8.0399999999999999E-002    -22.291563034057617
  -7.9299999999999995E-002    -71.654441833496094
  -7.8199999999999992E-002    -64.163055419921875
  -7.7100000000000002E-002    -1.1643341779708862
  -7.5999999999999984E-002     86.295883178710938
  -7.4899999999999994E-002     151.67155456542969
  -7.3799999999999991E-002     153.12127685546875
  -7.2699999999999987E-002     72.992286682128906
  -7.1599999999999997E-002    -72.293708801269531
  -7.0499999999999993E-002    -240.81228637695312
  -6.9399999999999989E-002    -391.93023681640625
  -6.8300000000000000E-002    -515.47918701171875
  -6.7199999999999996E-002    -640.02105712890625
  -6.6099999999999992E-002    -810.21441650390625
  -6.5000000000000002E-002    -1050.4838867187500
  -6.3899999999999985E-002    -1348.0617675781250
  -6.2799999999999995E-002    -1674.3229980468750
  -6.1699999999999991E-002    -2027.6385498046875
  -6.0599999999999994E-002    -2457.5092773437500
  -5.9499999999999990E-002    -3044.3322753906250
  -5.8399999999999994E-002    -3850.7917480468750
  -5.7299999999999990E-002    -4890.6806640625000
  -5.6199999999999986E-002    -6146.2504882812500
  -5.5099999999999996E-002    -7620.0917968750000
  -5.3999999999999992E-002    -9373.1679687500000
  -5.2899999999999989E-002    -11514.659179687500
  -5.1799999999999985E-002    -14155.925781250000
  -5.0699999999999995E-002    -17376.216796875000
  -4.9599999999999991E-002    -21232.826171875000
  -4.8499999999999988E-002    -25803.564453125000
  -4.7399999999999998E-002    -31217.501953125000
  -4.6299999999999994E-002    -37646.437500000000
  -4.5199999999999990E-002    -45273.582031250000
  -4.4099999999999986E-002    -54280.628906250000
  -4.2999999999999997E-002    -64868.074218750000
  -4.1899999999999993E-002    -77285.476562500000
  -4.0799999999999989E-002    -91827.242187500000
  -3.9699999999999985E-002    -108792.22656250000
  -3.8599999999999995E-002    -128451.22656250000
  -3.7499999999999992E-002    -151064.18750000000
  -3.6399999999999988E-002    -176948.73437500000
  -3.5299999999999984E-002    -206539.54687500000
  -3.4199999999999994E-002    -240372.31250000000
  -3.3099999999999991E-002    -279000.93750000000
  -3.1999999999999987E-002    -322914.53125000000
  -3.0899999999999997E-002    -372523.87500000000
  -2.9799999999999993E-002    -428234.81250000000
  -2.8699999999999989E-002    -490526.65625000000
  -2.7599999999999986E-002    -559970.06250000000
  -2.6499999999999996E-002    -637178.00000000000
  -2.5399999999999992E-002    -722717.62500000000
  -2.4299999999999988E-002    -817070.12500000000
  -2.3199999999999985E-002    -920641.50000000000
  -2.2099999999999995E-002    -1033779.1875000000
  -2.0999999999999991E-002    -1156782.5000000000
  -1.9899999999999987E-002    -1289881.5000000000
  -1.8799999999999983E-002    -1433222.1250000000
  -1.7699999999999994E-002    -1586865.5000000000
  -1.6599999999999990E-002    -1750771.2500000000
  -1.5499999999999986E-002    -1924752.7500000000
  -1.4399999999999996E-002    -2108330.0000000000
  -1.3299999999999992E-002    -2300713.0000000000
  -1.2199999999999989E-002    -2500847.0000000000
  -1.1099999999999985E-002    -2707521.7500000000
  -9.9999999999999950E-003    -2919511.0000000000
  -8.8999999999999913E-003    -3135405.5000000000
  -7.7999999999999875E-003    -3353499.5000000000
  -6.6999999999999837E-003    -3571555.2500000000
  -5.5999999999999939E-003    -3786865.2500000000
  -4.4999999999999901E-003    -3996418.0000000000
  -3.3999999999999864E-003    -4197144.5000000000
  -2.2999999999999826E-003    -4385917.5000000000
  -1.1999999999999927E-003    -4559437.0000000000
  -9.9999999999988987E-005    -4714104.0000000000
   1.0000000000000148E-003    -4845897.0000000000
   2.1000000000000185E-003    -4950686.0000000000
   3.2000000000000084E-003    -5024321.0000000000
   4.3000000000000121E-003    -5062806.5000000000
   5.4000000000000159E-003    -5062189.5000000000
   6.5000000000000058E-003    -5018564.5000000000
   7.6000000000000234E-003    -4928052.0000000000
   8.7000000000000133E-003    -4787151.5000000000
   9.8000000000000032E-003    -4592696.0000000000
   1.0900000000000021E-002    -4342131.5000000000
   1.2000000000000011E-002    -4033359.5000000000
   1.3100000000000001E-002    -3664823.0000000000
   1.4200000000000018E-002    -3235571.7500000000
   1.5300000000000008E-002    -2745541.5000000000
   1.6400000000000026E-002    -2195464.2500000000
   1.7500000000000016E-002    -1586948.1250000000
   1.8600000000000005E-002    -922391.37500000000
   1.9700000000000023E-002    -205015.01562500000
   2.0800000000000013E-002     561007.81250000000
   2.1900000000000003E-002     1370369.8750000000
   2.3000000000000020E-002     2216663.2500000000
   2.4100000000000010E-002     3092684.2500000000
   2.5200000000000000E-002     3990666.5000000000
   2.6300000000000018E-002     4902337.5000000000
   2.7400000000000008E-002     5818646.5000000000
   2.8500000000000025E-002     6729775.5000000000
   2.9600000000000015E-002     7625206.0000000000
   3.0700000000000005E-002     8494300.0000000000
   3.1800000000000023E-002     9326615.0000000000
   3.2900000000000013E-002     10112047.000000000
   3.4000000000000002E-002     10840636.000000000
   3.5100000000000020E-002     11502538.000000000
   3.6200000000000010E-002     12088138.000000000
   3.7300000000000028E-002     12588549.000000000
   3.8400000000000017E-002     12996041.000000000
   3.9500000000000007E-002     13304215.000000000
   4.0600000000000025E-002     13507875.000000000
   4.1700000000000015E-002     13602840.000000000
   4.2800000000000005E-002     13585983.000000000
   4.3900000000000022E-002     13455619.000000000
   4.5000000000000012E-002     13211669.000000000
   4.6100000000000002E-002     12855826.000000000
   4.7200000000000020E-002     12391390.000000000
   4.8300000000000010E-002     11822957.000000000
   4.9400000000000027E-002     11156235.000000000
   5.0500000000000017E-002     10398235.000000000
   5.1600000000000007E-002     9557149.0000000000
   5.2700000000000025E-002     8642453.0000000000
   5.3800000000000014E-002     7664571.0000000000
   5.4900000000000004E-002     6634614.5000000000
   5.6000000000000022E-002     5564344.0000000000
   5.7100000000000012E-002     4465727.5000000000
   5.8200000000000002E-002     3351044.0000000000
   5.9300000000000019E-002     2232472.2500000000
   6.0400000000000009E-002     1121922.7500000000
   6.1500000000000027E-002     31014.134765625000
   6.2600000000000017E-002    -1029127.6250000000
   6.3700000000000007E-002    -2047976.0000000000
   6.4800000000000024E-002    -3015763.0000000000
   6.5900000000000014E-002    -3923905.2500000000
   6.7000000000000004E-002    -4765095.0000000000
   6.8100000000000022E-002    -5533257.5000000000
   6.9200000000000012E-002    -6223249.5000000000
   7.0300000000000029E-002    -6830878.5000000000
   7.1400000000000019E-002    -7353163.0000000000
   7.2500000000000009E-002    -7788451.5000000000
   7.3600000000000027E-002    -8136639.5000000000
   7.4700000000000016E-002    -8398964.0000000000
   7.5800000000000006E-002    -8577543.0000000000
   7.6900000000000024E-002    -8675179.0000000000
   7.8000000000000014E-002    -8695341.0000000000
   7.9100000000000004E-002    -8642414.0000000000
   8.0200000000000021E-002    -8521751.0000000000
   8.1300000000000011E-002    -8339348.5000000000
   8.2400000000000029E-002    -8101589.5000000000
   8.3500000000000019E-002    -7814831.5000000000
   8.4600000000000009E-002    -7485530.5000000000
   8.5700000000000026E-002    -7120173.0000000000
   8.6800000000000016E-002    -6725419.0000000000
   8.7900000000000006E-002    -6307834.0000000000
   8.9000000000000024E-002    -5873802.5000000000
   9.0100000000000013E-002    -5429331.5000000000
   9.1200000000000003E-002    -4979942.0000000000
   9.2300000000000021E-002    -4530767.5000000000
   9.3400000000000011E-002    -4086432.5000000000
   9.4500000000000028E-002    -3651098.2500000000
   9.5600000000000018E-002    -3228394.0000000000
   9.6700000000000008E-002    -2821481.5000000000
   9.7800000000000026E-002    -2433079.7500000000
   9.8900000000000016E-002    -2065413.0000000000
  0.10000000000000001         -1720143.7500000000
  0.10110000000000002         -1398315.3750000000
  0.10220000000000001         -1100478.6250000000
  0.10330000000000003         -826947.93750000000
  0.10440000000000002         -577963.43750000000
  0.10550000000000001         -353584.40625000000
  0.10660000000000003         -153403.28125000000
  0.10770000000000002          23569.722656250000
  0.10880000000000001          178729.50000000000
  0.10990000000000003          313466.28125000000
  0.11100000000000002          428882.43750000000
  0.11210000000000001          525922.18750000000
  0.11320000000000002          605694.12500000000
  0.11430000000000001          669722.68750000000
  0.11540000000000003          719813.43750000000
  0.11650000000000002          757640.25000000000
  0.11760000000000001          784452.43750000000
  0.11870000000000003          801169.68750000000
  0.11980000000000002          808750.06250000000
  0.12090000000000001          808460.56250000000
  0.12200000000000003          801716.43750000000
  0.12310000000000001          789799.56250000000
  0.12420000000000003          773574.06250000000
  0.12530000000000002          753583.37500000000
  0.12640000000000001          730409.12500000000
  0.12750000000000003          704828.12500000000
  0.12860000000000002          677692.12500000000
  0.12970000000000001          649587.37500000000
  0.13080000000000003          620801.18750000000
  0.13190000000000002          591484.25000000000
  0.13300000000000001          561962.81250000000
  0.13410000000000000          532745.00000000000
  0.13520000000000004          504276.06250000000
  0.13630000000000003          476702.25000000000
  0.13740000000000002          449873.40625000000
  0.13850000000000001          423673.68750000000
  0.13960000000000000          398326.37500000000
  0.14070000000000005          374273.59375000000
  0.14180000000000004          351799.50000000000
  0.14290000000000003          330734.28125000000
  0.14400000000000002          310605.68750000000
  0.14510000000000001          291102.87500000000
  0.14620000000000000          272407.75000000000
  0.14730000000000004          255017.53125000000
  0.14840000000000003          239232.87500000000
  0.14950000000000002          224816.81250000000
  0.15060000000000001          211183.65625000000
  0.15170000000000000          197947.60937500000
  0.15280000000000005          185251.18750000000
  0.15390000000000004          173594.93750000000
  0.15500000000000003          163267.14062500000
  0.15610000000000002          154038.35937500000
  0.15720000000000001          145355.39062500000
  0.15830000000000000          136878.98437500000
  0.15940000000000004          128758.87500000000
  0.16050000000000003          121418.78125000000
  0.16160000000000002          115043.78125000000
  0.16270000000000001          109360.29687500000
  0.16380000000000000          103900.95312500000
  0.16490000000000005          98488.023437500000
  0.16600000000000004          93385.039062500000
  0.16710000000000003          88975.953125000000
  0.16820000000000002          85299.148437500000
  0.16930000000000001          81962.789062500000
  0.17040000000000000          78540.375000000000
  0.17150000000000004          75027.617187500000
  0.17260000000000003          71833.726562500000
  0.17370000000000002          69337.195312500000
  0.17480000000000001          67441.414062500000
  0.17590000000000000          65631.437500000000
  0.17700000000000005          63495.890625000000
  0.17810000000000004          61165.910156250000
  0.17920000000000003          59205.371093750000
  0.18030000000000002          58046.945312500000
  0.18140000000000001          57547.945312500000
  0.18250000000000000          57159.417968750000
  0.18360000000000004          56521.101562500000
  0.18470000000000003          55884.082031250000
  0.18580000000000002          55895.750000000000
  0.18690000000000001          56974.628906250000
  0.18800000000000000          58922.113281250000
  0.18910000000000005          61188.308593750000
  0.19020000000000004          63524.203125000000
  0.19130000000000003          66348.031250000000
  0.19240000000000002          70422.710937500000
  0.19350000000000001          76191.210937500000
  0.19460000000000005          83445.742187500000
  0.19570000000000004          91689.664062500000
  0.19680000000000003          100808.47656250000
  0.19790000000000002          111353.58593750000
  0.19900000000000001          124133.49218750000
  0.20010000000000000          139541.82812500000
  0.20120000000000005          157338.07812500000
  0.20230000000000004          177100.60937500000
  0.20340000000000003          198881.20312500000
  0.20450000000000002          223374.78125000000
  0.20560000000000000          251407.70312500000
  0.20670000000000005          283292.68750000000
  0.20780000000000004          318727.12500000000
  0.20890000000000003          357334.37500000000
