 -0.12000000000000000          0.0000000000000000
 -0.11889999999999999          0.0000000000000000
 -0.11780000000000000          0.0000000000000000
 -0.11670000000000000          0.0000000000000000
 -0.11559999999999999          0.0000000000000000
 -0.11449999999999999          0.0000000000000000
 -0.11340000000000000          0.0000000000000000
 -0.11230000000000000          1.9851718193222371E-019
 -0.11119999999999999         -2.6800664771415168E-020
 -0.11009999999999999         -6.7430262202511032E-018
 -0.10900000000000000         -2.6058794914349914E-017
 -0.10790000000000000         -1.4966443520717947E-017
 -0.10679999999999999          1.6841295362928177E-016
 -0.10569999999999999          5.6684567148912891E-016
 -0.10460000000000000          5.0101051211982124E-016
 -0.10349999999999999         -1.6920245451057178E-015
 -0.10239999999999999         -6.5785034077071522E-015
 -0.10130000000000000         -8.7684190014066313E-015
 -0.10020000000000000          4.8206343329301477E-015
  -9.9099999999999994E-002     4.2386982189142677E-014
  -9.7999999999999990E-002     7.9162377878989193E-014
  -9.6899999999999986E-002     4.3023544389663229E-014
  -9.5799999999999996E-002    -1.3500057191931369E-013
  -9.4699999999999993E-002    -3.9531634801574789E-013
  -9.3599999999999989E-002    -4.5676515954967689E-013
  -9.2499999999999999E-002     4.8225610787752671E-014
  -9.1399999999999995E-002     1.1372337533482879E-012
  -9.0299999999999991E-002     2.0445197184554287E-012
  -8.9200000000000002E-002     1.4175652839065744E-012
  -8.8099999999999984E-002    -1.4972915485592098E-012
  -8.6999999999999994E-002    -5.3474308314704899E-012
  -8.5899999999999990E-002    -6.5302450946713719E-012
  -8.4799999999999986E-002    -1.7096144378642153E-012
  -8.3699999999999997E-002     8.0995973816833100E-012
  -8.2599999999999993E-002     1.5730066554864308E-011
  -8.1499999999999989E-002     1.2043067064426705E-011
  -8.0399999999999999E-002    -5.0440654257577489E-012
  -7.9299999999999995E-002    -2.4333481410399038E-011
  -7.8199999999999992E-002    -2.6789369333979351E-011
  -7.7100000000000002E-002    -2.8186992670486966E-012
  -7.5999999999999984E-002     3.2212878198212280E-011
  -7.4899999999999994E-002     4.3061394727761382E-011
  -7.3799999999999991E-002     5.0867504652885032E-012
  -7.2699999999999987E-002    -6.1833788089771247E-011
  -7.1599999999999997E-002    -9.2813590146789693E-011
  -7.0499999999999993E-002    -2.7960557480444237E-011
  -6.9399999999999989E-002     1.1823825252221809E-010
  -6.8300000000000000E-002     2.3475571486741842E-010
  -6.7199999999999996E-002     1.8388995881579717E-010
  -6.6099999999999992E-002    -7.0954873920836548E-011
  -6.5000000000000002E-002    -3.8734754292946150E-010
  -6.3899999999999985E-002    -5.1203796758159115E-010
  -6.2799999999999995E-002    -2.7728125351345057E-010
  -6.1699999999999991E-002     2.2523030662746635E-010
  -6.0599999999999994E-002     6.6402505716212090E-010
  -5.9499999999999990E-002     7.0841305044311298E-010
  -5.8399999999999994E-002     3.1041649806162752E-010
  -5.7299999999999990E-002    -2.2884286132729414E-010
  -5.6199999999999986E-002    -5.0539494811374652E-010
  -5.5099999999999996E-002    -3.8000658175718627E-010
  -5.3999999999999992E-002    -1.2248924097235658E-010
  -5.2899999999999989E-002    -1.5238219019941823E-010
  -5.1799999999999985E-002    -5.7404214715006674E-010
  -5.0699999999999995E-002    -9.5406338385117806E-010
  -4.9599999999999991E-002    -6.3127708616050882E-010
  -4.8499999999999988E-002     6.3395044769265496E-010
  -4.7399999999999998E-002     2.2472830263353671E-009
  -4.6299999999999994E-002     3.0626954306001153E-009
  -4.5199999999999990E-002     2.2313491054859469E-009
  -4.4099999999999986E-002    -6.2324090333021331E-011
  -4.2999999999999997E-002    -2.6350879256398230E-009
  -4.1899999999999993E-002    -4.1289944796574218E-009
  -4.0799999999999989E-002    -3.9414111974167554E-009
  -3.9699999999999985E-002    -2.4769810647029544E-009
  -3.8599999999999995E-002    -5.6951227067614241E-010
  -3.7499999999999992E-002     1.2964596063369527E-009
  -3.6399999999999988E-002     3.1704430192291966E-009
  -3.5299999999999984E-002     5.0756798763984534E-009
  -3.4199999999999994E-002     6.3765646096669570E-009
  -3.3099999999999991E-002     5.8958846693712985E-009
  -3.1999999999999987E-002     2.8639299820554243E-009
  -3.0899999999999997E-002    -2.1401040939394989E-009
  -2.9799999999999993E-002    -7.2312347221270556E-009
  -2.8699999999999989E-002    -1.0349282320021302E-008
  -2.7599999999999986E-002    -1.0516912674063406E-008
  -2.6499999999999996E-002    -8.1096267479097150E-009
  -2.5399999999999992E-002    -4.0051744143454471E-009
  -2.4299999999999988E-002     1.3605054860477139E-009
  -2.3199999999999985E-002     7.9037283384764123E-009
  -2.2099999999999995E-002     1.4806213144424873E-008
  -2.0999999999999991E-002     1.9735072243065588E-008
  -1.9899999999999987E-002     1.9631309911005701E-008
  -1.8799999999999983E-002     1.2818158978689098E-008
  -1.7699999999999994E-002     6.3380012349512072E-010
  -1.6599999999999990E-002    -1.3113957031407608E-008
  -1.5499999999999986E-002    -2.4689915889553049E-008
  -1.4399999999999996E-002    -3.2843551878158905E-008
  -1.3299999999999992E-002    -3.8956983416937874E-008
  -1.2199999999999989E-002    -4.4926032671810390E-008
  -1.1099999999999985E-002    -5.1038988146956399E-008
  -9.9999999999999950E-003    -5.6192231312479635E-008
  -8.8999999999999913E-003    -6.0406783575217560E-008
  -7.7999999999999875E-003    -6.7062813968732371E-008
  -6.6999999999999837E-003    -8.2208472917955078E-008
  -5.5999999999999939E-003    -1.1102638097781892E-007
  -4.4999999999999901E-003    -1.5448598844614025E-007
  -3.3999999999999864E-003    -2.0935556221957086E-007
  -2.2999999999999826E-003    -2.7172481509296631E-007
  -1.1999999999999927E-003    -3.4084979461113107E-007
  -9.9999999999988987E-005    -4.1982715970334539E-007
   1.0000000000000148E-003    -5.1277459078846732E-007
   2.1000000000000185E-003    -6.2174257209335337E-007
   3.2000000000000084E-003    -7.4688250606413931E-007
   4.3000000000000121E-003    -8.9002526237891288E-007
   5.4000000000000159E-003    -1.0581363767414587E-006
   6.5000000000000058E-003    -1.2629558341359370E-006
   7.6000000000000234E-003    -1.5168398022069596E-006
   8.7000000000000133E-003    -1.8286958720636903E-006
   9.8000000000000032E-003    -2.2039127998141339E-006
   1.0900000000000021E-002    -2.6481795885047177E-006
   1.2000000000000011E-002    -3.1711097108200192E-006
   1.3100000000000001E-002    -3.7858749237784650E-006
   1.4200000000000018E-002    -4.5053934627503622E-006
   1.5300000000000008E-002    -5.3395810937217902E-006
   1.6400000000000026E-002    -6.2973645071906503E-006
   1.7500000000000016E-002    -7.3921532930398826E-006
   1.8600000000000005E-002    -8.6454019765369594E-006
   1.9700000000000023E-002    -1.0084311725222506E-005
   2.0800000000000013E-002    -1.1735466614481993E-005
   2.1900000000000003E-002    -1.3620488061860669E-005
   2.3000000000000020E-002    -1.5757937944727018E-005
   2.4100000000000010E-002    -1.8169102986576036E-005
   2.5200000000000000E-002    -2.0880936062894762E-005
   2.6300000000000018E-002    -2.3921988031361252E-005
   2.7400000000000008E-002    -2.7314574253978208E-005
   2.8500000000000025E-002    -3.1071005651028827E-005
   2.9600000000000015E-002    -3.5198372643208131E-005
   3.0700000000000005E-002    -3.9707516407361254E-005
   3.1800000000000023E-002    -4.4616775994654745E-005
   3.2900000000000013E-002    -4.9945127102546394E-005
   3.4000000000000002E-002    -5.5699310905765742E-005
   3.5100000000000020E-002    -6.1865444877184927E-005
   3.6200000000000010E-002    -6.8411369284149259E-005
   3.7300000000000028E-002    -7.5295276474207640E-005
   3.8400000000000017E-002    -8.2469778135418892E-005
   3.9500000000000007E-002    -8.9874949480872601E-005
   4.0600000000000025E-002    -9.7425538115203381E-005
   4.1700000000000015E-002    -1.0500374628463760E-004
   4.2800000000000005E-002    -1.1246353096794337E-004
   4.3900000000000022E-002    -1.1964052100665867E-004
   4.5000000000000012E-002    -1.2635580787900835E-004
   4.6100000000000002E-002    -1.3240688713267446E-004
   4.7200000000000020E-002    -1.3755251711700112E-004
   4.8300000000000010E-002    -1.4150422066450119E-004
   4.9400000000000027E-002    -1.4393079618457705E-004
   5.0500000000000017E-002    -1.4446878049056977E-004
   5.1600000000000007E-002    -1.4272629050537944E-004
   5.2700000000000025E-002    -1.3827487418893725E-004
   5.3800000000000014E-002    -1.3063756341580302E-004
   5.4900000000000004E-002    -1.1928765161428601E-004
   5.6000000000000022E-002    -1.0366285277996212E-004
   5.7100000000000012E-002    -8.3184415416326374E-005
   5.8200000000000002E-002    -5.7264966017100960E-005
   5.9300000000000019E-002    -2.5301127607235685E-005
   6.0400000000000009E-002     1.3337769814825151E-005
   6.1500000000000027E-002     5.9307716583134606E-005
   6.2600000000000017E-002     1.1326993262628093E-004
   6.3700000000000007E-002     1.7586699686944485E-004
   6.4800000000000024E-002     2.4771015159785748E-004
   6.5900000000000014E-002     3.2938233925960958E-004
   6.7000000000000004E-002     4.2144168401136994E-004
   6.8100000000000022E-002     5.2440812578424811E-004
   6.9200000000000012E-002     6.3873041654005647E-004
   7.0300000000000029E-002     7.6475337846204638E-004
   7.1400000000000019E-002     9.0270413784310222E-004
   7.2500000000000009E-002     1.0526998667046428E-003
   7.3600000000000027E-002     1.2147554662078619E-003
   7.4700000000000016E-002     1.3887730892747641E-003
   7.5800000000000006E-002     1.5745084965601563E-003
   7.6900000000000024E-002     1.7715381691232324E-003
   7.8000000000000014E-002     1.9792467355728149E-003
   7.9100000000000004E-002     2.1968407090753317E-003
   8.0200000000000021E-002     2.4233639705926180E-003
   8.1300000000000011E-002     2.6576921809464693E-003
   8.2400000000000029E-002     2.8985072858631611E-003
   8.3500000000000019E-002     3.1442719046026468E-003
   8.4600000000000009E-002     3.3932323567569256E-003
   8.5700000000000026E-002     3.6434479989111423E-003
   8.6800000000000016E-002     3.8928242865949869E-003
   8.7900000000000006E-002     4.1391141712665558E-003
   8.9000000000000024E-002     4.3798987753689289E-003
   9.0100000000000013E-002     4.6125748194754124E-003
   9.1200000000000003E-002     4.8343748785555363E-003
   9.2300000000000021E-002     5.0424155779182911E-003
   9.3400000000000011E-002     5.2337446250021458E-003
   9.4500000000000028E-002     5.4053501226007938E-003
   9.5600000000000018E-002     5.5541428737342358E-003
   9.6700000000000008E-002     5.6769405491650105E-003
   9.7800000000000026E-002     5.7704946957528591E-003
   9.8900000000000016E-002     5.8315456844866276E-003
  0.10000000000000001          5.8568762615323067E-003
  0.10110000000000002          5.8433194644749165E-003
  0.10220000000000001          5.7877334766089916E-003
  0.10330000000000003          5.6869867257773876E-003
  0.10440000000000002          5.5379751138389111E-003
  0.10550000000000001          5.3376811556518078E-003
  0.10660000000000003          5.0832210108637810E-003
  0.10770000000000002          4.7718458808958530E-003
  0.10880000000000001          4.4009080156683922E-003
  0.10990000000000003          3.9678378961980343E-003
  0.11100000000000002          3.4701658878475428E-003
  0.11210000000000001          2.9055888298898935E-003
  0.11320000000000002          2.2720207925885916E-003
  0.11430000000000001          1.5675992472097278E-003
  0.11540000000000003          7.9065415775403380E-004
  0.11650000000000002         -6.0308844695100561E-005
  0.11760000000000001         -9.8656897898763418E-004
  0.11870000000000003         -1.9890998955816031E-003
  0.11980000000000002         -3.0684855300933123E-003
  0.12090000000000001         -4.2248847894370556E-003
  0.12200000000000003         -5.4580359719693661E-003
  0.12310000000000001         -6.7672445438802242E-003
  0.12420000000000003         -8.1513086333870888E-003
  0.12530000000000002         -9.6084047108888626E-003
  0.12640000000000001         -1.1135972104966640E-002
  0.12750000000000003         -1.2730667367577553E-002
  0.12860000000000002         -1.4388344250619411E-002
  0.12970000000000001         -1.6104031354188919E-002
  0.13080000000000003         -1.7871841788291931E-002
  0.13190000000000002         -1.9684851169586182E-002
  0.13300000000000001         -2.1534996107220650E-002
  0.13410000000000000         -2.3413047194480896E-002
  0.13520000000000004         -2.5308625772595406E-002
  0.13630000000000003         -2.7210237458348274E-002
  0.13740000000000002         -2.9105247929692268E-002
  0.13850000000000001         -3.0979845672845840E-002
  0.13960000000000000         -3.2819036394357681E-002
  0.14070000000000005         -3.4606713801622391E-002
  0.14180000000000004         -3.6325808614492416E-002
  0.14290000000000003         -3.7958446890115738E-002
  0.14400000000000002         -3.9486069232225418E-002
  0.14510000000000001         -4.0889523923397064E-002
  0.14620000000000000         -4.2149242013692856E-002
  0.14730000000000004         -4.3245464563369751E-002
  0.14840000000000003         -4.4158544391393661E-002
  0.14950000000000002         -4.4869240373373032E-002
  0.15060000000000001         -4.5358974486589432E-002
  0.15170000000000000         -4.5610051602125168E-002
  0.15280000000000005         -4.5605946332216263E-002
  0.15390000000000004         -4.5331630855798721E-002
  0.15500000000000003         -4.4773954898118973E-002
  0.15610000000000002         -4.3921947479248047E-002
  0.15720000000000001         -4.2767081409692764E-002
  0.15830000000000000         -4.1303485631942749E-002
  0.15940000000000004         -3.9528135210275650E-002
  0.16050000000000003         -3.7441093474626541E-002
  0.16160000000000002         -3.5045746713876724E-002
  0.16270000000000001         -3.2348956912755966E-002
  0.16380000000000000         -2.9361078515648842E-002
  0.16490000000000005         -2.6095956563949585E-002
  0.16600000000000004         -2.2570842877030373E-002
  0.16710000000000003         -1.8806366249918938E-002
  0.16820000000000002         -1.4826438389718533E-002
  0.16930000000000001         -1.0658091865479946E-002
  0.17040000000000000         -6.3311764970421791E-003
  0.17150000000000004         -1.8779935780912638E-003
  0.17260000000000003          2.6670861989259720E-003
  0.17370000000000002          7.2679803706705570E-003
  0.17480000000000001          1.1887270025908947E-002
  0.17590000000000000          1.6486644744873047E-002
  0.17700000000000005          2.1027425304055214E-002
  0.17810000000000004          2.5471126660704613E-002
  0.17920000000000003          2.9779979959130287E-002
  0.18030000000000002          3.3917412161827087E-002
  0.18140000000000001          3.7848453968763351E-002
  0.18250000000000000          4.1540227830410004E-002
  0.18360000000000004          4.4962380081415176E-002
  0.18470000000000003          4.8087529838085175E-002
  0.18580000000000002          5.0891648977994919E-002
  0.18690000000000001          5.3354330360889435E-002
  0.18800000000000000          5.5458951741456985E-002
  0.18910000000000005          5.7192873209714890E-002
  0.19020000000000004          5.8547575026750565E-002
  0.19130000000000003          5.9518754482269287E-002
  0.19240000000000002          6.0106325894594193E-002
  0.19350000000000001          6.0314308851957321E-002
  0.19460000000000005          6.0150615870952606E-002
  0.19570000000000004          5.9626873582601547E-002
  0.19680000000000003          5.8758195489645004E-002
  0.19790000000000002          5.7562943547964096E-002
  0.19900000000000001          5.6062359362840652E-002
  0.20010000000000000          5.4280180484056473E-002
  0.20120000000000005          5.2242185920476913E-002
  0.20230000000000004          4.9975808709859848E-002
  0.20340000000000003          4.7509744763374329E-002
  0.20450000000000002          4.4873561710119247E-002
  0.20560000000000000          4.2097263038158417E-002
  0.20670000000000005          3.9210859686136246E-002
  0.20780000000000004          3.6243937909603119E-002
  0.20890000000000003          3.3225312829017639E-002
