 -0.12000000000000000          0.0000000000000000
 -0.11889999999999999          0.0000000000000000
 -0.11780000000000000          0.0000000000000000
 -0.11670000000000000          0.0000000000000000
 -0.11559999999999999          0.0000000000000000
 -0.11449999999999999          0.0000000000000000
 -0.11340000000000000          0.0000000000000000
 -0.11230000000000000          0.0000000000000000
 -0.11119999999999999          0.0000000000000000
 -0.11009999999999999          0.0000000000000000
 -0.10900000000000000         -1.0791331931320114E-022
 -0.10790000000000000         -3.0399382284883522E-022
 -0.10679999999999999          3.4549698404366900E-021
 -0.10569999999999999          2.0636763647088625E-020
 -0.10460000000000000          6.7972427847615655E-021
 -0.10349999999999999         -2.7713466332185677E-019
 -0.10239999999999999         -9.5465989829541243E-019
 -0.10130000000000000         -1.6724519235965315E-019
 -0.10020000000000000          7.4257509057600141E-018
  -9.9099999999999994E-002     2.1107215666991135E-017
  -9.7999999999999990E-002     5.6975410635167558E-018
  -9.6899999999999986E-002    -1.1174401423824572E-016
  -9.5799999999999996E-002    -3.0139322205571567E-016
  -9.4699999999999993E-002    -1.3950436764909274E-016
  -9.3599999999999989E-002     1.1206794346007741E-015
  -9.2499999999999999E-002     3.1684262655760128E-015
  -9.1399999999999995E-002     2.2826748070280080E-015
  -9.0299999999999991E-002    -7.8173593968011885E-015
  -8.9200000000000002E-002    -2.5718078518590162E-014
  -8.8099999999999984E-002    -2.6107534103342322E-014
  -8.6999999999999994E-002     3.5716516414352126E-014
  -8.5899999999999990E-002     1.6286092212238618E-013
  -8.4799999999999986E-002     2.1904211029624004E-013
  -8.3699999999999997E-002    -6.5246615890083431E-014
  -8.2599999999999993E-002    -7.9547197821827620E-013
  -8.1499999999999989E-002    -1.3955866627266000E-012
  -8.0399999999999999E-002    -4.9971675018453676E-013
  -7.9299999999999995E-002     2.8593906756246845E-012
  -7.8199999999999992E-002     6.8719483228840694E-012
  -7.7100000000000002E-002     5.7802152821084807E-012
  -7.5999999999999984E-002    -6.3153041823804656E-012
  -7.4899999999999994E-002    -2.6064433597539072E-011
  -7.3799999999999991E-002    -3.3616984196349620E-011
  -7.2699999999999987E-002    -1.6599287049057221E-012
  -7.1599999999999997E-002     7.3112085829940554E-011
  -7.0499999999999993E-002     1.3666591469618794E-010
  -6.9399999999999989E-002     8.8841357881452865E-011
  -6.8300000000000000E-002    -1.2870102206186118E-010
  -6.7199999999999996E-002    -4.1039360798578173E-010
  -6.6099999999999992E-002    -4.6232426220704781E-010
  -6.5000000000000002E-002    -6.7313380347142071E-013
  -6.3899999999999985E-002     8.8234858308666730E-010
  -6.2799999999999995E-002     1.5058591040784108E-009
  -6.1699999999999991E-002     9.3468954798225923E-010
  -6.0599999999999994E-002    -1.1148755252321507E-009
  -5.9499999999999990E-002    -3.4583806929333605E-009
  -5.8399999999999994E-002    -3.7521505902304852E-009
  -5.7299999999999990E-002    -3.4517763647379240E-010
  -5.6199999999999986E-002     5.4521236414473151E-009
  -5.5099999999999996E-002     9.0200273916707374E-009
  -5.3999999999999992E-002     5.5541433674477503E-009
  -5.2899999999999989E-002    -4.8664712259949283E-009
  -5.1799999999999985E-002    -1.4895655375823935E-008
  -5.0699999999999995E-002    -1.4326013264565063E-008
  -4.9599999999999991E-002     1.8337394103173921E-010
  -4.8499999999999988E-002     1.8395432732631889E-008
  -4.7399999999999998E-002     2.1960932627962393E-008
  -4.6299999999999994E-002     1.8109358457252256E-009
  -4.5199999999999990E-002    -2.6801751928928752E-008
  -4.4099999999999986E-002    -3.0529864858408473E-008
  -4.2999999999999997E-002     1.0727920773945243E-008
  -4.1899999999999993E-002     7.1007839608228096E-008
  -4.0799999999999989E-002     8.2052558525447239E-008
  -3.9699999999999985E-002    -1.0218773383030566E-008
  -3.8599999999999995E-002    -1.7227755222393171E-007
  -3.7499999999999992E-002    -2.6652898554857529E-007
  -3.6399999999999988E-002    -1.4104030299222359E-007
  -3.5299999999999984E-002     2.1601233868295822E-007
  -3.4199999999999994E-002     5.8778311995411059E-007
  -3.3099999999999991E-002     6.2866826056051650E-007
  -3.1999999999999987E-002     1.3684073962849652E-007
  -3.0899999999999997E-002    -6.9561389182126732E-007
  -2.9799999999999993E-002    -1.3034101584707969E-006
  -2.8699999999999989E-002    -1.1160976782775833E-006
  -2.7599999999999986E-002    -4.5628841149891741E-008
  -2.6499999999999996E-002     1.3148091966286302E-006
  -2.5399999999999992E-002     2.0325458081060788E-006
  -2.4299999999999988E-002     1.5330733731389046E-006
  -2.3199999999999985E-002     1.0031576636038153E-007
  -2.2099999999999995E-002    -1.3009452004553168E-006
  -2.0999999999999991E-002    -1.8132699324269197E-006
  -1.9899999999999987E-002    -1.4228349982658983E-006
  -1.8799999999999983E-002    -9.1537498292382224E-007
  -1.7699999999999994E-002    -9.7375186669523828E-007
  -1.6599999999999990E-002    -1.2184576689833193E-006
  -1.5499999999999986E-002    -2.6346424419898540E-007
  -1.4399999999999996E-002     2.9114646622474538E-006
  -1.3299999999999992E-002     7.2826360337785445E-006
  -1.2199999999999989E-002     9.4922070275060833E-006
  -1.1099999999999985E-002     5.8443592934054323E-006
  -9.9999999999999950E-003    -4.4184989747009240E-006
  -8.8999999999999913E-003    -1.7075239156838506E-005
  -7.7999999999999875E-003    -2.4279026547446847E-005
  -6.6999999999999837E-003    -1.9156865164404735E-005
  -5.5999999999999939E-003    -8.7648840008114348E-007
  -4.4999999999999901E-003     2.3424092432833277E-005
  -3.3999999999999864E-003     4.1599148971727118E-005
  -2.2999999999999826E-003     4.2829451558645815E-005
  -1.1999999999999927E-003     2.3547665477963164E-005
  -9.9999999999988987E-005    -1.0422440936963540E-005
   1.0000000000000148E-003    -4.6308086893986911E-005
   2.1000000000000185E-003    -6.9561014242935926E-005
   3.2000000000000084E-003    -6.9080815592315048E-005
   4.3000000000000121E-003    -4.0862065361579880E-005
   5.4000000000000159E-003     1.0143602594325785E-005
   6.5000000000000058E-003     6.9861322117503732E-005
   7.6000000000000234E-003     1.1728833487723023E-004
   8.7000000000000133E-003     1.3006583321839571E-004
   9.8000000000000032E-003     9.3141708930488676E-005
   1.0900000000000021E-002     7.7187651186250150E-006
   1.2000000000000011E-002    -1.0411425319034606E-004
   1.3100000000000001E-002    -2.0296253205742687E-004
   1.4200000000000018E-002    -2.4451012723147869E-004
   1.5300000000000008E-002    -1.9711382628884166E-004
   1.6400000000000026E-002    -5.8058227295987308E-005
   1.7500000000000016E-002     1.3854722783435136E-004
   1.8600000000000005E-002     3.2716104760766029E-004
   1.9700000000000023E-002     4.3024888145737350E-004
   2.0800000000000013E-002     3.8708635838702321E-004
   2.1900000000000003E-002     1.8213741714134812E-004
   2.3000000000000020E-002    -1.3905653031542897E-004
   2.4100000000000010E-002    -4.7571511822752655E-004
   2.5200000000000000E-002    -7.0080941077321768E-004
   2.6300000000000018E-002    -7.0512836100533605E-004
   2.7400000000000008E-002    -4.4180441182106733E-004
   2.8500000000000025E-002     4.4256841647438705E-005
   2.9600000000000015E-002     6.1396637465804815E-004
   3.0700000000000005E-002     1.0648394236341119E-003
   3.1800000000000023E-002     1.1937468079850078E-003
   3.2900000000000013E-002     8.7918306235224009E-004
   3.4000000000000002E-002     1.5556518337689340E-004
   3.5100000000000020E-002    -7.5922702671959996E-004
   3.6200000000000010E-002    -1.5159100294113159E-003
   3.7300000000000028E-002    -1.7664245096966624E-003
   3.8400000000000017E-002    -1.3298062840476632E-003
   3.9500000000000007E-002    -3.0806765425950289E-004
   4.0600000000000025E-002     9.2321907868608832E-004
   4.1700000000000015E-002     1.8653236329555511E-003
   4.2800000000000005E-002     2.1214908920228481E-003
   4.3900000000000022E-002     1.5792130725458264E-003
   4.5000000000000012E-002     4.5071513159200549E-004
   4.6100000000000002E-002    -8.4456719923764467E-004
   4.7200000000000020E-002    -1.8776421202346683E-003
   4.8300000000000010E-002    -2.3684452753514051E-003
   4.9400000000000027E-002    -2.2256746888160706E-003
   5.0500000000000017E-002    -1.4804945094510913E-003
   5.1600000000000007E-002    -2.0311321713961661E-004
   5.2700000000000025E-002     1.5042362501844764E-003
   5.3800000000000014E-002     3.4170143771916628E-003
   5.4900000000000004E-002     5.0780996680259705E-003
   5.6000000000000022E-002     5.7955873198807240E-003
   5.7100000000000012E-002     4.8342938534915447E-003
   5.8200000000000002E-002     1.7651054076850414E-003
   5.9300000000000019E-002    -3.1950043048709631E-003
   6.0400000000000009E-002    -9.0736960992217064E-003
   6.1500000000000027E-002    -1.4408748596906662E-002
   6.2600000000000017E-002    -1.7842989414930344E-002
   6.3700000000000007E-002    -1.8795013427734375E-002
   6.4800000000000024E-002    -1.7853206023573875E-002
   6.5900000000000014E-002    -1.6636462882161140E-002
   6.7000000000000004E-002    -1.7132669687271118E-002
   6.8100000000000022E-002    -2.0827621221542358E-002
   6.9200000000000012E-002    -2.8087478131055832E-002
   7.0300000000000029E-002    -3.8138523697853088E-002
   7.1400000000000019E-002    -4.9661662429571152E-002
   7.2500000000000009E-002    -6.1659570783376694E-002
   7.3600000000000027E-002    -7.4111990630626678E-002
   7.4700000000000016E-002    -8.8076636195182800E-002
   7.5800000000000006E-002   -0.10524419695138931
   7.6900000000000024E-002   -0.12727893888950348
   7.8000000000000014E-002   -0.15535964071750641
   7.9100000000000004E-002   -0.19016401469707489
   8.0200000000000021E-002   -0.23223321139812469
   8.1300000000000011E-002   -0.28240925073623657
   8.2400000000000029E-002   -0.34206327795982361
   8.3500000000000019E-002   -0.41297042369842529
   8.4600000000000009E-002   -0.49697008728981018
   8.5700000000000026E-002   -0.59567999839782715
   8.6800000000000016E-002   -0.71050107479095459
   8.7900000000000006E-002   -0.84294372797012329
   8.9000000000000024E-002   -0.99515545368194580
   9.0100000000000013E-002    -1.1702845096588135
   9.1200000000000003E-002    -1.3724757432937622
   9.2300000000000021E-002    -1.6064521074295044
   9.3400000000000011E-002    -1.8768839836120605
   9.4500000000000028E-002    -2.1879103183746338
   9.5600000000000018E-002    -2.5431275367736816
   9.6700000000000008E-002    -2.9458658695220947
   9.7800000000000026E-002    -3.3998124599456787
   9.8900000000000016E-002    -3.9092111587524414
  0.10000000000000001         -4.4784588813781738
  0.10110000000000002         -5.1119232177734375
  0.10220000000000001         -5.8133864402770996
  0.10330000000000003         -6.5861887931823730
  0.10440000000000002         -7.4335670471191406
  0.10550000000000001         -8.3590154647827148
  0.10660000000000003         -9.3659954071044922
  0.10770000000000002         -10.457185745239258
  0.10880000000000001         -11.632815361022949
  0.10990000000000003         -12.890118598937988
  0.11100000000000002         -14.223600387573242
  0.11210000000000001         -15.625627517700195
  0.11320000000000002         -17.087860107421875
  0.11430000000000001         -18.601173400878906
  0.11540000000000003         -20.155324935913086
  0.11650000000000002         -21.738302230834961
  0.11760000000000001         -23.333040237426758
  0.11870000000000003         -24.917623519897461
  0.11980000000000002         -26.466442108154297
  0.12090000000000001         -27.948354721069336
  0.12200000000000003         -29.330718994140625
  0.12310000000000001         -30.579650878906250
  0.12420000000000003         -31.661558151245117
  0.12530000000000002         -32.540130615234375
  0.12640000000000001         -33.176071166992188
  0.12750000000000003         -33.524765014648438
  0.12860000000000002         -33.539344787597656
  0.12970000000000001         -33.171913146972656
  0.13080000000000003         -32.376213073730469
  0.13190000000000002         -31.111141204833984
  0.13300000000000001         -29.339689254760742
  0.13410000000000000         -27.023393630981445
  0.13520000000000004         -24.126277923583984
  0.13630000000000003         -20.618135452270508
  0.13740000000000002         -16.477331161499023
  0.13850000000000001         -11.693023681640625
  0.13960000000000000         -6.2576527595520020
  0.14070000000000005        -0.17757914960384369
  0.14180000000000004          6.5227112770080566
  0.14290000000000003          13.815045356750488
  0.14400000000000002          21.660411834716797
  0.14510000000000001          30.015439987182617
  0.14620000000000000          38.810127258300781
  0.14730000000000004          47.958831787109375
  0.14840000000000003          57.370880126953125
  0.14950000000000002          66.936676025390625
  0.15060000000000001          76.535446166992188
  0.15170000000000000          86.036567687988281
  0.15280000000000005          95.302993774414062
  0.15390000000000004          104.18964385986328
  0.15500000000000003          112.56454467773438
  0.15610000000000002          120.28556823730469
  0.15720000000000001          127.19805908203125
  0.15830000000000000          133.14523315429688
  0.15940000000000004          137.97624206542969
  0.16050000000000003          141.55287170410156
  0.16160000000000002          143.76289367675781
  0.16270000000000001          144.51429748535156
  0.16380000000000000          143.73037719726562
  0.16490000000000005          141.33744812011719
  0.16600000000000004          137.28872680664062
  0.16710000000000003          131.54711914062500
  0.16820000000000002          124.12077331542969
  0.16930000000000001          115.05549621582031
  0.17040000000000000          104.41699218750000
  0.17150000000000004          92.290367126464844
  0.17260000000000003          78.783218383789062
  0.17370000000000002          64.029724121093750
  0.17480000000000001          48.191238403320312
  0.17590000000000000          31.450536727905273
  0.17700000000000005          14.010972023010254
  0.17810000000000004         -3.9091079235076904
  0.17920000000000003         -22.080221176147461
  0.18030000000000002         -40.260528564453125
  0.18140000000000001         -58.213008880615234
  0.18250000000000000         -75.698997497558594
  0.18360000000000004         -92.490249633789062
  0.18470000000000003         -108.36850738525391
  0.18580000000000002         -123.11368560791016
  0.18690000000000001         -136.53173828125000
  0.18800000000000000         -148.44169616699219
  0.18910000000000005         -158.69026184082031
  0.19020000000000004         -167.16865539550781
  0.19130000000000003         -173.78555297851562
  0.19240000000000002         -178.47531127929688
  0.19350000000000001         -181.18353271484375
  0.19460000000000005         -181.90278625488281
  0.19570000000000004         -180.67622375488281
  0.19680000000000003         -177.56877136230469
  0.19790000000000002         -172.65144348144531
  0.19900000000000001         -166.04005432128906
  0.20010000000000000         -157.85435485839844
  0.20120000000000005         -148.25224304199219
  0.20230000000000004         -137.39990234375000
  0.20340000000000003         -125.48016357421875
  0.20450000000000002         -112.68336486816406
  0.20560000000000000         -99.208045959472656
  0.20670000000000005         -85.263580322265625
  0.20780000000000004         -71.055236816406250
  0.20890000000000003         -56.783878326416016
