-1.199999999999999956e-01 0.000000000000000000e+00
-1.189999999999999947e-01 0.000000000000000000e+00
-1.179999999999999938e-01 0.000000000000000000e+00
-1.170000000000000068e-01 0.000000000000000000e+00
-1.160000000000000059e-01 0.000000000000000000e+00
-1.150000000000000050e-01 0.000000000000000000e+00
-1.140000000000000041e-01 0.000000000000000000e+00
-1.130000000000000032e-01 0.000000000000000000e+00
-1.120000000000000023e-01 0.000000000000000000e+00
-1.110000000000000014e-01 0.000000000000000000e+00
-1.100000000000000006e-01 0.000000000000000000e+00
-1.089999999999999997e-01 0.000000000000000000e+00
-1.079999999999999988e-01 0.000000000000000000e+00
-1.069999999999999979e-01 0.000000000000000000e+00
-1.059999999999999970e-01 0.000000000000000000e+00
-1.049999999999999961e-01 0.000000000000000000e+00
-1.039999999999999952e-01 0.000000000000000000e+00
-1.029999999999999943e-01 0.000000000000000000e+00
-1.019999999999999934e-01 0.000000000000000000e+00
-1.010000000000000064e-01 0.000000000000000000e+00
-1.000000000000000056e-01 0.000000000000000000e+00
-9.900000999999999940e-02 0.000000000000000000e+00
-9.800000000000000377e-02 0.000000000000000000e+00
-9.700000000000000289e-02 0.000000000000000000e+00
-9.600000000000000200e-02 0.000000000000000000e+00
-9.500000999999999585e-02 0.000000000000000000e+00
-9.400000000000000022e-02 0.000000000000000000e+00
-9.299999999999999933e-02 0.000000000000000000e+00
-9.200000999999999318e-02 0.000000000000000000e+00
-9.100001000000000617e-02 0.000000000000000000e+00
-8.999999999999999667e-02 0.000000000000000000e+00
-8.899999999999999578e-02 0.000000000000000000e+00
-8.799999999999999489e-02 0.000000000000000000e+00
-8.699999999999999400e-02 0.000000000000000000e+00
-8.599999999999999312e-02 0.000000000000000000e+00
-8.500001000000000084e-02 0.000000000000000000e+00
-8.400000999999999995e-02 0.000000000000000000e+00
-8.300000000000000433e-02 0.000000000000000000e+00
-8.200000000000000344e-02 0.000000000000000000e+00
-8.100000000000000255e-02 0.000000000000000000e+00
-8.000000000000000167e-02 0.000000000000000000e+00
-7.900000000000000078e-02 0.000000000000000000e+00
-7.799999999999999989e-02 0.000000000000000000e+00
-7.700000999999999374e-02 0.000000000000000000e+00
-7.600001000000000673e-02 0.000000000000000000e+00
-7.499999999999999722e-02 0.000000000000000000e+00
-7.399999999999999634e-02 0.000000000000000000e+00
-7.299999999999999545e-02 0.000000000000000000e+00
-7.199999999999999456e-02 0.000000000000000000e+00
-7.099999999999999367e-02 0.000000000000000000e+00
-7.000001000000000140e-02 0.000000000000000000e+00
-6.900001000000000051e-02 0.000000000000000000e+00
-6.800000000000000488e-02 0.000000000000000000e+00
-6.700000000000000400e-02 0.000000000000000000e+00
-6.600000000000000311e-02 0.000000000000000000e+00
-6.500000000000000222e-02 0.000000000000000000e+00
-6.400000000000000133e-02 0.000000000000000000e+00
-6.300000000000000044e-02 0.000000000000000000e+00
-6.199999999999999956e-02 0.000000000000000000e+00
-6.099999999999999867e-02 0.000000000000000000e+00
-5.999999999999999778e-02 0.000000000000000000e+00
-5.899999999999999689e-02 0.000000000000000000e+00
-5.800000000000000294e-02 0.000000000000000000e+00
-5.700000000000000205e-02 0.000000000000000000e+00
-5.600000000000000117e-02 0.000000000000000000e+00
-5.500000000000000028e-02 0.000000000000000000e+00
-5.400001000000000106e-02 0.000000000000000000e+00
-5.299999999999999850e-02 0.000000000000000000e+00
-5.199999999999999761e-02 0.000000000000000000e+00
-5.099999999999999672e-02 0.000000000000000000e+00
-5.000000000000000278e-02 0.000000000000000000e+00
-4.900000000000000189e-02 0.000000000000000000e+00
-4.800000000000000100e-02 0.000000000000000000e+00
-4.700000000000000011e-02 0.000000000000000000e+00
-4.599999999999999922e-02 0.000000000000000000e+00
-4.499999999999999833e-02 0.000000000000000000e+00
-4.399999999999999745e-02 0.000000000000000000e+00
-4.299999999999999656e-02 0.000000000000000000e+00
-4.200000000000000261e-02 0.000000000000000000e+00
-4.100000000000000172e-02 0.000000000000000000e+00
-4.000000000000000083e-02 0.000000000000000000e+00
-3.899999999999999994e-02 0.000000000000000000e+00
-3.799999999999999906e-02 0.000000000000000000e+00
-3.699999999999999817e-02 0.000000000000000000e+00
-3.599999999999999728e-02 0.000000000000000000e+00
-3.500000000000000333e-02 0.000000000000000000e+00
-3.400000000000000244e-02 0.000000000000000000e+00
-3.300000000000000155e-02 0.000000000000000000e+00
-3.200000000000000067e-02 0.000000000000000000e+00
-3.099999999999999978e-02 0.000000000000000000e+00
-2.999999999999999889e-02 0.000000000000000000e+00
-2.900000000000000147e-02 0.000000000000000000e+00
-2.800000000000000058e-02 0.000000000000000000e+00
-2.699999999999999969e-02 0.000000000000000000e+00
-2.599999999999999881e-02 0.000000000000000000e+00
-2.500000000000000139e-02 0.000000000000000000e+00
-2.400000000000000050e-02 0.000000000000000000e+00
-2.299999999999999961e-02 0.000000000000000000e+00
-2.199999999999999872e-02 0.000000000000000000e+00
-2.100000000000000130e-02 0.000000000000000000e+00
-2.000000000000000042e-02 0.000000000000000000e+00
-1.899999999999999953e-02 0.000000000000000000e+00
-1.799999999999999864e-02 0.000000000000000000e+00
-1.700000000000000122e-02 0.000000000000000000e+00
-1.600000000000000033e-02 0.000000000000000000e+00
-1.499999999999999944e-02 0.000000000000000000e+00
-1.400000000000000029e-02 0.000000000000000000e+00
-1.299999999999999940e-02 0.000000000000000000e+00
-1.200000000000000025e-02 0.000000000000000000e+00
-1.099999999999999936e-02 0.000000000000000000e+00
-9.999997999999999526e-03 0.000000000000000000e+00
-8.999995999999999691e-03 0.000000000000000000e+00
-8.000000999999999640e-03 0.000000000000000000e+00
-6.999998999999999805e-03 0.000000000000000000e+00
-5.999996999999999969e-03 0.000000000000000000e+00
-5.000003000000000260e-03 0.000000000000000000e+00
-4.000001000000000424e-03 0.000000000000000000e+00
-2.999999000000000155e-03 0.000000000000000000e+00
-1.999996999999999886e-03 0.000000000000000000e+00
-1.000002000000000052e-03 0.000000000000000000e+00
0.000000000000000000e+00 0.000000000000000000e+00
1.000002000000000052e-03 0.000000000000000000e+00
2.000004000000000105e-03 0.000000000000000000e+00
2.999999000000000155e-03 0.000000000000000000e+00
4.000001000000000424e-03 0.000000000000000000e+00
4.999995000000000134e-03 0.000000000000000000e+00
5.999996999999999969e-03 0.000000000000000000e+00
6.999998999999999805e-03 0.000000000000000000e+00
8.000000999999999640e-03 0.000000000000000000e+00
9.000002999999999476e-03 0.000000000000000000e+00
1.000001000000000015e-02 0.000000000000000000e+00
1.100000999999999930e-02 0.000000000000000000e+00
1.199999000000000031e-02 0.000000000000000000e+00
1.299999999999999940e-02 0.000000000000000000e+00
1.400000000000000029e-02 0.000000000000000000e+00
1.499999999999999944e-02 0.000000000000000000e+00
1.600000000000000033e-02 0.000000000000000000e+00
1.700000000000000122e-02 0.000000000000000000e+00
1.800001000000000032e-02 0.000000000000000000e+00
1.900001000000000120e-02 0.000000000000000000e+00
2.000000000000000042e-02 0.000000000000000000e+00
2.100000000000000130e-02 0.000000000000000000e+00
2.199999999999999872e-02 0.000000000000000000e+00
2.299999999999999961e-02 0.000000000000000000e+00
2.400000000000000050e-02 0.000000000000000000e+00
2.500000999999999959e-02 0.000000000000000000e+00
2.600001000000000048e-02 0.000000000000000000e+00
2.699999999999999969e-02 0.000000000000000000e+00
2.800000000000000058e-02 0.000000000000000000e+00
2.900000000000000147e-02 0.000000000000000000e+00
2.999999999999999889e-02 0.000000000000000000e+00
3.099999999999999978e-02 0.000000000000000000e+00
3.200001000000000234e-02 0.000000000000000000e+00
3.300001000000000323e-02 0.000000000000000000e+00
3.400000999999999718e-02 0.000000000000000000e+00
3.500000000000000333e-02 0.000000000000000000e+00
3.599999999999999728e-02 0.000000000000000000e+00
3.699999999999999817e-02 0.000000000000000000e+00
3.799999999999999906e-02 0.000000000000000000e+00
3.899999999999999994e-02 0.000000000000000000e+00
4.000001000000000251e-02 0.000000000000000000e+00
4.100001000000000340e-02 0.000000000000000000e+00
4.200000000000000261e-02 0.000000000000000000e+00
4.299999999999999656e-02 0.000000000000000000e+00
4.399999999999999745e-02 0.000000000000000000e+00
4.499999999999999833e-02 0.000000000000000000e+00
4.599999999999999922e-02 0.000000000000000000e+00
4.700001000000000179e-02 0.000000000000000000e+00
4.800001000000000267e-02 0.000000000000000000e+00
4.900000999999999662e-02 0.000000000000000000e+00
5.000000000000000278e-02 0.000000000000000000e+00
5.099999999999999672e-02 0.000000000000000000e+00
5.199999999999999761e-02 0.000000000000000000e+00
5.299999999999999850e-02 0.000000000000000000e+00
5.400001000000000106e-02 0.000000000000000000e+00
5.500001000000000195e-02 0.000000000000000000e+00
5.600001000000000284e-02 0.000000000000000000e+00
5.700000000000000205e-02 0.000000000000000000e+00
5.800000000000000294e-02 0.000000000000000000e+00
5.899999999999999689e-02 0.000000000000000000e+00
5.999999999999999778e-02 0.000000000000000000e+00
6.099999999999999867e-02 0.000000000000000000e+00
6.200001000000000123e-02 0.000000000000000000e+00
6.300000999999999518e-02 0.000000000000000000e+00
6.400000999999999607e-02 0.000000000000000000e+00
6.500000000000000222e-02 0.000000000000000000e+00
6.600000000000000311e-02 0.000000000000000000e+00
6.700000000000000400e-02 0.000000000000000000e+00
6.800000000000000488e-02 0.000000000000000000e+00
6.900001000000000051e-02 0.000000000000000000e+00
7.000001000000000140e-02 0.000000000000000000e+00
7.100001000000000229e-02 0.000000000000000000e+00
7.199999999999999456e-02 0.000000000000000000e+00
7.299999999999999545e-02 0.000000000000000000e+00
7.399999999999999634e-02 0.000000000000000000e+00
7.499999999999999722e-02 0.000000000000000000e+00
7.600001000000000673e-02 0.000000000000000000e+00
7.700000999999999374e-02 0.000000000000000000e+00
7.800000999999999463e-02 0.000000000000000000e+00
7.900000999999999551e-02 0.000000000000000000e+00
8.000000000000000167e-02 0.000000000000000000e+00
8.100000000000000255e-02 -7.006492321624085355e-45
8.200000000000000344e-02 -1.821688003622262192e-43
8.300000000000000433e-02 -2.813807316364232678e-42
8.400000999999999995e-02 -2.412195176488740106e-41
8.500001000000000084e-02 3.789671566920035287e-41
8.600001000000000173e-02 5.553577028365863647e-39
8.700001000000000262e-02 1.180732852897442258e-37
8.799999999999999489e-02 1.698160831078202635e-36
8.899999999999999578e-02 1.903055472908425754e-35
8.999999999999999667e-02 1.694680359044240553e-34
9.100001000000000617e-02 1.114851148276342643e-33
9.200000999999999318e-02 3.196060774000333305e-33
9.300000999999999407e-02 -4.916408731777450075e-32
9.400000999999999496e-02 -1.149276406940191405e-30
9.500000000000000111e-02 -1.558161584444340747e-29
9.600000000000000200e-02 -1.704575352900276336e-28
9.700000000000000289e-02 -1.635130122817312776e-27
9.800000000000000377e-02 -1.424907127149069546e-26
9.900000999999999940e-02 -1.149494584499586510e-25
1.000000000000000056e-01 -8.680792047918241845e-25
1.010000000000000064e-01 -6.178090396983189316e-24
1.019999999999999934e-01 -4.158798330589548844e-23
1.029999999999999943e-01 -2.651069687021761321e-22
1.039999999999999952e-01 -1.598896200289799790e-21
1.049999999999999961e-01 -9.097224940313794508e-21
1.059999999999999970e-01 -4.858813681696735568e-20
1.069999999999999979e-01 -2.417892098980717505e-19
1.079999999999999988e-01 -1.108638018358509994e-18
1.089999999999999997e-01 -4.601787313776948345e-18
1.100000000000000006e-01 -1.675126767203586556e-17
1.110000000000000014e-01 -4.977374378452877177e-17
1.120000000000000023e-01 -9.328825819598308608e-17
1.130000000000000032e-01 1.275596810804800079e-16
1.140000000000000041e-01 2.411113377435492901e-15
1.150000000000000050e-01 1.518328750216551420e-14
1.160000000000000059e-01 7.034374845853522129e-14
1.170000000000000068e-01 2.680017395072925579e-13
1.179999999999999938e-01 8.649659222377537038e-13
1.189999999999999947e-01 2.365635682136102425e-12
1.199999999999999956e-01 5.353078657427401410e-12
1.209999999999999964e-01 9.329594388707285191e-12
1.219999999999999973e-01 9.438450021548305813e-12
1.229999999999999982e-01 -9.019236746343750610e-12
1.239999999999999991e-01 -7.368582827238512323e-11
1.250000000000000000e-01 -2.136637256011653108e-10
1.260000000000000009e-01 -4.214849302908163509e-10
1.270000000000000018e-01 -6.044794664816777185e-10
1.280000000000000027e-01 -5.947174974707536421e-10
1.290000000000000036e-01 -2.922180553088793431e-10
1.300000000000000044e-01 1.308759628448896706e-10
1.310000000000000053e-01 2.580812785701880330e-10
1.320000000000000062e-01 -1.223221662849383051e-10
1.330000000000000071e-01 -5.950410719712806440e-10
1.340000000000000080e-01 -5.257499435806778365e-10
1.350000000000000089e-01 -4.185281288204834027e-11
1.360000000000000098e-01 3.466568004872883080e-11
1.370000000000000107e-01 -3.746822019312645580e-10
1.380000000000000115e-01 -3.178981244911227577e-10
1.390000000000000124e-01 3.129546066737987076e-10
1.400000000000000133e-01 3.918418089998709775e-10
1.409999999999999865e-01 -5.419185933330794569e-11
1.419999999999999873e-01 1.328622906138221538e-10
1.429999999999999882e-01 4.308184642365375794e-10
1.439999999999999891e-01 -1.417143208337634519e-10
1.449999999999999900e-01 -3.957766059325962260e-10
1.459999999999999909e-01 6.380321965204771573e-11
1.469999999999999918e-01 -1.659956894162206709e-10
1.479999999999999927e-01 -3.144745019945105469e-10
1.489999999999999936e-01 3.568151607513669887e-10
1.499999999999999944e-01 2.095981027627757953e-10
1.509999999999999953e-01 -8.543455526366372510e-11
1.519999999999999962e-01 3.147540006409599300e-10
1.529999999999999971e-01 -1.692661844021614570e-10
1.539999999999999980e-01 -3.696643546824418536e-10
1.549999999999999989e-01 1.455915943360253095e-10
1.559999999999999998e-01 -2.006492472172993757e-10
1.570000000000000007e-01 1.264310739435003939e-10
1.580000000000000016e-01 3.848286411756163261e-10
1.590000000000000024e-01 -2.012863903333439453e-10
1.600000000000000033e-01 1.331081633804132025e-10
1.610000000000000042e-01 -2.082486266763439176e-10
1.620000000000000051e-01 -2.681138921989401069e-10
1.630000000000000060e-01 2.789352360199615077e-10
1.640000000000000069e-01 -1.171387986609317977e-10
1.650000000000000078e-01 3.256796776707204799e-10
1.660000000000000087e-01 -2.452637398731027929e-11
1.670000000000000095e-01 -2.394822118390038668e-10
1.680000000000000104e-01 6.991909828890641165e-11
1.690000000000000113e-01 -2.990616643216981174e-10
1.700000000000000122e-01 3.627067257649940757e-10
1.710000000000000131e-01 -2.736134756264885226e-11
1.719999999999999862e-01 1.099620325351047256e-10
1.729999999999999871e-01 -9.566985398334892921e-11
1.739999999999999880e-01 -2.215711503161799101e-10
1.749999999999999889e-01 6.539278840644868751e-11
1.759999999999999898e-01 4.304835654611594009e-11
1.769999999999999907e-01 2.720987046789247188e-10
1.779999999999999916e-01 -3.340298870835312073e-10
1.789999999999999925e-01 2.922653230541527591e-10
1.799999999999999933e-01 -3.740065548929472072e-11
1.809999999999999942e-01 -2.223183442895404482e-10
1.819999999999999951e-01 -6.537188568245255738e-10
1.829999999999999960e-01 -1.288189777071124809e-09
1.839999999999999969e-01 -1.549051331650730390e-09
1.849999999999999978e-01 -2.175913893509573427e-09
1.859999999999999987e-01 -1.741967792234788703e-09
1.869999999999999996e-01 -1.995347886918352742e-09
1.880000000000000004e-01 -1.319908515817758143e-09
1.890000000000000013e-01 -1.651142778058556360e-09
1.900000000000000022e-01 -8.140033092018938987e-10
1.910000000000000031e-01 -5.733416519326794969e-10
1.920000000000000040e-01 9.906284681449051277e-10
1.930000000000000049e-01 1.909831182089760659e-09
1.940000000000000058e-01 3.885550547977345559e-09
1.950000000000000067e-01 5.492664545414527311e-09
1.960000000000000075e-01 8.568215470461382210e-09
1.970000000000000084e-01 1.185055875652096802e-08
1.980000000000000093e-01 1.667222271350965457e-08
1.990000000000000102e-01 2.183273828393339500e-08
2.000000000000000111e-01 2.886007521851752244e-08
2.010000000000000120e-01 3.707683049469778780e-08
2.020000000000000129e-01 4.803650810458748310e-08
2.030000000000000138e-01 6.087964976586590637e-08
2.039999999999999869e-01 7.713000371722955606e-08
2.049999999999999878e-01 9.629273023392670439e-08
2.059999999999999887e-01 1.205413866500748554e-07
2.069999999999999896e-01 1.494906882726354524e-07
2.079999999999999905e-01 1.853657778383421828e-07
2.089999999999999913e-01 2.277942314776737476e-07
2.099999999999999922e-01 2.797981437652197201e-07
2.109999999999999931e-01 3.416323011151689570e-07
2.119999999999999940e-01 4.170293550487258472e-07
2.129999999999999949e-01 5.063074581812543329e-07
2.139999999999999958e-01 6.137615287116204854e-07
2.149999999999999967e-01 7.407483622046129312e-07
2.159999999999999976e-01 8.928608963287842926e-07
2.169999999999999984e-01 1.072357690645731054e-06
2.179999999999999993e-01 1.285419898522377480e-06
2.190000000000000002e-01 1.535775595584709663e-06
2.200000000000000011e-01 1.831013491937483195e-06
2.210000000000000020e-01 2.177165924877044745e-06
2.220000000000000029e-01 2.582842625997727737e-06
2.230000000000000038e-01 3.056344667129451409e-06
2.240000000000000047e-01 3.607719690990052186e-06
2.250000000000000056e-01 4.248750428814673796e-06
2.260000000000000064e-01 4.991487003280781209e-06
2.270000000000000073e-01 5.851053174410481006e-06
2.280000000000000082e-01 6.841454251116374508e-06
2.290000000000000091e-01 7.981778253451921046e-06
2.300000000000000100e-01 9.289713489124551415e-06
2.310000000000000109e-01 1.078817786037689075e-05
2.320000000000000118e-01 1.249861998076085001e-05
2.330000000000000127e-01 1.444751796952914447e-05
2.340000000000000135e-01 1.666177195147611201e-05
2.349999999999999867e-01 1.917189001687802374e-05
2.359999999999999876e-01 2.201037568738684058e-05
2.369999999999999885e-01 2.521118767617736012e-05
2.379999999999999893e-01 2.881267209886573255e-05
2.389999999999999902e-01 3.285344064352102578e-05
2.399999999999999911e-01 3.737755469046533108e-05
2.409999999999999920e-01 4.242791692377068102e-05
2.419999999999999929e-01 4.805285061593167484e-05
2.429999999999999938e-01 5.430069359135814011e-05
2.439999999999999947e-01 6.122337072156369686e-05
2.449999999999999956e-01 6.887402560096234083e-05
2.459999999999999964e-01 7.730620563961565495e-05
2.469999999999999973e-01 8.657683065393939614e-05
2.479999999999999982e-01 9.674092871136963367e-05
2.489999999999999991e-01 1.078570203389972448e-04
2.500000000000000000e-01 1.199801336042582989e-04
2.510000000000000009e-01 1.331667153863236308e-04
2.520000000000000018e-01 1.474710734328255057e-04
2.530000000000000027e-01 1.629452308407053351e-04
2.540000000000000036e-01 1.796395808923989534e-04
2.550000000000000044e-01 1.975982740987092257e-04
2.560000000000000053e-01 2.168642240576446056e-04
2.570000000000000062e-01 2.374721225351095200e-04
2.580000000000000071e-01 2.594525576569139957e-04
2.590000000000000080e-01 2.828276192303746939e-04
2.600000000000000089e-01 3.076109860558062792e-04
2.610000000000000098e-01 3.338091773912310600e-04
2.620000000000000107e-01 3.614160232245922089e-04
2.630000000000000115e-01 3.904171462636440992e-04
2.640000000000000124e-01 4.207838501315563917e-04
2.650000000000000133e-01 4.524766118265688419e-04
2.660000000000000142e-01 4.854424332734197378e-04
2.670000000000000151e-01 5.196133861318230629e-04
2.680000000000000160e-01 5.549089983105659485e-04
2.690000000000000169e-01 5.912312772125005722e-04
2.700000000000000178e-01 6.284704431891441345e-04
2.710000000000000187e-01 6.664991378784179688e-04
2.720000000000000195e-01 7.051756838336586952e-04
2.730000000000000204e-01 7.443444337695837021e-04
2.740000000000000213e-01 7.838332676328718662e-04
2.750000000000000222e-01 8.234595297835767269e-04
2.760000000000000231e-01 8.630248485133051872e-04
2.770000000000000240e-01 9.023200254887342453e-04
2.780000000000000249e-01 9.411261416971683502e-04
2.790000000000000258e-01 9.792132768779993057e-04
2.800000000000000266e-01 1.016346621327102184e-03
2.810000000000000275e-01 1.052282750606536865e-03
2.819999999999999729e-01 1.086776261217892170e-03
2.829999999999999738e-01 1.119580119848251343e-03
2.839999999999999747e-01 1.150446478277444839e-03
2.849999999999999756e-01 1.179132610559463501e-03
2.859999999999999765e-01 1.205398584716022015e-03
2.869999999999999774e-01 1.229014131240546703e-03
2.879999999999999782e-01 1.249758875928819180e-03
2.889999999999999791e-01 1.267423853278160095e-03
2.899999999999999800e-01 1.281816861592233181e-03
2.909999999999999809e-01 1.292760949581861496e-03
2.919999999999999818e-01 1.300100353546440601e-03
2.929999999999999827e-01 1.303700613789260387e-03
2.939999999999999836e-01 1.303448458202183247e-03
2.949999999999999845e-01 1.299258554354310036e-03
2.959999999999999853e-01 1.291069551371037960e-03
2.969999999999999862e-01 1.278848503716289997e-03
2.979999999999999871e-01 1.262590638361871243e-03
2.989999999999999880e-01 1.242318539880216122e-03
2.999999999999999889e-01 1.218085992150008678e-03
3.009999999999999898e-01 1.189973554573953152e-03
3.019999999999999907e-01 1.158091006800532341e-03
3.029999999999999916e-01 1.122575835324823856e-03
3.039999999999999925e-01 1.083591021597385406e-03
3.049999999999999933e-01 1.041326555423438549e-03
3.059999999999999942e-01 9.959941962733864784e-04
3.069999999999999951e-01 9.478271822445094585e-04
3.079999999999999960e-01 8.970802300609648228e-04
3.089999999999999969e-01 8.440225501544773579e-04
3.099999999999999978e-01 7.889398839324712753e-04
3.109999999999999987e-01 7.321285665966570377e-04
3.119999999999999996e-01 6.738934898748993874e-04
3.130000000000000004e-01 6.145480438135564327e-04
3.140000000000000013e-01 5.544062005355954170e-04
3.150000000000000022e-01 4.937839112244546413e-04
3.160000000000000031e-01 4.329944786150008440e-04
3.170000000000000040e-01 3.723448317032307386e-04
3.180000000000000049e-01 3.121359623037278652e-04
3.190000000000000058e-01 2.526567259337753057e-04
3.200000000000000067e-01 1.941836235346272588e-04
3.210000000000000075e-01 1.369796809740364552e-04
3.220000000000000084e-01 8.128897025017067790e-05
3.230000000000000093e-01 2.733889596129301935e-05
3.240000000000000102e-01 -2.466350269969552755e-05
3.250000000000000111e-01 -7.453322905348613858e-05
3.260000000000000120e-01 -1.221045822603628039e-04
3.270000000000000129e-01 -1.672373327892273664e-04
3.280000000000000138e-01 -2.098123804898932576e-04
3.290000000000000147e-01 -2.497330715414136648e-04
3.300000000000000155e-01 -2.869269810616970062e-04
3.310000000000000164e-01 -3.213426971342414618e-04
3.320000000000000173e-01 -3.529510577209293842e-04
3.330000000000000182e-01 -3.817441465798765421e-04
3.340000000000000191e-01 -4.077323246747255325e-04
3.350000000000000200e-01 -4.309464711695909500e-04
3.360000000000000209e-01 -4.514340835157781839e-04
3.370000000000000218e-01 -4.692573857028037310e-04
3.380000000000000226e-01 -4.844951326958835125e-04
3.390000000000000235e-01 -4.972373135387897491e-04
3.400000000000000244e-01 -5.075855297036468983e-04
3.410000000000000253e-01 -5.156520055606961250e-04
3.420000000000000262e-01 -5.215545534156262875e-04
3.430000000000000271e-01 -5.254197749309241772e-04
3.439999999999999725e-01 -5.273782298900187016e-04
3.449999999999999734e-01 -5.275629810057580471e-04
3.459999999999999742e-01 -5.261105252429842949e-04
3.469999999999999751e-01 -5.231568356975913048e-04
3.479999999999999760e-01 -5.188371869735419750e-04
3.489999999999999769e-01 -5.132864462211728096e-04
3.499999999999999778e-01 -5.066346493549644947e-04
3.509999999999999787e-01 -4.990092129446566105e-04
3.519999999999999796e-01 -4.905342939309775829e-04
3.529999999999999805e-01 -4.813263076357543468e-04
3.539999999999999813e-01 -4.714978276751935482e-04
3.549999999999999822e-01 -4.611549375113099813e-04
3.559999999999999831e-01 -4.503963864408433437e-04
3.569999999999999840e-01 -4.393158014863729477e-04
3.579999999999999849e-01 -4.279982822481542826e-04
3.589999999999999858e-01 -4.165222635492682457e-04
3.599999999999999867e-01 -4.049608833156526089e-04
3.609999999999999876e-01 -3.933781408704817295e-04
3.619999999999999885e-01 -3.818326513282954693e-04
3.629999999999999893e-01 -3.703767142724245787e-04
3.639999999999999902e-01 -3.590553824324160814e-04
3.649999999999999911e-01 -3.479089064057916403e-04
3.659999999999999920e-01 -3.369714249856770039e-04
3.669999999999999929e-01 -3.262709651608020067e-04
3.679999999999999938e-01 -3.158324398100376129e-04
3.689999999999999947e-01 -3.056749701499938965e-04
3.699999999999999956e-01 -2.958130207844078541e-04
3.709999999999999964e-01 -2.862591645680367947e-04
3.719999999999999973e-01 -2.770205610431730747e-04
3.729999999999999982e-01 -2.681022160686552525e-04
3.739999999999999991e-01 -2.595067198853939772e-04
3.750000000000000000e-01 -2.512328792363405228e-04
3.760000000000000009e-01 -2.432789333397522569e-04
3.770000000000000018e-01 -2.356411860091611743e-04
3.780000000000000027e-01 -2.283128415001556277e-04
3.790000000000000036e-01 -2.212872641393914819e-04
3.800000000000000044e-01 -2.145572507288306952e-04
3.810000000000000053e-01 -2.081127458950504661e-04
3.820000000000000062e-01 -2.019451058004051447e-04
3.830000000000000071e-01 -1.960440713446587324e-04
3.840000000000000080e-01 -1.903988013509660959e-04
3.850000000000000089e-01 -1.849998661782592535e-04
3.860000000000000098e-01 -1.798361190594732761e-04
3.870000000000000107e-01 -1.748964859871193767e-04
3.880000000000000115e-01 -1.701716682873666286e-04
3.890000000000000124e-01 -1.656511594774201512e-04
3.900000000000000133e-01 -1.613238709978759289e-04
3.910000000000000142e-01 -1.571815955685451627e-04
3.920000000000000151e-01 -1.532155292807146907e-04
3.930000000000000160e-01 -1.494132884545251727e-04
3.940000000000000169e-01 -1.457715115975588560e-04
3.950000000000000178e-01 -1.422807108610868454e-04
3.960000000000000187e-01 -1.389276440022513270e-04
3.970000000000000195e-01 -1.357203436782583594e-04
3.980000000000000204e-01 -1.326394994975998998e-04
3.990000000000000213e-01 -1.296785485465079546e-04
4.000000000000000222e-01 -1.268598716706037521e-04
4.010000000000000231e-01 -1.241415156982839108e-04
4.020000000000000240e-01 -1.215481679537333548e-04
4.030000000000000249e-01 -1.190927359857596457e-04
4.040000000000000258e-01 -1.167230220744386315e-04
4.050000000000000266e-01 -1.145048154285177588e-04
4.060000000000000275e-01 -1.124101108871400356e-04
4.069999999999999729e-01 -1.104222465073689818e-04
4.079999999999999738e-01 -1.086007832782343030e-04
4.089999999999999747e-01 -1.069055069820024073e-04
4.099999999999999756e-01 -1.053606829373165965e-04
4.109999999999999765e-01 -1.039784983731806278e-04
4.119999999999999774e-01 -1.027775142574682832e-04
4.129999999999999782e-01 -1.017524773487821221e-04
4.139999999999999791e-01 -1.009371044347062707e-04
4.149999999999999800e-01 -1.003755605779588223e-04
4.159999999999999809e-01 -1.000585543806664646e-04
4.169999999999999818e-01 -1.000653792289085686e-04
4.179999999999999827e-01 -1.004318037303164601e-04
4.189999999999999836e-01 -1.012213033391162753e-04
4.199999999999999845e-01 -1.024878074531443417e-04
4.209999999999999853e-01 -1.043414231389760971e-04
4.220000999999999891e-01 -1.068530254997313023e-04
4.229999999999999871e-01 -1.101199013646692038e-04
4.239999999999999880e-01 -1.142766996053978801e-04
4.249999999999999889e-01 -1.194487776956520975e-04
4.259999999999999898e-01 -1.257816475117579103e-04
4.269999999999999907e-01 -1.334433472948148847e-04
4.279999999999999916e-01 -1.426596572855487466e-04
4.289999999999999925e-01 -1.536276831757277250e-04
4.299999999999999933e-01 -1.666227908572182059e-04
4.309999999999999942e-01 -1.819375174818560481e-04
4.319999999999999951e-01 -1.999203668674454093e-04
4.329999999999999960e-01 -2.209099766332656145e-04
4.339999999999999969e-01 -2.453476772643625736e-04
4.349999999999999978e-01 -2.736799942795187235e-04
4.359999999999999987e-01 -3.064128395635634661e-04
4.369999999999999996e-01 -3.440825385041534901e-04
4.380000000000000004e-01 -3.873296373058110476e-04
4.390000000000000013e-01 -4.368061199784278870e-04
4.400000000000000022e-01 -4.932529991492629051e-04
4.410000000000000031e-01 -5.574688548222184181e-04
4.420000000000000040e-01 -6.303495611064136028e-04
4.430000000000000049e-01 -7.128150900825858116e-04
4.440000000000000058e-01 -8.058872190304100513e-04
4.450000000000000067e-01 -9.106441866606473923e-04
4.460000000000000075e-01 -1.028246595524251461e-03
4.470000000000000084e-01 -1.159883104264736176e-03
4.480000000000000093e-01 -1.306848600506782532e-03
4.490000000000000102e-01 -1.470481278374791145e-03
4.500000000000000111e-01 -1.652187434956431389e-03
4.510000000000000120e-01 -1.853395020589232445e-03
4.520000000000000129e-01 -2.075618598610162735e-03
4.530000000000000138e-01 -2.320367842912673950e-03
4.540000000000000147e-01 -2.589177107438445091e-03
4.550000000000000155e-01 -2.883558627218008041e-03
4.560000000000000164e-01 -3.205045359209179878e-03
4.570000000000000173e-01 -3.555088071152567863e-03
4.580000000000000182e-01 -3.935100976377725601e-03
4.590001000000000220e-01 -4.346403293311595917e-03
4.600000000000000200e-01 -4.790236242115497589e-03
4.610000000000000209e-01 -5.267665721476078033e-03
4.620000000000000218e-01 -5.779610481113195419e-03
4.630000000000000226e-01 -6.326776929199695587e-03
4.640000000000000235e-01 -6.909650750458240509e-03
4.650000000000000244e-01 -7.528416812419891357e-03
4.660000000000000253e-01 -8.182964287698268890e-03
4.670000000000000262e-01 -8.872849866747856140e-03
4.680000000000000271e-01 -9.597248397767543793e-03
4.689999999999999725e-01 -1.035491749644279480e-02
4.699999999999999734e-01 -1.114417705684900284e-02
4.709999999999999742e-01 -1.196288503706455231e-02
4.719999999999999751e-01 -1.280836574733257294e-02