-1.199999999999999956e-01 0.000000000000000000e+00
-1.189999999999999947e-01 0.000000000000000000e+00
-1.179999999999999938e-01 0.000000000000000000e+00
-1.170000000000000068e-01 0.000000000000000000e+00
-1.160000000000000059e-01 0.000000000000000000e+00
-1.150000000000000050e-01 0.000000000000000000e+00
-1.140000000000000041e-01 0.000000000000000000e+00
-1.130000000000000032e-01 0.000000000000000000e+00
-1.120000000000000023e-01 0.000000000000000000e+00
-1.110000000000000014e-01 0.000000000000000000e+00
-1.100000000000000006e-01 0.000000000000000000e+00
-1.089999999999999997e-01 0.000000000000000000e+00
-1.079999999999999988e-01 0.000000000000000000e+00
-1.069999999999999979e-01 0.000000000000000000e+00
-1.059999999999999970e-01 0.000000000000000000e+00
-1.049999999999999961e-01 0.000000000000000000e+00
-1.039999999999999952e-01 0.000000000000000000e+00
-1.029999999999999943e-01 0.000000000000000000e+00
-1.019999999999999934e-01 0.000000000000000000e+00
-1.010000000000000064e-01 0.000000000000000000e+00
-1.000000000000000056e-01 0.000000000000000000e+00
-9.900000999999999940e-02 0.000000000000000000e+00
-9.800000000000000377e-02 0.000000000000000000e+00
-9.700000000000000289e-02 0.000000000000000000e+00
-9.600000000000000200e-02 0.000000000000000000e+00
-9.500000999999999585e-02 0.000000000000000000e+00
-9.400000000000000022e-02 0.000000000000000000e+00
-9.299999999999999933e-02 0.000000000000000000e+00
-9.200000999999999318e-02 0.000000000000000000e+00
-9.100001000000000617e-02 0.000000000000000000e+00
-8.999999999999999667e-02 0.000000000000000000e+00
-8.899999999999999578e-02 0.000000000000000000e+00
-8.799999999999999489e-02 0.000000000000000000e+00
-8.699999999999999400e-02 0.000000000000000000e+00
-8.599999999999999312e-02 0.000000000000000000e+00
-8.500001000000000084e-02 0.000000000000000000e+00
-8.400000999999999995e-02 0.000000000000000000e+00
-8.300000000000000433e-02 0.000000000000000000e+00
-8.200000000000000344e-02 0.000000000000000000e+00
-8.100000000000000255e-02 0.000000000000000000e+00
-8.000000000000000167e-02 0.000000000000000000e+00
-7.900000000000000078e-02 0.000000000000000000e+00
-7.799999999999999989e-02 0.000000000000000000e+00
-7.700000999999999374e-02 0.000000000000000000e+00
-7.600001000000000673e-02 0.000000000000000000e+00
-7.499999999999999722e-02 0.000000000000000000e+00
-7.399999999999999634e-02 0.000000000000000000e+00
-7.299999999999999545e-02 0.000000000000000000e+00
-7.199999999999999456e-02 0.000000000000000000e+00
-7.099999999999999367e-02 0.000000000000000000e+00
-7.000001000000000140e-02 0.000000000000000000e+00
-6.900001000000000051e-02 0.000000000000000000e+00
-6.800000000000000488e-02 0.000000000000000000e+00
-6.700000000000000400e-02 0.000000000000000000e+00
-6.600000000000000311e-02 0.000000000000000000e+00
-6.500000000000000222e-02 0.000000000000000000e+00
-6.400000000000000133e-02 0.000000000000000000e+00
-6.300000000000000044e-02 0.000000000000000000e+00
-6.199999999999999956e-02 0.000000000000000000e+00
-6.099999999999999867e-02 0.000000000000000000e+00
-5.999999999999999778e-02 0.000000000000000000e+00
-5.899999999999999689e-02 0.000000000000000000e+00
-5.800000000000000294e-02 0.000000000000000000e+00
-5.700000000000000205e-02 0.000000000000000000e+00
-5.600000000000000117e-02 0.000000000000000000e+00
-5.500000000000000028e-02 0.000000000000000000e+00
-5.400001000000000106e-02 0.000000000000000000e+00
-5.299999999999999850e-02 0.000000000000000000e+00
-5.199999999999999761e-02 0.000000000000000000e+00
-5.099999999999999672e-02 0.000000000000000000e+00
-5.000000000000000278e-02 0.000000000000000000e+00
-4.900000000000000189e-02 0.000000000000000000e+00
-4.800000000000000100e-02 0.000000000000000000e+00
-4.700000000000000011e-02 0.000000000000000000e+00
-4.599999999999999922e-02 0.000000000000000000e+00
-4.499999999999999833e-02 0.000000000000000000e+00
-4.399999999999999745e-02 0.000000000000000000e+00
-4.299999999999999656e-02 1.401298464324817071e-45
-4.200000000000000261e-02 -3.908221417001914811e-42
-4.100000000000000172e-02 1.101203391697335871e-38
-4.000000000000000083e-02 -1.696752483522082878e-35
-3.899999999999999994e-02 1.328325661097271807e-32
-3.799999999999999906e-02 -4.580136379391391208e-30
-3.699999999999999817e-02 4.493696746488420217e-28
-3.599999999999999728e-02 2.536047756659997115e-26
-3.500000000000000333e-02 -3.845252685655179969e-25
-3.400000000000000244e-02 -8.144586842889646263e-23
-3.300000000000000155e-02 -4.421966190834270345e-21
-3.200000000000000067e-02 -1.574873562636713578e-19
-3.099999999999999978e-02 -3.882166650635415965e-18
-2.999999999999999889e-02 -5.196797932566858658e-17
-2.900000000000000147e-02 2.439858816929106871e-16
-2.800000000000000058e-02 2.305673657370093527e-14
-2.699999999999999969e-02 3.467944247742549280e-13
-2.599999999999999881e-02 1.335706610421094620e-12
-2.500000000000000139e-02 -1.256492045825785553e-11
-2.400000000000000050e-02 -1.047224112982192423e-10
-2.299999999999999961e-02 -2.579053116902318976e-11
-2.199999999999999872e-02 1.096257307153791771e-09
-2.100000000000000130e-02 1.022226525648761708e-09
-2.000000000000000042e-02 -1.913292191346727122e-09
-1.899999999999999953e-02 -1.181349879031401429e-10
-1.799999999999999864e-02 -8.993745748142600860e-10
-1.700000000000000122e-02 -5.733382102413031589e-10
-1.600000000000000033e-02 -5.045056039598705411e-10
-1.499999999999999944e-02 -1.569586682848012060e-10
-1.400000000000000029e-02 -4.309301526728148701e-10
-1.299999999999999940e-02 7.708317317778323741e-10
-1.200000000000000025e-02 -3.708223728082771231e-10
-1.099999999999999936e-02 1.334555577159335371e-09
-9.999997999999999526e-03 -1.505703617343812084e-10
-8.999995999999999691e-03 2.847270197392504087e-10
-8.000000999999999640e-03 -7.746890351434387867e-10
-6.999998999999999805e-03 -5.596281424380400438e-11
-5.999996999999999969e-03 5.278768533401034801e-09
-5.000003000000000260e-03 -7.040417138171051192e-09
-4.000001000000000424e-03 4.131466724288657133e-09
-2.999999000000000155e-03 -9.145055379633504344e-09
-1.999996999999999886e-03 9.004968326564721792e-09
-1.000002000000000052e-03 6.256542839366829867e-09
0.000000000000000000e+00 -3.524734282223107584e-08
1.000002000000000052e-03 -8.825922037658529007e-08
2.000004000000000105e-03 -1.421738176077269600e-07
2.999999000000000155e-03 -2.035076676065727952e-07
4.000001000000000424e-03 -2.765121394077141304e-07
4.999995000000000134e-03 -3.621121038577257423e-07
5.999996999999999969e-03 -4.664000812226731796e-07
6.999998999999999805e-03 -5.937682203693839256e-07
8.000000999999999640e-03 -7.471311391782364808e-07
9.000002999999999476e-03 -9.342481916974065825e-07
1.000001000000000015e-02 -1.161982368103053886e-06
1.100000999999999930e-02 -1.436650222785829101e-06
1.199999000000000031e-02 -1.769795176187471952e-06
1.299999999999999940e-02 -2.173084794776514173e-06
1.400000000000000029e-02 -2.657737923073000275e-06
1.499999999999999944e-02 -3.240777687096851878e-06
1.600000000000000033e-02 -3.941624981962377205e-06
1.700000000000000122e-02 -4.779852588399080560e-06
1.800001000000000032e-02 -5.780823357781628147e-06
1.900001000000000120e-02 -6.974646112212212756e-06
2.000000000000000042e-02 -8.393642929149791598e-06
2.100000000000000130e-02 -1.007724404189502820e-05
2.199999999999999872e-02 -1.207208879350218922e-05
2.299999999999999961e-02 -1.442858410882763565e-05
2.400000000000000050e-02 -1.720510772429406643e-05
2.500000999999999959e-02 -2.047086127276998013e-05
2.600001000000000048e-02 -2.430255335639230907e-05
2.699999999999999969e-02 -2.878655141103081405e-05
2.800000000000000058e-02 -3.402321817702613771e-05
2.900000000000000147e-02 -4.012502904515713453e-05
2.999999999999999889e-02 -4.721692312159575522e-05
3.099999999999999978e-02 -5.544107261812314391e-05
3.200001000000000234e-02 -6.495659181382507086e-05
3.300001000000000323e-02 -7.593855843879282475e-05
3.400000999999999718e-02 -8.858254295773804188e-05
3.500000000000000333e-02 -1.031065039569512010e-04
3.599999999999999728e-02 -1.197493838844820857e-04
3.699999999999999817e-02 -1.387739175697788596e-04
3.799999999999999906e-02 -1.604691642569378018e-04
3.899999999999999994e-02 -1.851489068940281868e-04
4.000001000000000251e-02 -2.131525689037516713e-04
4.100001000000000340e-02 -2.448501181788742542e-04
4.200000000000000261e-02 -2.806410193443298340e-04
4.299999999999999656e-02 -3.209512797184288502e-04
4.399999999999999745e-02 -3.662352391984313726e-04
4.499999999999999833e-02 -4.169771273154765368e-04
4.599999999999999922e-02 -4.736883565783500671e-04
4.700001000000000179e-02 -5.369064165279269218e-04
4.800001000000000267e-02 -6.071935640648007393e-04
4.900000999999999662e-02 -6.851326907053589821e-04
5.000000000000000278e-02 -7.713242666795849800e-04
5.099999999999999672e-02 -8.663852349855005741e-04
5.199999999999999761e-02 -9.709420264698565006e-04
5.299999999999999850e-02 -1.085623516701161861e-03
5.400001000000000106e-02 -1.211055554449558258e-03
5.500001000000000195e-02 -1.347857294604182243e-03
5.600001000000000284e-02 -1.496629090979695320e-03
5.700000000000000205e-02 -1.657942659221589565e-03
5.800000000000000294e-02 -1.832332927733659744e-03
5.899999999999999689e-02 -2.020289422944188118e-03
5.999999999999999778e-02 -2.222241600975394249e-03
6.099999999999999867e-02 -2.438547089695930481e-03
6.200001000000000123e-02 -2.669481094926595688e-03
6.300000999999999518e-02 -2.915218938142061234e-03
6.400000999999999607e-02 -3.175827907398343086e-03
6.500000000000000222e-02 -3.451250027865171432e-03
6.600000000000000311e-02 -3.741290653124451637e-03
6.700000000000000400e-02 -4.045602399855852127e-03
6.800000000000000488e-02 -4.363673739135265350e-03
6.900001000000000051e-02 -4.694819450378417969e-03
7.000001000000000140e-02 -5.038165487349033356e-03
7.100001000000000229e-02 -5.392642691731452942e-03
7.199999999999999456e-02 -5.756973754614591599e-03
7.299999999999999545e-02 -6.129682529717683792e-03
7.399999999999999634e-02 -6.509048398584127426e-03
7.499999999999999722e-02 -6.893186829984188080e-03
7.600001000000000673e-02 -7.279918063431978226e-03
7.700000999999999374e-02 -7.666959427297115326e-03
7.800000999999999463e-02 -8.051697164773941040e-03
7.900000999999999551e-02 -8.431435562670230865e-03
8.000000000000000167e-02 -8.803238160908222198e-03
8.100000000000000255e-02 -9.164003655314445496e-03
8.200000000000000344e-02 -9.510530158877372742e-03
8.300000000000000433e-02 -9.839454665780067444e-03
8.400000999999999995e-02 -1.014733500778675079e-02
8.500001000000000084e-02 -1.043069455772638321e-02
8.600001000000000173e-02 -1.068600080907344818e-02
8.700001000000000262e-02 -1.090973801910877228e-02
8.799999999999999489e-02 -1.109845750033855438e-02
8.899999999999999578e-02 -1.124878972768783569e-02
8.999999999999999667e-02 -1.135748997330665588e-02
9.100001000000000617e-02 -1.142151840031147003e-02
9.200000999999999318e-02 -1.143804471939802170e-02
9.300000999999999407e-02 -1.140448730438947678e-02
9.400000999999999496e-02 -1.131859514862298965e-02
9.500000000000000111e-02 -1.117847580462694168e-02
9.600000000000000200e-02 -1.098258979618549347e-02
9.700000000000000289e-02 -1.072982512414455414e-02
9.800000000000000377e-02 -1.041954476386308670e-02
9.900000999999999940e-02 -1.005156803876161575e-02
1.000000000000000056e-01 -9.626192040741443634e-03
1.010000000000000064e-01 -9.144248440861701965e-03
1.019999999999999934e-01 -8.607104420661926270e-03
1.029999999999999943e-01 -8.016640320420265198e-03
1.039999999999999952e-01 -7.375244982540607452e-03
1.049999999999999961e-01 -6.685846019536256790e-03
1.059999999999999970e-01 -5.951882805675268173e-03
1.069999999999999979e-01 -5.177242215722799301e-03
1.079999999999999988e-01 -4.366232547909021378e-03
1.089999999999999997e-01 -3.523585386574268341e-03
1.100000000000000006e-01 -2.654384821653366089e-03
1.110000000000000014e-01 -1.763993059284985065e-03
1.120000000000000023e-01 -8.580326102674007416e-04
1.130000000000000032e-01 5.766856702393852174e-05
1.140000000000000041e-01 9.771739132702350616e-04
1.150000000000000050e-01 1.894491259008646011e-03
1.160000000000000059e-01 2.803619252517819405e-03
1.170000000000000068e-01 3.698645625263452530e-03
1.179999999999999938e-01 4.573825746774673462e-03
1.189999999999999947e-01 5.423629656434059143e-03
1.199999999999999956e-01 6.242807488888502121e-03
1.209999999999999964e-01 7.026458159089088440e-03
1.219999999999999973e-01 7.770091760903596878e-03
1.229999999999999982e-01 8.469678461551666260e-03
1.239999999999999991e-01 9.121684357523918152e-03
1.250000000000000000e-01 9.723126888275146484e-03
1.260000000000000009e-01 1.027163676917552948e-02
1.270000000000000018e-01 1.076545938849449158e-02
1.280000000000000027e-01 1.120346132665872574e-02
1.290000000000000036e-01 1.158516667783260345e-02
1.300000000000000044e-01 1.191075518727302551e-02
1.310000000000000053e-01 1.218104083091020584e-02
1.320000000000000062e-01 1.239747088402509689e-02
1.330000000000000071e-01 1.256211288273334503e-02
1.340000000000000080e-01 1.267763040959835052e-02
1.350000000000000089e-01 1.274724211543798447e-02
1.360000000000000098e-01 1.277466304600238800e-02
1.370000000000000107e-01 1.276407297700643539e-02
1.380000000000000115e-01 1.272006332874298096e-02
1.390000000000000124e-01 1.264757197350263596e-02
1.400000000000000133e-01 1.255181245505809784e-02
1.409999999999999865e-01 1.243822928518056870e-02
1.419999999999999873e-01 1.231243181973695755e-02
1.429999999999999882e-01 1.218011230230331421e-02
1.439999999999999891e-01 1.204696577042341232e-02
1.449999999999999900e-01 1.191862579435110092e-02
1.459999999999999909e-01 1.180060207843780518e-02
1.469999999999999918e-01 1.169820688664913177e-02
1.479999999999999927e-01 1.161647960543632507e-02
1.489999999999999936e-01 1.156013179570436478e-02
1.499999999999999944e-01 1.153349876403808594e-02
1.509999999999999953e-01 1.154046040028333664e-02
1.519999999999999962e-01 1.158437691628932953e-02
1.529999999999999971e-01 1.166805438697338104e-02
1.539999999999999980e-01 1.179370749741792679e-02
1.549999999999999989e-01 1.196290925145149231e-02
1.559999999999999998e-01 1.217656210064888000e-02
1.570000000000000007e-01 1.243486907333135605e-02
1.580000000000000016e-01 1.273731980472803116e-02
1.590000000000000024e-01 1.308267656713724136e-02
1.600000000000000033e-01 1.346895191818475723e-02
1.610000000000000042e-01 1.389341056346893311e-02
1.620000000000000051e-01 1.435259729623794556e-02
1.630000000000000060e-01 1.484234444797039032e-02
1.640000000000000069e-01 1.535779237747192383e-02
1.650000000000000078e-01 1.589342020452022552e-02
1.660000000000000087e-01 1.644308492541313171e-02
1.670000000000000095e-01 1.700007542967796326e-02
1.680000000000000104e-01 1.755716465413570404e-02
1.690000000000000113e-01 1.810665242373943329e-02
1.700000000000000122e-01 1.864046230912208557e-02
1.710000000000000131e-01 1.915022358298301697e-02
1.719999999999999862e-01 1.962733641266822815e-02
1.729999999999999871e-01 2.006305940449237823e-02
1.739999999999999880e-01 2.044859714806079865e-02
1.749999999999999889e-01 2.077522315084934235e-02
1.759999999999999898e-01 2.103436924517154694e-02
1.769999999999999907e-01 2.121772617101669312e-02
1.779999999999999916e-01 2.131735533475875854e-02
1.789999999999999925e-01 2.132579870522022247e-02
1.799999999999999933e-01 2.123617567121982574e-02
1.809999999999999942e-01 2.104227803647518158e-02
1.819999999999999951e-01 2.073867246508598328e-02
1.829999999999999960e-01 2.032079733908176422e-02
1.839999999999999969e-01 1.978504844009876251e-02
1.849999999999999978e-01 1.912885718047618866e-02
1.859999999999999987e-01 1.835073716938495636e-02
1.869999999999999996e-01 1.745036058127880096e-02
1.880000000000000004e-01 1.642859168350696564e-02
1.890000000000000013e-01 1.528751198202371597e-02
1.900000000000000022e-01 1.403043884783983231e-02
1.910000000000000031e-01 1.266193203628063202e-02
1.920000000000000040e-01 1.118777785450220108e-02
1.930000000000000049e-01 9.614950977265834808e-03
1.940000000000000058e-01 7.951563224196434021e-03
1.950000000000000067e-01 6.206798832863569260e-03
1.960000000000000075e-01 4.390848800539970398e-03
1.970000000000000084e-01 2.514814026653766632e-03
1.980000000000000093e-01 5.906020523980259895e-04
1.990000000000000102e-01 -1.369200530461966991e-03
2.000000000000000111e-01 -3.351451829075813293e-03
2.010000000000000120e-01 -5.342590622603893280e-03
2.020000000000000129e-01 -7.328782696276903152e-03
2.030000000000000138e-01 -9.296080097556114197e-03
2.039999999999999869e-01 -1.123056095093488693e-02
2.049999999999999878e-01 -1.311847846955060959e-02
2.059999999999999887e-01 -1.494642440229654312e-02
2.069999999999999896e-01 -1.670148596167564392e-02
2.079999999999999905e-01 -1.837137341499328613e-02
2.089999999999999913e-01 -1.994457282125949860e-02
2.099999999999999922e-01 -2.141044661402702332e-02
2.109999999999999931e-01 -2.275936119258403778e-02
2.119999999999999940e-01 -2.398278936743736267e-02
2.129999999999999949e-01 -2.507338859140872955e-02
2.139999999999999958e-01 -2.602507360279560089e-02
2.149999999999999967e-01 -2.683307975530624390e-02
2.159999999999999976e-01 -2.749397978186607361e-02
2.169999999999999984e-01 -2.800571545958518982e-02
2.179999999999999993e-01 -2.836758270859718323e-02
2.190000000000000002e-01 -2.858022414147853851e-02
2.200000000000000011e-01 -2.864559926092624664e-02
2.210000000000000020e-01 -2.856693230569362640e-02
2.220000000000000029e-01 -2.834863960742950439e-02
2.230000000000000038e-01 -2.799625694751739502e-02
2.240000000000000047e-01 -2.751633524894714355e-02
2.250000000000000056e-01 -2.691636048257350922e-02
2.260000000000000064e-01 -2.620462886989116669e-02
2.270000000000000073e-01 -2.539013884961605072e-02
2.280000000000000082e-01 -2.448246255517005920e-02
2.290000000000000091e-01 -2.349163033068180084e-02
2.300000000000000100e-01 -2.242799662053585052e-02
2.310000000000000109e-01 -2.130210958421230316e-02
2.320000000000000118e-01 -2.012460120022296906e-02
2.330000000000000127e-01 -1.890606246888637543e-02
2.340000000000000135e-01 -1.765694841742515564e-02
2.349999999999999867e-01 -1.638745330274105072e-02
2.359999999999999876e-01 -1.510741561651229858e-02
2.369999999999999885e-01 -1.382623985409736633e-02
2.379999999999999893e-01 -1.255281455814838409e-02
2.389999999999999902e-01 -1.129544991999864578e-02
2.399999999999999911e-01 -1.006182190030813217e-02
2.409999999999999920e-01 -8.858927525579929352e-03
2.419999999999999929e-01 -7.693055085837841034e-03
2.429999999999999938e-01 -6.569755263626575470e-03
2.439999999999999947e-01 -5.493833683431148529e-03
2.449999999999999956e-01 -4.469349514693021774e-03
2.459999999999999964e-01 -3.499624785035848618e-03
2.469999999999999973e-01 -2.587269293144345284e-03
2.479999999999999982e-01 -1.734197139739990234e-03
2.489999999999999991e-01 -9.416543180122971535e-04
2.500000000000000000e-01 -2.102563594235107303e-04
2.510000000000000009e-01 4.599632811732590199e-04
2.520000000000000018e-01 1.069501624442636967e-03
2.530000000000000027e-01 1.619344344362616539e-03
2.540000000000000036e-01 2.110914560034871101e-03
2.550000000000000044e-01 2.546020084992051125e-03
2.560000000000000053e-01 2.926800400018692017e-03
2.570000000000000062e-01 3.255673917010426521e-03
2.580000000000000071e-01 3.535290481522679329e-03
2.590000000000000080e-01 3.768474096432328224e-03
2.600000000000000089e-01 3.958179149776697159e-03
2.610000000000000098e-01 4.107446875423192978e-03
2.620000000000000107e-01 4.219371359795331955e-03
2.630000000000000115e-01 4.297059495002031326e-03
2.640000000000000124e-01 4.343593493103981018e-03
2.650000000000000133e-01 4.361995961517095566e-03
2.660000000000000142e-01 4.355210810899734497e-03
2.670000000000000151e-01 4.326081369072198868e-03
2.680000000000000160e-01 4.277332220226526260e-03
2.690000000000000169e-01 4.211552441120147705e-03
2.700000000000000178e-01 4.131181631237268448e-03
2.710000000000000187e-01 4.038504324853420258e-03
2.720000000000000195e-01 3.935641143471002579e-03
2.730000000000000204e-01 3.824546001851558685e-03
2.740000000000000213e-01 3.707005409523844719e-03
2.750000000000000222e-01 3.584645921364426613e-03
2.760000000000000231e-01 3.458936000242829323e-03
2.770000000000000240e-01 3.331186482682824135e-03
2.780000000000000249e-01 3.202552208676934242e-03
2.790000000000000258e-01 3.074041334912180901e-03
2.800000000000000266e-01 2.946534194052219391e-03
2.810000000000000275e-01 2.820787485688924789e-03
2.819999999999999729e-01 2.697439631447196007e-03
2.829999999999999738e-01 2.577019156888127327e-03
2.839999999999999747e-01 2.459951676428318024e-03
2.849999999999999756e-01 2.346577122807502747e-03
2.859999999999999765e-01 2.237154869362711906e-03
2.869999999999999774e-01 2.131873043254017830e-03
2.879999999999999782e-01 2.030856208875775337e-03
2.889999999999999791e-01 1.934174797497689724e-03
2.899999999999999800e-01 1.841853023506700993e-03
2.909999999999999809e-01 1.753869117237627506e-03
2.919999999999999818e-01 1.670164987444877625e-03
2.929999999999999827e-01 1.590656465850770473e-03
2.939999999999999836e-01 1.515240641310811043e-03
2.949999999999999845e-01 1.443796674720942974e-03
2.959999999999999853e-01 1.376185216940939426e-03
2.969999999999999862e-01 1.312251319177448750e-03
2.979999999999999871e-01 1.251834211871027946e-03
2.989999999999999880e-01 1.194774173200130463e-03
2.999999999999999889e-01 1.140910550020635128e-03
3.009999999999999898e-01 1.090080128051340580e-03
3.019999999999999907e-01 1.042117481119930744e-03
3.029999999999999916e-01 9.968627709895372391e-04
3.039999999999999925e-01 9.541601757518947124e-04
3.049999999999999933e-01 9.138584719039499760e-04
3.059999999999999942e-01 8.758133626542985439e-04
3.069999999999999951e-01 8.398871286772191525e-04
3.079999999999999960e-01 8.059517713263630867e-04
3.089999999999999969e-01 7.738792337477207184e-04
3.099999999999999978e-01 7.435493753291666508e-04
3.109999999999999987e-01 7.148477016016840935e-04
3.119999999999999996e-01 6.876715924590826035e-04
3.130000000000000004e-01 6.619263440370559692e-04
3.140000000000000013e-01 6.375210359692573547e-04
3.150000000000000022e-01 6.143668433651328087e-04
3.160000000000000031e-01 5.923787248320877552e-04
3.170000000000000040e-01 5.714838625863194466e-04
3.180000000000000049e-01 5.516147357411682606e-04
3.190000000000000058e-01 5.327081307768821716e-04
3.200000000000000067e-01 5.147039191797375679e-04
3.210000000000000075e-01 4.975449410267174244e-04
3.220000000000000084e-01 4.811786639038473368e-04
3.230000000000000093e-01 4.655560187529772520e-04
3.240000000000000102e-01 4.506315453909337521e-04
3.250000000000000111e-01 4.363660991657525301e-04
3.260000000000000120e-01 4.227248136885464191e-04
3.270000000000000129e-01 4.096702905371785164e-04
3.280000000000000138e-01 3.971668193116784096e-04
3.290000000000000147e-01 3.851806686725467443e-04
3.300000000000000155e-01 3.736850630957633257e-04
3.310000000000000164e-01 3.626557590905576944e-04
3.320000000000000173e-01 3.520708414725959301e-04
3.330000000000000182e-01 3.419049317017197609e-04
3.340000000000000191e-01 3.321328258607536554e-04
3.350000000000000200e-01 3.227329289074987173e-04
3.360000000000000209e-01 3.136899322271347046e-04
3.370000000000000218e-01 3.049870720133185387e-04
3.380000000000000226e-01 2.966078463941812515e-04
3.390000000000000235e-01 2.885360736399888992e-04
3.400000000000000244e-01 2.807562414091080427e-04
3.410000000000000253e-01 2.732538268901407719e-04
3.420000000000000262e-01 2.660159079823642969e-04
3.430000000000000271e-01 2.590304065961390734e-04
3.439999999999999725e-01 2.522884169593453407e-04
3.449999999999999734e-01 2.457805676385760307e-04
3.459999999999999742e-01 2.394944895058870316e-04
3.469999999999999751e-01 2.334170421818271279e-04
3.479999999999999760e-01 2.275386505061760545e-04
3.489999999999999769e-01 2.218549925601109862e-04
3.499999999999999778e-01 2.163605677196756005e-04
3.509999999999999787e-01 2.110461209667846560e-04
3.519999999999999796e-01 2.059005346382036805e-04
3.529999999999999805e-01 2.009158779401332140e-04
3.539999999999999813e-01 1.960870722541585565e-04
3.549999999999999822e-01 1.914108579512685537e-04
3.559999999999999831e-01 1.868821127573028207e-04
3.569999999999999840e-01 1.824929204303771257e-04
3.579999999999999849e-01 1.782362669473513961e-04
3.589999999999999858e-01 1.741067680995911360e-04
3.599999999999999867e-01 1.701008295640349388e-04
3.609999999999999876e-01 1.662144786678254604e-04
3.619999999999999885e-01 1.624436554266139865e-04
3.629999999999999893e-01 1.587844308232888579e-04
3.639999999999999902e-01 1.552327157696709037e-04
3.649999999999999911e-01 1.517818309366703033e-04
3.659999999999999920e-01 1.484276872361078858e-04
3.669999999999999929e-01 1.451686694053933024e-04
3.679999999999999938e-01 1.420039916411042213e-04
3.689999999999999947e-01 1.389306271448731422e-04
3.699999999999999956e-01 1.359424059046432376e-04
3.709999999999999964e-01 1.330337690887972713e-04
3.719999999999999973e-01 1.302023447351530194e-04
3.729999999999999982e-01 1.274499227292835712e-04
3.739999999999999991e-01 1.247750769834965467e-04
3.750000000000000000e-01 1.221733546117320657e-04
3.760000000000000009e-01 1.196393277496099472e-04
3.770000000000000018e-01 1.171704352600499988e-04
3.780000000000000027e-01 1.147662842413410544e-04
3.790000000000000036e-01 1.124267146224156022e-04
3.800000000000000044e-01 1.101486850529909134e-04
3.810000000000000053e-01 1.079305147868581116e-04
3.820000000000000062e-01 1.057691115420311689e-04
3.830000000000000071e-01 1.036616522469557822e-04
3.840000000000000080e-01 1.016061651171185076e-04
3.850000000000000089e-01 9.960273746401071548e-05
3.860000000000000098e-01 9.765120921656489372e-05
3.870000000000000107e-01 9.575027797836810350e-05
3.880000000000000115e-01 9.389677870785817504e-05
3.890000000000000124e-01 9.208633855450898409e-05
3.900000000000000133e-01 9.031780064105987549e-05
3.910000000000000142e-01 8.859321678755804896e-05
3.920000000000000151e-01 8.691364928381517529e-05
3.930000000000000160e-01 8.527601312380284071e-05
3.940000000000000169e-01 8.367557165911421180e-05
3.950000000000000178e-01 8.211105887312442064e-05
3.960000000000000187e-01 8.058339881245046854e-05
3.970000000000000195e-01 7.909264240879565477e-05
3.980000000000000204e-01 7.763905159663408995e-05
3.990000000000000213e-01 7.621911936439573765e-05
4.000000000000000222e-01 7.483168155886232853e-05
4.010000000000000231e-01 7.347483915509656072e-05
4.020000000000000240e-01 7.214797369670122862e-05
4.030000000000000249e-01 7.085224206093698740e-05
4.040000000000000258e-01 6.958720769034698606e-05
4.050000000000000266e-01 6.835164822405204177e-05
4.060000000000000275e-01 6.714376650052145123e-05
4.069999999999999729e-01 6.596113962586969137e-05
4.079999999999999738e-01 6.480305455625057220e-05
4.089999999999999747e-01 6.367101741489022970e-05
4.099999999999999756e-01 6.256654160097241402e-05
4.109999999999999765e-01 6.148795364424586296e-05
4.119999999999999774e-01 6.043152825441211462e-05
4.129999999999999782e-01 5.939490438322536647e-05
4.139999999999999791e-01 5.837958451593294740e-05
4.149999999999999800e-01 5.738876279792748392e-05
4.159999999999999809e-01 5.642136602546088398e-05
4.169999999999999818e-01 5.547457112697884440e-05
4.179999999999999827e-01 5.454558049677871168e-05
4.189999999999999836e-01 5.363452510209754109e-05
4.199999999999999845e-01 5.274332215776666999e-05
4.209999999999999853e-01 5.187217539059929550e-05
4.220000999999999891e-01 5.101945498608984053e-05
4.229999999999999871e-01 5.018452429794706404e-05
4.239999999999999880e-01 4.936650293529964983e-05
4.249999999999999889e-01 4.856415034737437963e-05
4.259999999999999898e-01 4.777746653417125344e-05
4.269999999999999907e-01 4.700714271166361868e-05
4.279999999999999916e-01 4.625398287316784263e-05
4.289999999999999925e-01 4.551697929855436087e-05
4.299999999999999933e-01 4.479394920053891838e-05
4.309999999999999942e-01 4.408342647366225719e-05
4.319999999999999951e-01 4.338539656600914896e-05
4.329999999999999960e-01 4.270310455467551947e-05
4.339999999999999969e-01 4.203708158456720412e-05
4.349999999999999978e-01 4.138470831094309688e-05
4.359999999999999987e-01 4.074176467838697135e-05
4.369999999999999996e-01 4.010968768852762878e-05
4.380000000000000004e-01 3.949023448512889445e-05
4.390000000000000013e-01 3.888514038408175111e-05
4.400000000000000022e-01 3.829330307780764997e-05
4.410000000000000031e-01 3.771150659304112196e-05
4.420000000000000040e-01 3.713874320965260267e-05
4.430000000000000049e-01 3.657583874883130193e-05
4.440000000000000058e-01 3.602520882850512862e-05
4.450000000000000067e-01 3.548628956195898354e-05
4.460000000000000075e-01 3.495756755000911653e-05
4.470000000000000084e-01 3.443792957114055753e-05
4.480000000000000093e-01 3.392733560758642852e-05
4.490000000000000102e-01 3.342573108966462314e-05
4.500000000000000111e-01 3.293272675364278257e-05
4.510000000000000120e-01 3.244989056838676333e-05
4.520000000000000129e-01 3.197769547114148736e-05
4.530000000000000138e-01 3.151384589727967978e-05
4.540000000000000147e-01 3.105717769358307123e-05
4.550000000000000155e-01 3.060689778067171574e-05
4.560000000000000164e-01 3.016483424289617687e-05
4.570000000000000173e-01 2.973255323013290763e-05
4.580000000000000182e-01 2.931010931206401438e-05
4.590001000000000220e-01 2.889476672862656415e-05
4.600000000000000200e-01 2.848363874363712966e-05
4.610000000000000209e-01 2.807837154250591993e-05
4.620000000000000218e-01 2.768240847217384726e-05
4.630000000000000226e-01 2.729583320615347475e-05
4.640000000000000235e-01 2.691617009986657649e-05
4.650000000000000244e-01 2.654088166309520602e-05
4.660000000000000253e-01 2.617054633446969092e-05
4.670000000000000262e-01 2.580721047706902027e-05
4.680000000000000271e-01 2.545146890042815357e-05
4.689999999999999725e-01 2.510275407985318452e-05
4.699999999999999734e-01 2.475998007867019624e-05
4.709999999999999742e-01 2.442203731334302574e-05
4.719999999999999751e-01 2.408895852568093687e-05