-1.199999999999999956e-01 0.000000000000000000e+00
-1.189999999999999947e-01 0.000000000000000000e+00
-1.179999999999999938e-01 0.000000000000000000e+00
-1.170000000000000068e-01 0.000000000000000000e+00
-1.160000000000000059e-01 0.000000000000000000e+00
-1.150000000000000050e-01 0.000000000000000000e+00
-1.140000000000000041e-01 0.000000000000000000e+00
-1.130000000000000032e-01 0.000000000000000000e+00
-1.120000000000000023e-01 0.000000000000000000e+00
-1.110000000000000014e-01 0.000000000000000000e+00
-1.100000000000000006e-01 0.000000000000000000e+00
-1.089999999999999997e-01 0.000000000000000000e+00
-1.079999999999999988e-01 0.000000000000000000e+00
-1.069999999999999979e-01 0.000000000000000000e+00
-1.059999999999999970e-01 0.000000000000000000e+00
-1.049999999999999961e-01 0.000000000000000000e+00
-1.039999999999999952e-01 0.000000000000000000e+00
-1.029999999999999943e-01 0.000000000000000000e+00
-1.019999999999999934e-01 0.000000000000000000e+00
-1.010000000000000064e-01 0.000000000000000000e+00
-1.000000000000000056e-01 0.000000000000000000e+00
-9.900000999999999940e-02 0.000000000000000000e+00
-9.800000000000000377e-02 0.000000000000000000e+00
-9.700000000000000289e-02 0.000000000000000000e+00
-9.600000000000000200e-02 0.000000000000000000e+00
-9.500000999999999585e-02 0.000000000000000000e+00
-9.400000000000000022e-02 0.000000000000000000e+00
-9.299999999999999933e-02 0.000000000000000000e+00
-9.200000999999999318e-02 0.000000000000000000e+00
-9.100001000000000617e-02 0.000000000000000000e+00
-8.999999999999999667e-02 0.000000000000000000e+00
-8.899999999999999578e-02 0.000000000000000000e+00
-8.799999999999999489e-02 0.000000000000000000e+00
-8.699999999999999400e-02 0.000000000000000000e+00
-8.599999999999999312e-02 0.000000000000000000e+00
-8.500001000000000084e-02 0.000000000000000000e+00
-8.400000999999999995e-02 0.000000000000000000e+00
-8.300000000000000433e-02 0.000000000000000000e+00
-8.200000000000000344e-02 0.000000000000000000e+00
-8.100000000000000255e-02 0.000000000000000000e+00
-8.000000000000000167e-02 0.000000000000000000e+00
-7.900000000000000078e-02 0.000000000000000000e+00
-7.799999999999999989e-02 0.000000000000000000e+00
-7.700000999999999374e-02 0.000000000000000000e+00
-7.600001000000000673e-02 0.000000000000000000e+00
-7.499999999999999722e-02 0.000000000000000000e+00
-7.399999999999999634e-02 0.000000000000000000e+00
-7.299999999999999545e-02 0.000000000000000000e+00
-7.199999999999999456e-02 0.000000000000000000e+00
-7.099999999999999367e-02 0.000000000000000000e+00
-7.000001000000000140e-02 0.000000000000000000e+00
-6.900001000000000051e-02 0.000000000000000000e+00
-6.800000000000000488e-02 0.000000000000000000e+00
-6.700000000000000400e-02 0.000000000000000000e+00
-6.600000000000000311e-02 0.000000000000000000e+00
-6.500000000000000222e-02 0.000000000000000000e+00
-6.400000000000000133e-02 0.000000000000000000e+00
-6.300000000000000044e-02 0.000000000000000000e+00
-6.199999999999999956e-02 0.000000000000000000e+00
-6.099999999999999867e-02 0.000000000000000000e+00
-5.999999999999999778e-02 0.000000000000000000e+00
-5.899999999999999689e-02 0.000000000000000000e+00
-5.800000000000000294e-02 -1.121038771459853657e-44
-5.700000000000000205e-02 6.691760686536731440e-41
-5.600000000000000117e-02 -2.313906084331208809e-37
-5.500000000000000028e-02 4.126763018038687339e-34
-5.400001000000000106e-02 -3.598925477923857801e-31
-5.299999999999999850e-02 1.386928236424465325e-28
-5.199999999999999761e-02 -1.827085364814251972e-26
-5.099999999999999672e-02 -3.486807109312462046e-26
-5.000000000000000278e-02 4.108487621953811507e-23
-4.900000000000000189e-02 1.831717957284087671e-21
-4.800000000000000100e-02 4.791160324230128039e-20
-4.700000000000000011e-02 1.019345008606752917e-18
-4.599999999999999922e-02 2.058991014679027260e-17
-4.499999999999999833e-02 3.854652919469840405e-16
-4.399999999999999745e-02 5.859646027130214346e-15
-4.299999999999999656e-02 6.373221584808283491e-14
-4.200000000000000261e-02 4.342701057698933331e-13
-4.100000000000000172e-02 1.262058057886761286e-12
-4.000000000000000083e-02 -5.319111037044299550e-12
-3.899999999999999994e-02 -6.662655149813900834e-11
-3.799999999999999906e-02 -2.634274465229680118e-10
-3.699999999999999817e-02 -3.999011677358055294e-10
-3.599999999999999728e-02 3.263381509466256603e-10
-3.500000000000000333e-02 1.877402455718879537e-09
-3.400000000000000244e-02 1.785402381493383928e-09
-3.300000000000000155e-02 1.192881037004323019e-11
-3.200000000000000067e-02 6.620404779944522033e-10
-3.099999999999999978e-02 1.247695946560156699e-09
-2.999999999999999889e-02 -5.370052180708739797e-10
-2.900000000000000147e-02 2.679615973555371511e-10
-2.800000000000000058e-02 -4.021097899098435846e-10
-2.699999999999999969e-02 -9.768399422682705335e-10
-2.599999999999999881e-02 1.526356679937279637e-10
-2.500000000000000139e-02 -6.738379854098752730e-10
-2.400000000000000050e-02 9.743515994031781702e-10
-2.299999999999999961e-02 8.651076383037192841e-11
-2.199999999999999872e-02 8.456165212500366124e-10
-2.100000000000000130e-02 -3.210759713656585745e-10
-2.000000000000000042e-02 -2.179020436310352693e-10
-1.899999999999999953e-02 -9.629710362446530780e-10
-1.799999999999999864e-02 -6.665574758812908840e-10
-1.700000000000000122e-02 -9.543057455374537312e-10
-1.600000000000000033e-02 -4.812747977922526843e-10
-1.499999999999999944e-02 -6.036114941210257712e-10
-1.400000000000000029e-02 6.538507235642754267e-11
-1.299999999999999940e-02 -3.951814708802459108e-10
-1.200000000000000025e-02 6.218548679465252249e-12
-1.099999999999999936e-02 -6.257442897172893481e-10
-9.999997999999999526e-03 4.252267149507105160e-10
-8.999995999999999691e-03 -5.900830379879096199e-10
-8.000000999999999640e-03 -6.879700698014801219e-10
-6.999998999999999805e-03 -1.147265282774867501e-09
-5.999996999999999969e-03 1.330690113654497964e-09
-5.000003000000000260e-03 7.260427259403456901e-10
-4.000001000000000424e-03 -1.302368990430124995e-09
-2.999999000000000155e-03 -6.833886234680619509e-10
-1.999996999999999886e-03 1.857472509136925964e-09
-1.000002000000000052e-03 5.391006308030910077e-09
0.000000000000000000e+00 2.354164507778477855e-08
1.000002000000000052e-03 7.661387257940077689e-08
2.000004000000000105e-03 1.480024280908764922e-07
2.999999000000000155e-03 2.079358125683938852e-07
4.000001000000000424e-03 2.724024170674965717e-07
4.999995000000000134e-03 3.691676226935669547e-07
5.999996999999999969e-03 4.657576084809988970e-07
6.999998999999999805e-03 5.921631327510112897e-07
8.000000999999999640e-03 7.508345447604369838e-07
9.000002999999999476e-03 9.358464012620970607e-07
1.000001000000000015e-02 1.169804022538301069e-06
1.100000999999999930e-02 1.439521042811975349e-06
1.199999000000000031e-02 1.773015469552774448e-06
1.299999999999999940e-02 2.178904651373159140e-06
1.400000000000000029e-02 2.666321734068333171e-06
1.499999999999999944e-02 3.251976295359781943e-06
1.600000000000000033e-02 3.949283382098656148e-06
1.700000000000000122e-02 4.790817911271005869e-06
1.800001000000000032e-02 5.792066076537594199e-06
1.900001000000000120e-02 6.990437213971745223e-06
2.000000000000000042e-02 8.413618161284830421e-06
2.100000000000000130e-02 1.009534025797620416e-05
2.199999999999999872e-02 1.209370384458452463e-05
2.299999999999999961e-02 1.445554971724050120e-05
2.400000000000000050e-02 1.723477544146589935e-05
2.500000999999999959e-02 2.050614966719876975e-05
2.600001000000000048e-02 2.434193447697907686e-05
2.699999999999999969e-02 2.882719672925304621e-05
2.800000000000000058e-02 3.407150143175385892e-05
2.900000000000000147e-02 4.018330218968912959e-05
2.999999999999999889e-02 4.727985651697963476e-05
3.099999999999999978e-02 5.550854621105827391e-05
3.200001000000000234e-02 6.503203621832653880e-05
3.300001000000000323e-02 7.602357800351455808e-05
3.400000999999999718e-02 8.867733413353562355e-05
3.500000000000000333e-02 1.032102518365718424e-04
3.599999999999999728e-02 1.198625977849587798e-04
3.699999999999999817e-02 1.388975506415590644e-04
3.799999999999999906e-02 1.606036094017326832e-04
3.899999999999999994e-02 1.852952555054798722e-04
4.000001000000000251e-02 2.133108064299449325e-04
4.100001000000000340e-02 2.450193860568106174e-04
4.200000000000000261e-02 2.808217250276356936e-04
4.299999999999999656e-02 3.211435687262564898e-04
4.399999999999999745e-02 3.664393443614244461e-04
4.499999999999999833e-02 4.171928740106523037e-04
4.599999999999999922e-02 4.739134747069329023e-04
4.700001000000000179e-02 5.371396546252071857e-04
4.800001000000000267e-02 6.074351840652525425e-04
4.900000999999999662e-02 6.853813538327813148e-04
5.000000000000000278e-02 7.715789251960813999e-04
5.099999999999999672e-02 8.666414069011807442e-04
5.199999999999999761e-02 9.711954044178128242e-04
5.299999999999999850e-02 1.085876952856779099e-03
5.400001000000000106e-02 1.211300375871360302e-03
5.500001000000000195e-02 1.348095014691352844e-03
5.600001000000000284e-02 1.496853423304855824e-03
5.700000000000000205e-02 1.658141496591269970e-03
5.800000000000000294e-02 1.832520822063088417e-03
5.899999999999999689e-02 2.020443323999643326e-03
5.999999999999999778e-02 2.222361043095588684e-03
6.099999999999999867e-02 2.438632771372795105e-03
6.200001000000000123e-02 2.669520443305373192e-03
6.300000999999999518e-02 2.915207063779234886e-03
6.400000999999999607e-02 3.175769234076142311e-03
6.500000000000000222e-02 3.451128490269184113e-03
6.600000000000000311e-02 3.741099266335368156e-03
6.700000000000000400e-02 4.045344423502683640e-03
6.800000000000000488e-02 4.363344516605138779e-03
6.900001000000000051e-02 4.694405477494001389e-03
7.000001000000000140e-02 5.037671420723199844e-03
7.100001000000000229e-02 5.392066203057765961e-03
7.199999999999999456e-02 5.756309255957603455e-03
7.299999999999999545e-02 6.128922104835510254e-03
7.399999999999999634e-02 6.508214399218559265e-03
7.499999999999999722e-02 6.892253644764423370e-03
7.600001000000000673e-02 7.278911303728818893e-03
7.700000999999999374e-02 7.665857672691345215e-03
7.800000999999999463e-02 8.050540462136268616e-03
7.900000999999999551e-02 8.430206216871738434e-03
8.000000000000000167e-02 8.801941759884357452e-03
8.100000000000000255e-02 9.162671864032745361e-03
8.200000000000000344e-02 9.509159252047538757e-03
8.300000000000000433e-02 9.838057681918144226e-03
8.400000999999999995e-02 1.014593895524740219e-02
8.500001000000000084e-02 1.042930874973535538e-02
8.600001000000000173e-02 1.068463828414678574e-02
8.700001000000000262e-02 1.090841367840766907e-02
8.799999999999999489e-02 1.109718531370162964e-02
8.899999999999999578e-02 1.124758366495370865e-02
8.999999999999999667e-02 1.135636679828166962e-02
9.100001000000000617e-02 1.142048649489879608e-02
9.200000999999999318e-02 1.143712643533945084e-02
9.300000999999999407e-02 1.140372082591056824e-02
9.400000999999999496e-02 1.131800469011068344e-02
9.500000000000000111e-02 1.117807440459728241e-02
9.600000000000000200e-02 1.098241005092859268e-02
9.700000000000000289e-02 1.072989031672477722e-02
9.800000000000000377e-02 1.041984651237726212e-02
9.900000999999999940e-02 1.005209330469369888e-02
1.000000000000000056e-01 9.626949205994606018e-03
1.010000000000000064e-01 9.145243093371391296e-03
1.019999999999999934e-01 8.608327247202396393e-03
1.029999999999999943e-01 8.018095977604389191e-03
1.039999999999999952e-01 7.376964204013347626e-03
1.049999999999999961e-01 6.687846034765243530e-03
1.059999999999999970e-01 5.954149644821882248e-03
1.069999999999999979e-01 5.179757252335548401e-03
1.079999999999999988e-01 4.368989728391170502e-03
1.089999999999999997e-01 3.526559565216302872e-03
1.100000000000000006e-01 2.657542238011956215e-03
1.110000000000000014e-01 1.767327892594039440e-03
1.120000000000000023e-01 8.615533588454127312e-04
1.130000000000000032e-01 -5.396813503466546535e-05
1.140000000000000041e-01 -9.733029874041676521e-04
1.150000000000000050e-01 -1.890453160740435123e-03
1.160000000000000059e-01 -2.799431793391704559e-03
1.170000000000000068e-01 -3.694339189678430557e-03
1.179999999999999938e-01 -4.569420590996742249e-03
1.189999999999999947e-01 -5.419131834059953690e-03
1.199999999999999956e-01 -6.238212343305349350e-03
1.209999999999999964e-01 -7.021760102361440659e-03
1.219999999999999973e-01 -7.765287533402442932e-03
1.229999999999999982e-01 -8.464762009680271149e-03
1.239999999999999991e-01 -9.116659872233867645e-03
1.250000000000000000e-01 -9.718011133372783661e-03
1.260000000000000009e-01 -1.026643533259630203e-02
1.270000000000000018e-01 -1.076015923172235489e-02
1.280000000000000027e-01 -1.119805127382278442e-02
1.290000000000000036e-01 -1.157963648438453674e-02
1.300000000000000044e-01 -1.190509740263223648e-02
1.310000000000000053e-01 -1.217526011168956757e-02
1.320000000000000062e-01 -1.239158026874065399e-02
1.330000000000000071e-01 -1.255613099783658981e-02
1.340000000000000080e-01 -1.267157588154077530e-02
1.350000000000000089e-01 -1.274112798273563385e-02
1.360000000000000098e-01 -1.276851166039705276e-02
1.370000000000000107e-01 -1.275791786611080170e-02
1.380000000000000115e-01 -1.271395292133092880e-02
1.390000000000000124e-01 -1.264156773686408997e-02
1.400000000000000133e-01 -1.254599075764417648e-02
1.409999999999999865e-01 -1.243267673999071121e-02
1.419999999999999873e-01 -1.230723690241575241e-02
1.429999999999999882e-01 -1.217537280172109604e-02
1.439999999999999891e-01 -1.204279344528913498e-02
1.449999999999999900e-01 -1.191515102982521057e-02
1.459999999999999909e-01 -1.179796829819679260e-02
1.469999999999999918e-01 -1.169656962156295776e-02
1.479999999999999927e-01 -1.161600276827812195e-02
1.489999999999999936e-01 -1.156098581850528717e-02
1.499999999999999944e-01 -1.153584849089384079e-02
1.509999999999999953e-01 -1.154447346925735474e-02
1.519999999999999962e-01 -1.159022934734821320e-02
1.529999999999999971e-01 -1.167592220008373260e-02
1.539999999999999980e-01 -1.180375274270772934e-02
1.549999999999999989e-01 -1.197528652846813202e-02
1.559999999999999998e-01 -1.219141390174627304e-02
1.570000000000000007e-01 -1.245231740176677704e-02
1.580000000000000016e-01 -1.275746338069438934e-02
1.590000000000000024e-01 -1.310558337718248367e-02
1.600000000000000033e-01 -1.349466294050216675e-02
1.610000000000000042e-01 -1.392193511128425598e-02
1.620000000000000051e-01 -1.438389997929334641e-02
1.630000000000000060e-01 -1.487634796649217606e-02
1.640000000000000069e-01 -1.539437938481569290e-02
1.650000000000000078e-01 -1.593242585659027100e-02
1.660000000000000087e-01 -1.648429967463016510e-02
1.670000000000000095e-01 -1.704323105514049530e-02
1.680000000000000104e-01 -1.760194078087806702e-02
1.690000000000000113e-01 -1.815268956124782562e-02
1.700000000000000122e-01 -1.868735253810882568e-02
1.710000000000000131e-01 -1.919750683009624481e-02
1.719999999999999862e-01 -1.967450976371765137e-02
1.729999999999999871e-01 -2.010958082973957062e-02
1.739999999999999880e-01 -2.049390412867069244e-02
1.749999999999999889e-01 -2.081871964037418365e-02
1.759999999999999898e-01 -2.107544057071208954e-02
1.769999999999999907e-01 -2.125575207173824310e-02
1.779999999999999916e-01 -2.135172486305236816e-02
1.789999999999999925e-01 -2.135589905083179474e-02
1.799999999999999933e-01 -2.126141078770160675e-02
1.809999999999999942e-01 -2.106208354234695435e-02
1.819999999999999951e-01 -2.075252681970596313e-02
1.829999999999999960e-01 -2.032822929322719574e-02
1.839999999999999969e-01 -1.978564448654651642e-02
1.849999999999999978e-01 -1.912226900458335876e-02
1.859999999999999987e-01 -1.833670586347579956e-02
1.869999999999999996e-01 -1.742870546877384186e-02
1.880000000000000004e-01 -1.639921404421329498e-02
1.890000000000000013e-01 -1.525042112916707993e-02
1.900000000000000022e-01 -1.398575026541948318e-02
1.910000000000000031e-01 -1.260986737906932831e-02
1.920000000000000040e-01 -1.112865842878818512e-02
1.930000000000000049e-01 -9.549193084239959717e-03
1.940000000000000058e-01 -7.879684679210186005e-03
1.950000000000000067e-01 -6.129418499767780304e-03
1.960000000000000075e-01 -4.308674484491348267e-03
1.970000000000000084e-01 -2.428634557873010635e-03
1.980000000000000093e-01 -5.012750625610351562e-04
1.990000000000000102e-01 1.460755593143403530e-03
2.000000000000000111e-01 3.444269765168428421e-03
2.010000000000000120e-01 5.435680504888296127e-03
2.020000000000000129e-01 7.421136833727359772e-03
2.030000000000000138e-01 9.386675432324409485e-03
2.039999999999999869e-01 1.131837815046310425e-02
2.049999999999999878e-01 1.320253312587738037e-02
2.059999999999999887e-01 1.502578239887952805e-02
2.069999999999999896e-01 1.677526533603668213e-02
2.079999999999999905e-01 1.843876019120216370e-02
2.089999999999999913e-01 2.000482752919197083e-02
2.099999999999999922e-01 2.146292291581630707e-02
2.109999999999999931e-01 2.280351333320140839e-02
2.119999999999999940e-01 2.401818148791790009e-02
2.129999999999999949e-01 2.509970031678676605e-02
2.139999999999999958e-01 2.604211494326591492e-02
2.149999999999999967e-01 2.684077247977256775e-02
2.159999999999999976e-01 2.749236114323139191e-02
2.169999999999999984e-01 2.799493819475173950e-02
2.179999999999999993e-01 2.834791690111160278e-02
2.190000000000000002e-01 2.855205908417701721e-02
2.200000000000000011e-01 2.860942296683788300e-02
2.210000000000000020e-01 2.852331474423408508e-02
2.220000000000000029e-01 2.829823270440101624e-02
2.230000000000000038e-01 2.793977782130241394e-02
2.240000000000000047e-01 2.745456621050834656e-02
2.250000000000000056e-01 2.685012668371200562e-02
2.260000000000000064e-01 2.613478526473045349e-02
2.270000000000000073e-01 2.531756088137626648e-02
2.280000000000000082e-01 2.440802939236164093e-02
2.290000000000000091e-01 2.341620810329914093e-02
2.300000000000000100e-01 2.235241979360580444e-02
2.310000000000000109e-01 2.122718654572963715e-02
2.320000000000000118e-01 2.005110494792461395e-02
2.330000000000000127e-01 1.883472129702568054e-02
2.340000000000000135e-01 1.758841611444950104e-02
2.349999999999999867e-01 1.632231287658214569e-02
2.359999999999999876e-01 1.504617929458618164e-02
2.369999999999999885e-01 1.376934722065925598e-02
2.379999999999999893e-01 1.250063162297010422e-02
2.389999999999999902e-01 1.124826166778802872e-02
2.399999999999999911e-01 1.001983508467674255e-02
2.409999999999999920e-01 8.822270669043064117e-03
2.419999999999999929e-01 7.661776617169380188e-03
2.429999999999999938e-01 6.543836090713739395e-03
2.439999999999999947e-01 5.473187658935785294e-03
2.449999999999999956e-01 4.453838802874088287e-03
2.459999999999999964e-01 3.489061491563916206e-03
2.469999999999999973e-01 2.581411274150013924e-03
2.479999999999999982e-01 1.732753240503370762e-03
2.489999999999999991e-01 9.442994487471878529e-04
2.500000000000000000e-01 2.166484046028926969e-04
2.510000000000000009e-01 -4.501790099311619997e-04
2.520000000000000018e-01 -1.056698733009397984e-03
2.530000000000000027e-01 -1.603905693627893925e-03
2.540000000000000036e-01 -2.093227114528417587e-03
2.550000000000000044e-01 -2.526463707908987999e-03
2.560000000000000053e-01 -2.905743196606636047e-03
2.570000000000000062e-01 -3.233469091355800629e-03
2.580000000000000071e-01 -3.512268885970115662e-03
2.590000000000000080e-01 -3.744946327060461044e-03
2.600000000000000089e-01 -3.934436943382024765e-03
2.610000000000000098e-01 -4.083761014044284821e-03
2.620000000000000107e-01 -4.195983987301588058e-03
2.630000000000000115e-01 -4.274180624634027481e-03
2.640000000000000124e-01 -4.321398679167032242e-03
2.650000000000000133e-01 -4.340639803558588028e-03
2.660000000000000142e-01 -4.334826022386550903e-03
2.670000000000000151e-01 -4.306776914745569229e-03
2.680000000000000160e-01 -4.259189125150442123e-03
2.690000000000000169e-01 -4.194624256342649460e-03
2.700000000000000178e-01 -4.115501884371042252e-03
2.710000000000000187e-01 -4.024087917059659958e-03
2.720000000000000195e-01 -3.922487609088420868e-03
2.730000000000000204e-01 -3.812640672549605370e-03
2.740000000000000213e-01 -3.696323139593005180e-03
2.750000000000000222e-01 -3.575149457901716232e-03
2.760000000000000231e-01 -3.450572723522782326e-03
2.770000000000000240e-01 -3.323893528431653976e-03
2.780000000000000249e-01 -3.196264384314417839e-03
2.790000000000000258e-01 -3.068698104470968246e-03
2.800000000000000266e-01 -2.942071761935949326e-03
2.810000000000000275e-01 -2.817135071381926537e-03
2.819999999999999729e-01 -2.694521564990282059e-03
2.829999999999999738e-01 -2.574759535491466522e-03
2.839999999999999747e-01 -2.458284376189112663e-03
2.849999999999999756e-01 -2.345440443605184555e-03
2.859999999999999765e-01 -2.236487809568643570e-03
2.869999999999999774e-01 -2.131613902747631073e-03
2.879999999999999782e-01 -2.030946547165513039e-03
2.889999999999999791e-01 -1.934563159011304379e-03
2.899999999999999800e-01 -1.842490863054990768e-03
2.909999999999999809e-01 -1.754711382091045380e-03
2.919999999999999818e-01 -1.671174541115760803e-03
2.929999999999999827e-01 -1.591800828464329243e-03
2.939999999999999836e-01 -1.516488613560795784e-03
2.949999999999999845e-01 -1.445115776732563972e-03
2.959999999999999853e-01 -1.377546344883739948e-03
2.969999999999999862e-01 -1.313635497353971004e-03
2.979999999999999871e-01 -1.253229333087801933e-03
2.989999999999999880e-01 -1.196167664602398872e-03
2.999999999999999889e-01 -1.142285880632698536e-03
3.009999999999999898e-01 -1.091422280296683311e-03
3.019999999999999907e-01 -1.043418189510703087e-03
3.029999999999999916e-01 -9.981185430660843849e-04
3.039999999999999925e-01 -9.553693234920501709e-04
3.049999999999999933e-01 -9.150172700174152851e-04
3.059999999999999942e-01 -8.769168634898960590e-04
3.069999999999999951e-01 -8.409336442127823830e-04
3.079999999999999960e-01 -8.069403120316565037e-04
3.089999999999999969e-01 -7.748109637759625912e-04
3.099999999999999978e-01 -7.444257498718798161e-04
3.109999999999999987e-01 -7.156723877415060997e-04
3.119999999999999996e-01 -6.884466274641454220e-04
3.130000000000000004e-01 -6.626513786613941193e-04
3.140000000000000013e-01 -6.381957209669053555e-04
3.150000000000000022e-01 -6.149937398731708527e-04
3.160000000000000031e-01 -5.929636536166071892e-04
3.170000000000000040e-01 -5.720316548831760883e-04
3.180000000000000049e-01 -5.521265557035803795e-04
3.190000000000000058e-01 -5.331834545359015465e-04
3.200000000000000067e-01 -5.151434452272951603e-04
3.210000000000000075e-01 -4.979519871994853020e-04
3.220000000000000084e-01 -4.815583233721554279e-04
3.230000000000000093e-01 -4.659109108615666628e-04
3.240000000000000102e-01 -4.509632999543100595e-04
3.250000000000000111e-01 -4.366746579762548208e-04
3.260000000000000120e-01 -4.230106424074620008e-04
3.270000000000000129e-01 -4.099356010556221008e-04
3.280000000000000138e-01 -3.974135033786296844e-04
3.290000000000000147e-01 -3.854121023323386908e-04
3.300000000000000155e-01 -3.739025851245969534e-04
3.310000000000000164e-01 -3.628598933573812246e-04
3.320000000000000173e-01 -3.522601909935474396e-04
3.330000000000000182e-01 -3.420799330342561007e-04
3.340000000000000191e-01 -3.322963020764291286e-04
3.350000000000000200e-01 -3.228886052966117859e-04
3.360000000000000209e-01 -3.138375759590417147e-04
3.370000000000000218e-01 -3.051246749237179756e-04
3.380000000000000226e-01 -2.967357577290385962e-04
3.390000000000000235e-01 -2.886555157601833344e-04
3.400000000000000244e-01 -2.808690187521278858e-04
3.410000000000000253e-01 -2.733610454015433788e-04
3.420000000000000262e-01 -2.661165781319141388e-04
3.430000000000000271e-01 -2.591254014987498522e-04
3.439999999999999725e-01 -2.523780858609825373e-04
3.449999999999999734e-01 -2.458651142660528421e-04
3.459999999999999742e-01 -2.395735646132379770e-04
3.469999999999999751e-01 -2.334916207473725080e-04
3.479999999999999760e-01 -2.276102459290996194e-04
3.489999999999999769e-01 -2.219237358076497912e-04
3.499999999999999778e-01 -2.164257311960682273e-04
3.509999999999999787e-01 -2.111060894094407558e-04
3.519999999999999796e-01 -2.059559919871389866e-04
3.529999999999999805e-01 -2.009695017477497458e-04
3.539999999999999813e-01 -1.961397210834547877e-04
3.549999999999999822e-01 -1.914611057145521045e-04
3.559999999999999831e-01 -1.869279512902721763e-04
3.569999999999999840e-01 -1.825350918807089329e-04
3.579999999999999849e-01 -1.782765757525339723e-04
3.589999999999999858e-01 -1.741467276588082314e-04
3.599999999999999867e-01 -1.701395085547119379e-04
3.609999999999999876e-01 -1.662501017563045025e-04
3.619999999999999885e-01 -1.624768337933346629e-04
3.629999999999999893e-01 -1.588162558618932962e-04
3.639999999999999902e-01 -1.552632893435657024e-04
3.649999999999999911e-01 -1.518105273135006428e-04
3.659999999999999920e-01 -1.484543317928910255e-04
3.669999999999999929e-01 -1.451940770493820310e-04
3.679999999999999938e-01 -1.420290354872122407e-04
3.689999999999999947e-01 -1.389541430398821831e-04
3.699999999999999956e-01 -1.359627494821324944e-04
3.709999999999999964e-01 -1.330524974036961794e-04
3.719999999999999973e-01 -1.302210293943062425e-04
3.729999999999999982e-01 -1.274691894650459290e-04
3.739999999999999991e-01 -1.247935870196670294e-04
3.750000000000000000e-01 -1.221893762703984976e-04
3.760000000000000009e-01 -1.196529701701365411e-04
3.770000000000000018e-01 -1.171835610875859857e-04
3.780000000000000027e-01 -1.147795992437750101e-04
3.790000000000000036e-01 -1.124398986576125026e-04
3.800000000000000044e-01 -1.101610978366807103e-04
3.810000000000000053e-01 -1.079410503734834492e-04
3.820000000000000062e-01 -1.057785702869296074e-04
3.830000000000000071e-01 -1.036707908497191966e-04
3.840000000000000080e-01 -1.016156238620169461e-04
3.850000000000000089e-01 -9.961173782357946038e-05
3.860000000000000098e-01 -9.765977301867678761e-05
3.870000000000000107e-01 -9.575847798259928823e-05
3.880000000000000115e-01 -9.390379273099824786e-05
3.890000000000000124e-01 -9.209200652549043298e-05
3.900000000000000133e-01 -9.032351954374462366e-05
3.910000000000000142e-01 -8.859959780238568783e-05
3.920000000000000151e-01 -8.692004485055804253e-05
3.930000000000000160e-01 -8.528134640073403716e-05
3.940000000000000169e-01 -8.367946429643779993e-05
3.950000000000000178e-01 -8.211455133277922869e-05
3.960000000000000187e-01 -8.058670209720730782e-05
3.970000000000000195e-01 -7.909724808996543288e-05
3.980000000000000204e-01 -7.764351903460919857e-05
3.990000000000000213e-01 -7.622291013831272721e-05
4.000000000000000222e-01 -7.483350782422348857e-05
4.010000000000000231e-01 -7.347608334384858608e-05
4.020000000000000240e-01 -7.215009827632457018e-05
4.030000000000000249e-01 -7.085570541676133871e-05
4.040000000000000258e-01 -6.959077290957793593e-05
4.050000000000000266e-01 -6.835351814515888691e-05
4.060000000000000275e-01 -6.714375922456383705e-05
4.069999999999999729e-01 -6.596109597012400627e-05
4.079999999999999738e-01 -6.480470619862899184e-05
4.089999999999999747e-01 -6.367386231431737542e-05
4.099999999999999756e-01 -6.256893539102748036e-05
4.109999999999999765e-01 -6.148890679469332099e-05
4.119999999999999774e-01 -6.043079338269308209e-05
4.129999999999999782e-01 -5.939422771916724741e-05
4.139999999999999791e-01 -5.838077777298167348e-05
4.149999999999999800e-01 -5.739078551414422691e-05
4.159999999999999809e-01 -5.642280666506849229e-05
4.169999999999999818e-01 -5.547402543015778065e-05
4.179999999999999827e-01 -5.454440906760282815e-05
4.189999999999999836e-01 -5.363308810046873987e-05
4.199999999999999845e-01 -5.274276190903037786e-05
4.209999999999999853e-01 -5.187242277315817773e-05
4.220000999999999891e-01 -5.101972419652156532e-05
4.229999999999999871e-01 -5.018358569941483438e-05
4.239999999999999880e-01 -4.936323966830968857e-05
4.249999999999999889e-01 -4.856061059399507940e-05
4.259999999999999898e-01 -4.777533104061149061e-05
4.269999999999999907e-01 -4.700679710367694497e-05
4.279999999999999916e-01 -4.625312431016936898e-05
4.289999999999999925e-01 -4.551394886220805347e-05
4.299999999999999933e-01 -4.478892878978513181e-05
4.309999999999999942e-01 -4.407888991408981383e-05
4.319999999999999951e-01 -4.338306825957261026e-05
4.329999999999999960e-01 -4.270237332093529403e-05
4.339999999999999969e-01 -4.203485877951607108e-05
4.349999999999999978e-01 -4.137936412007547915e-05
4.359999999999999987e-01 -4.073554373462684453e-05
4.369999999999999996e-01 -4.010463817394338548e-05
4.380000000000000004e-01 -3.948743324144743383e-05
4.390000000000000013e-01 -3.888305582222528756e-05
4.400000000000000022e-01 -3.828938497463241220e-05
4.410000000000000031e-01 -3.770541297853924334e-05
4.420000000000000040e-01 -3.713185287779197097e-05
4.430000000000000049e-01 -3.657091292552649975e-05
4.440000000000000058e-01 -3.602179640438407660e-05
4.450000000000000067e-01 -3.548309541656635702e-05
4.460000000000000075e-01 -3.495272540021687746e-05
4.470000000000000084e-01 -3.443147579673677683e-05
4.480000000000000093e-01 -3.392069993424229324e-05
4.490000000000000102e-01 -3.342031413922086358e-05
4.500000000000000111e-01 -3.292958353995345533e-05
4.510000000000000120e-01 -3.244733306928537786e-05
4.520000000000000129e-01 -3.197312980773858726e-05
4.530000000000000138e-01 -3.150745760649442673e-05
4.540000000000000147e-01 -3.105032374151051044e-05
4.550000000000000155e-01 -3.060200106119737029e-05
4.560000000000000164e-01 -3.016181472048629075e-05
4.570000000000000173e-01 -2.973003756778780371e-05
4.580000000000000182e-01 -2.930546725110616535e-05
4.590001000000000220e-01 -2.888718881877139211e-05
4.600000000000000200e-01 -2.847656287485733628e-05
4.610000000000000209e-01 -2.807373130053747445e-05
4.620000000000000218e-01 -2.767959085758775473e-05
4.630000000000000226e-01 -2.729229527176357806e-05
4.640000000000000235e-01 -2.690974906727205962e-05
4.650000000000000244e-01 -2.653267074492760003e-05
4.660000000000000253e-01 -2.616354140627663583e-05
4.670000000000000262e-01 -2.580228283477481455e-05
4.680000000000000271e-01 -2.544788912928197533e-05
4.689999999999999725e-01 -2.509799378458410501e-05