-1.199999999999999956e-01 0.000000000000000000e+00
-1.189999999999999947e-01 0.000000000000000000e+00
-1.179999999999999938e-01 0.000000000000000000e+00
-1.170000000000000068e-01 0.000000000000000000e+00
-1.160000000000000059e-01 0.000000000000000000e+00
-1.150000000000000050e-01 0.000000000000000000e+00
-1.140000000000000041e-01 0.000000000000000000e+00
-1.130000000000000032e-01 0.000000000000000000e+00
-1.120000000000000023e-01 0.000000000000000000e+00
-1.110000000000000014e-01 0.000000000000000000e+00
-1.100000000000000006e-01 0.000000000000000000e+00
-1.089999999999999997e-01 0.000000000000000000e+00
-1.079999999999999988e-01 0.000000000000000000e+00
-1.069999999999999979e-01 0.000000000000000000e+00
-1.059999999999999970e-01 0.000000000000000000e+00
-1.049999999999999961e-01 0.000000000000000000e+00
-1.039999999999999952e-01 0.000000000000000000e+00
-1.029999999999999943e-01 0.000000000000000000e+00
-1.019999999999999934e-01 0.000000000000000000e+00
-1.010000000000000064e-01 0.000000000000000000e+00
-1.000000000000000056e-01 0.000000000000000000e+00
-9.900000999999999940e-02 0.000000000000000000e+00
-9.800000000000000377e-02 0.000000000000000000e+00
-9.700000000000000289e-02 0.000000000000000000e+00
-9.600000000000000200e-02 0.000000000000000000e+00
-9.500000999999999585e-02 0.000000000000000000e+00
-9.400000000000000022e-02 0.000000000000000000e+00
-9.299999999999999933e-02 0.000000000000000000e+00
-9.200000999999999318e-02 0.000000000000000000e+00
-9.100001000000000617e-02 0.000000000000000000e+00
-8.999999999999999667e-02 0.000000000000000000e+00
-8.899999999999999578e-02 0.000000000000000000e+00
-8.799999999999999489e-02 0.000000000000000000e+00
-8.699999999999999400e-02 0.000000000000000000e+00
-8.599999999999999312e-02 0.000000000000000000e+00
-8.500001000000000084e-02 0.000000000000000000e+00
-8.400000999999999995e-02 0.000000000000000000e+00
-8.300000000000000433e-02 0.000000000000000000e+00
-8.200000000000000344e-02 0.000000000000000000e+00
-8.100000000000000255e-02 0.000000000000000000e+00
-8.000000000000000167e-02 0.000000000000000000e+00
-7.900000000000000078e-02 0.000000000000000000e+00
-7.799999999999999989e-02 0.000000000000000000e+00
-7.700000999999999374e-02 0.000000000000000000e+00
-7.600001000000000673e-02 0.000000000000000000e+00
-7.499999999999999722e-02 0.000000000000000000e+00
-7.399999999999999634e-02 0.000000000000000000e+00
-7.299999999999999545e-02 0.000000000000000000e+00
-7.199999999999999456e-02 0.000000000000000000e+00
-7.099999999999999367e-02 0.000000000000000000e+00
-7.000001000000000140e-02 0.000000000000000000e+00
-6.900001000000000051e-02 0.000000000000000000e+00
-6.800000000000000488e-02 0.000000000000000000e+00
-6.700000000000000400e-02 0.000000000000000000e+00
-6.600000000000000311e-02 0.000000000000000000e+00
-6.500000000000000222e-02 0.000000000000000000e+00
-6.400000000000000133e-02 0.000000000000000000e+00
-6.300000000000000044e-02 0.000000000000000000e+00
-6.199999999999999956e-02 0.000000000000000000e+00
-6.099999999999999867e-02 0.000000000000000000e+00
-5.999999999999999778e-02 0.000000000000000000e+00
-5.899999999999999689e-02 0.000000000000000000e+00
-5.800000000000000294e-02 0.000000000000000000e+00
-5.700000000000000205e-02 0.000000000000000000e+00
-5.600000000000000117e-02 0.000000000000000000e+00
-5.500000000000000028e-02 0.000000000000000000e+00
-5.400001000000000106e-02 0.000000000000000000e+00
-5.299999999999999850e-02 0.000000000000000000e+00
-5.199999999999999761e-02 0.000000000000000000e+00
-5.099999999999999672e-02 0.000000000000000000e+00
-5.000000000000000278e-02 0.000000000000000000e+00
-4.900000000000000189e-02 0.000000000000000000e+00
-4.800000000000000100e-02 0.000000000000000000e+00
-4.700000000000000011e-02 0.000000000000000000e+00
-4.599999999999999922e-02 0.000000000000000000e+00
-4.499999999999999833e-02 0.000000000000000000e+00
-4.399999999999999745e-02 0.000000000000000000e+00
-4.299999999999999656e-02 0.000000000000000000e+00
-4.200000000000000261e-02 0.000000000000000000e+00
-4.100000000000000172e-02 0.000000000000000000e+00
-4.000000000000000083e-02 0.000000000000000000e+00
-3.899999999999999994e-02 0.000000000000000000e+00
-3.799999999999999906e-02 0.000000000000000000e+00
-3.699999999999999817e-02 0.000000000000000000e+00
-3.599999999999999728e-02 0.000000000000000000e+00
-3.500000000000000333e-02 0.000000000000000000e+00
-3.400000000000000244e-02 0.000000000000000000e+00
-3.300000000000000155e-02 0.000000000000000000e+00
-3.200000000000000067e-02 0.000000000000000000e+00
-3.099999999999999978e-02 0.000000000000000000e+00
-2.999999999999999889e-02 0.000000000000000000e+00
-2.900000000000000147e-02 0.000000000000000000e+00
-2.800000000000000058e-02 0.000000000000000000e+00
-2.699999999999999969e-02 0.000000000000000000e+00
-2.599999999999999881e-02 0.000000000000000000e+00
-2.500000000000000139e-02 0.000000000000000000e+00
-2.400000000000000050e-02 0.000000000000000000e+00
-2.299999999999999961e-02 0.000000000000000000e+00
-2.199999999999999872e-02 0.000000000000000000e+00
-2.100000000000000130e-02 0.000000000000000000e+00
-2.000000000000000042e-02 0.000000000000000000e+00
-1.899999999999999953e-02 0.000000000000000000e+00
-1.799999999999999864e-02 0.000000000000000000e+00
-1.700000000000000122e-02 0.000000000000000000e+00
-1.600000000000000033e-02 0.000000000000000000e+00
-1.499999999999999944e-02 0.000000000000000000e+00
-1.400000000000000029e-02 0.000000000000000000e+00
-1.299999999999999940e-02 0.000000000000000000e+00
-1.200000000000000025e-02 0.000000000000000000e+00
-1.099999999999999936e-02 0.000000000000000000e+00
-9.999997999999999526e-03 0.000000000000000000e+00
-8.999995999999999691e-03 0.000000000000000000e+00
-8.000000999999999640e-03 0.000000000000000000e+00
-6.999998999999999805e-03 0.000000000000000000e+00
-5.999996999999999969e-03 0.000000000000000000e+00
-5.000003000000000260e-03 0.000000000000000000e+00
-4.000001000000000424e-03 0.000000000000000000e+00
-2.999999000000000155e-03 0.000000000000000000e+00
-1.999996999999999886e-03 0.000000000000000000e+00
-1.000002000000000052e-03 0.000000000000000000e+00
0.000000000000000000e+00 0.000000000000000000e+00
1.000002000000000052e-03 0.000000000000000000e+00
2.000004000000000105e-03 0.000000000000000000e+00
2.999999000000000155e-03 0.000000000000000000e+00
4.000001000000000424e-03 0.000000000000000000e+00
4.999995000000000134e-03 0.000000000000000000e+00
5.999996999999999969e-03 0.000000000000000000e+00
6.999998999999999805e-03 0.000000000000000000e+00
8.000000999999999640e-03 0.000000000000000000e+00
9.000002999999999476e-03 0.000000000000000000e+00
1.000001000000000015e-02 0.000000000000000000e+00
1.100000999999999930e-02 0.000000000000000000e+00
1.199999000000000031e-02 0.000000000000000000e+00
1.299999999999999940e-02 0.000000000000000000e+00
1.400000000000000029e-02 0.000000000000000000e+00
1.499999999999999944e-02 0.000000000000000000e+00
1.600000000000000033e-02 0.000000000000000000e+00
1.700000000000000122e-02 0.000000000000000000e+00
1.800001000000000032e-02 0.000000000000000000e+00
1.900001000000000120e-02 0.000000000000000000e+00
2.000000000000000042e-02 0.000000000000000000e+00
2.100000000000000130e-02 0.000000000000000000e+00
2.199999999999999872e-02 0.000000000000000000e+00
2.299999999999999961e-02 0.000000000000000000e+00
2.400000000000000050e-02 0.000000000000000000e+00
2.500000999999999959e-02 0.000000000000000000e+00
2.600001000000000048e-02 0.000000000000000000e+00
2.699999999999999969e-02 0.000000000000000000e+00
2.800000000000000058e-02 0.000000000000000000e+00
2.900000000000000147e-02 0.000000000000000000e+00
2.999999999999999889e-02 0.000000000000000000e+00
3.099999999999999978e-02 0.000000000000000000e+00
3.200001000000000234e-02 0.000000000000000000e+00
3.300001000000000323e-02 0.000000000000000000e+00
3.400000999999999718e-02 0.000000000000000000e+00
3.500000000000000333e-02 0.000000000000000000e+00
3.599999999999999728e-02 0.000000000000000000e+00
3.699999999999999817e-02 0.000000000000000000e+00
3.799999999999999906e-02 0.000000000000000000e+00
3.899999999999999994e-02 0.000000000000000000e+00
4.000001000000000251e-02 0.000000000000000000e+00
4.100001000000000340e-02 0.000000000000000000e+00
4.200000000000000261e-02 0.000000000000000000e+00
4.299999999999999656e-02 0.000000000000000000e+00
4.399999999999999745e-02 0.000000000000000000e+00
4.499999999999999833e-02 0.000000000000000000e+00
4.599999999999999922e-02 0.000000000000000000e+00
4.700001000000000179e-02 0.000000000000000000e+00
4.800001000000000267e-02 0.000000000000000000e+00
4.900000999999999662e-02 0.000000000000000000e+00
5.000000000000000278e-02 0.000000000000000000e+00
5.099999999999999672e-02 0.000000000000000000e+00
5.199999999999999761e-02 0.000000000000000000e+00
5.299999999999999850e-02 0.000000000000000000e+00
5.400001000000000106e-02 0.000000000000000000e+00
5.500001000000000195e-02 0.000000000000000000e+00
5.600001000000000284e-02 0.000000000000000000e+00
5.700000000000000205e-02 0.000000000000000000e+00
5.800000000000000294e-02 0.000000000000000000e+00
5.899999999999999689e-02 0.000000000000000000e+00
5.999999999999999778e-02 0.000000000000000000e+00
6.099999999999999867e-02 0.000000000000000000e+00
6.200001000000000123e-02 0.000000000000000000e+00
6.300000999999999518e-02 0.000000000000000000e+00
6.400000999999999607e-02 0.000000000000000000e+00
6.500000000000000222e-02 0.000000000000000000e+00
6.600000000000000311e-02 0.000000000000000000e+00
6.700000000000000400e-02 0.000000000000000000e+00
6.800000000000000488e-02 0.000000000000000000e+00
6.900001000000000051e-02 0.000000000000000000e+00
7.000001000000000140e-02 0.000000000000000000e+00
7.100001000000000229e-02 0.000000000000000000e+00
7.199999999999999456e-02 0.000000000000000000e+00
7.299999999999999545e-02 0.000000000000000000e+00
7.399999999999999634e-02 0.000000000000000000e+00
7.499999999999999722e-02 0.000000000000000000e+00
7.600001000000000673e-02 0.000000000000000000e+00
7.700000999999999374e-02 0.000000000000000000e+00
7.800000999999999463e-02 0.000000000000000000e+00
7.900000999999999551e-02 0.000000000000000000e+00
8.000000000000000167e-02 0.000000000000000000e+00
8.100000000000000255e-02 -5.605193857299268284e-45
8.200000000000000344e-02 -1.807675018979014021e-43
8.300000000000000433e-02 -2.967950147439962556e-42
8.400000999999999995e-02 -2.803577837574661514e-41
8.500001000000000084e-02 -2.297709091953402551e-41
8.600001000000000173e-02 4.883635850750669153e-39
8.700001000000000262e-02 1.134192143573146412e-37
8.799999999999999489e-02 1.700946746949932946e-36
8.899999999999999578e-02 1.975762352681521130e-35
8.999999999999999667e-02 1.842212706089611065e-34
9.100001000000000617e-02 1.325250218900635303e-33
9.200000999999999318e-02 5.688584872955665848e-33
9.300000999999999407e-02 -2.317002515100013334e-32
9.400000999999999496e-02 -9.034874030702598890e-31
9.500000000000000111e-02 -1.343417536842902749e-29
9.600000000000000200e-02 -1.528694615553972990e-28
9.700000000000000289e-02 -1.498395163445143850e-27
9.800000000000000377e-02 -1.322836537882039269e-26
9.900000999999999940e-02 -1.075565745209700744e-25
1.000000000000000056e-01 -8.156924804941006563e-25
1.010000000000000064e-01 -5.813177541724243233e-24
1.019999999999999934e-01 -3.908868263153807000e-23
1.029999999999999943e-01 -2.483481804397202537e-22
1.039999999999999952e-01 -1.489707854561820795e-21
1.049999999999999961e-01 -8.412312122977785077e-21
1.059999999999999970e-01 -4.449105308185538948e-20
1.069999999999999979e-01 -2.186321852520731716e-19
1.079999999999999988e-01 -9.860836625856893973e-19
1.089999999999999997e-01 -4.000139563188035048e-18
1.100000000000000006e-01 -1.404126020355086140e-17
1.110000000000000014e-01 -3.873578613361706665e-17
1.120000000000000023e-01 -5.355159013862175637e-17
1.130000000000000032e-01 2.486210577385230321e-16
1.140000000000000041e-01 2.689972717297606404e-15
1.150000000000000050e-01 1.544342995499214943e-14
1.160000000000000059e-01 6.859610942417868062e-14
1.170000000000000068e-01 2.544794615918360980e-13
1.179999999999999938e-01 8.048231677458550504e-13
1.189999999999999947e-01 2.161875062647866663e-12
1.199999999999999956e-01 4.799612964012656136e-12
1.209999999999999964e-01 8.140194247829857233e-12
1.219999999999999973e-01 7.593903804392621026e-12
1.229999999999999982e-01 -1.025183757330516698e-11
1.239999999999999991e-01 -7.009871155760905026e-11
1.250000000000000000e-01 -1.973280427947088356e-10
1.260000000000000009e-01 -3.843020346394609987e-10
1.270000000000000018e-01 -5.484106502251506754e-10
1.280000000000000027e-01 -5.423719806607607552e-10
1.290000000000000036e-01 -2.798670739601050172e-10
1.300000000000000044e-01 8.888208918866880026e-11
1.310000000000000053e-01 2.037111174191252871e-10
1.320000000000000062e-01 -1.193408982747001801e-10
1.330000000000000071e-01 -5.285887838546443618e-10
1.340000000000000080e-01 -4.822667265536040304e-10
1.350000000000000089e-01 -7.660461848191246759e-11
1.360000000000000098e-01 3.253564952176990488e-12
1.370000000000000107e-01 -3.209122689806775952e-10
1.380000000000000115e-01 -2.684882871584193254e-10
1.390000000000000124e-01 2.627859041481883651e-10
1.400000000000000133e-01 3.536868298237294539e-10
1.409999999999999865e-01 -2.731624063230519983e-13
1.419999999999999873e-01 1.323861575919238476e-10
1.429999999999999882e-01 3.581591412338269720e-10
1.439999999999999891e-01 -1.122190604330164376e-10
1.449999999999999900e-01 -3.463500874989478007e-10
1.459999999999999909e-01 4.653414372585151781e-12
1.469999999999999918e-01 -1.523870751807265833e-10
1.479999999999999927e-01 -2.516140906738684180e-10
1.489999999999999936e-01 2.923940811694336617e-10
1.499999999999999944e-01 2.092098300154887625e-10
1.509999999999999953e-01 -3.278086482816355840e-11
1.519999999999999962e-01 2.417713529379028614e-10
1.529999999999999971e-01 -1.444849379028667613e-10
1.539999999999999980e-01 -3.248799007593561328e-10
1.549999999999999989e-01 7.571306082088113953e-11
1.559999999999999998e-01 -1.408351907317140217e-10
1.570000000000000007e-01 1.197803800589980483e-10
1.580000000000000016e-01 3.294320094493485840e-10
1.590000000000000024e-01 -1.273146865710117481e-10
1.600000000000000033e-01 7.018412240267224433e-11
1.610000000000000042e-01 -1.863709186977757781e-10
1.620000000000000051e-01 -2.304826468568776932e-10
1.630000000000000060e-01 2.090585482505957771e-10
1.640000000000000069e-01 -4.002346024045699835e-11
1.650000000000000078e-01 2.629931272757346505e-10
1.660000000000000087e-01 -7.402981873350089614e-12
1.670000000000000095e-01 -2.116016667441655841e-10
1.680000000000000104e-01 1.079395513942094098e-11
1.690000000000000113e-01 -2.167963863985988837e-10
1.700000000000000122e-01 2.888016215063515801e-10
1.710000000000000131e-01 9.043038670317193883e-13
1.719999999999999862e-01 1.753782813418425235e-10
1.729999999999999871e-01 -3.670645731812527401e-10
1.739999999999999880e-01 4.290802435580332030e-10
1.749999999999999889e-01 -1.111117642338399492e-09
1.759999999999999898e-01 1.580096942177533492e-09
1.769999999999999907e-01 -6.518046102854668788e-10
1.779999999999999916e-01 -1.399957816339281180e-09
1.789999999999999925e-01 2.090530193399331438e-09
1.799999999999999933e-01 2.127895637471510781e-09
1.809999999999999942e-01 -1.738909793935761172e-09
1.819999999999999951e-01 -7.853665273671595060e-09
1.829999999999999960e-01 -1.542747263272303826e-08
1.839999999999999969e-01 -2.384179786929507827e-08
1.849999999999999978e-01 -3.358179512247261300e-08
1.859999999999999987e-01 -4.414496501681242080e-08
1.869999999999999996e-01 -5.752989551410792046e-08
1.880000000000000004e-01 -7.338012153468298493e-08
1.890000000000000013e-01 -9.343404627770723891e-08
1.900000000000000022e-01 -1.169055039440536348e-07
1.910000000000000031e-01 -1.458301852608201443e-07
1.920000000000000040e-01 -1.801895592734581442e-07
1.930000000000000049e-01 -2.225260544719276368e-07
1.940000000000000058e-01 -2.733019925926782889e-07
1.950000000000000067e-01 -3.351194948209013091e-07
1.960000000000000075e-01 -4.089077094704407500e-07
1.970000000000000084e-01 -4.977779894943523686e-07
1.980000000000000093e-01 -6.037868161001824774e-07
1.990000000000000102e-01 -7.310409273486584425e-07
2.000000000000000111e-01 -8.826610269352386240e-07
2.010000000000000120e-01 -1.063565036929503549e-06
2.020000000000000129e-01 -1.278012291550112423e-06
2.030000000000000138e-01 -1.532439000584417954e-06
2.039999999999999869e-01 -1.832967427617404610e-06
2.049999999999999878e-01 -2.187946165577159263e-06
2.059999999999999887e-01 -2.605329655125387944e-06
2.069999999999999896e-01 -3.095746478720684536e-06
2.079999999999999905e-01 -3.669844772957731038e-06
2.089999999999999913e-01 -4.341455678513739258e-06
2.099999999999999922e-01 -5.124315521243261173e-06
2.109999999999999931e-01 -6.035614205757156014e-06
2.119999999999999940e-01 -7.092649411788443103e-06
2.129999999999999949e-01 -8.317095307575073093e-06
2.139999999999999958e-01 -9.731050340633373708e-06
2.149999999999999967e-01 -1.136110950028523803e-05
2.159999999999999976e-01 -1.323438300460111350e-05
2.169999999999999984e-01 -1.538310425530653447e-05
2.179999999999999993e-01 -1.784073538146913052e-05
2.190000000000000002e-01 -2.064594991679769009e-05
2.200000000000000011e-01 -2.383904211455956101e-05
2.210000000000000020e-01 -2.746526297414675355e-05
2.220000000000000029e-01 -3.157246464979834855e-05
2.230000000000000038e-01 -3.621317955548875034e-05
2.240000000000000047e-01 -4.144333070144057274e-05
2.250000000000000056e-01 -4.732250090455636382e-05
2.260000000000000064e-01 -5.391443846747279167e-05
2.270000000000000073e-01 -6.128570385044440627e-05
2.280000000000000082e-01 -6.950772512936964631e-05
2.290000000000000091e-01 -7.865331281209364533e-05
2.300000000000000100e-01 -8.879985398380085826e-05
2.310000000000000109e-01 -1.000253032543696463e-04
2.320000000000000118e-01 -1.124113405239768326e-04
2.330000000000000127e-01 -1.260392455151304603e-04
2.340000000000000135e-01 -1.409917167620733380e-04
2.349999999999999867e-01 -1.573503541294485331e-04
2.359999999999999876e-01 -1.751955860527232289e-04
2.369999999999999885e-01 -1.946056727319955826e-04
2.379999999999999893e-01 -2.156540431315079331e-04
2.389999999999999902e-01 -2.384101826464757323e-04
2.399999999999999911e-01 -2.629352966323494911e-04
2.409999999999999920e-01 -2.892845077440142632e-04
2.419999999999999929e-01 -3.175010497216135263e-04
2.429999999999999938e-01 -3.476177516859024763e-04
2.439999999999999947e-01 -3.796530363615602255e-04
2.449999999999999956e-01 -4.136105708312243223e-04
2.459999999999999964e-01 -4.494771419558674097e-04
2.469999999999999973e-01 -4.872194549534469843e-04
2.479999999999999982e-01 -5.267842789180576801e-04
2.489999999999999991e-01 -5.680942558683454990e-04
2.500000000000000000e-01 -6.110495887696743011e-04
2.510000000000000009e-01 -6.555232102982699871e-04
2.520000000000000018e-01 -7.013612193986773491e-04
2.530000000000000027e-01 -7.483811932615935802e-04
2.540000000000000036e-01 -7.963712560012936592e-04
2.550000000000000044e-01 -8.450911263935267925e-04
2.560000000000000053e-01 -8.942688582465052605e-04
2.570000000000000062e-01 -9.436038671992719173e-04
2.580000000000000071e-01 -9.927653009071946144e-04
2.590000000000000080e-01 -1.041394891217350960e-03
2.600000000000000089e-01 -1.089107710868120193e-03
2.610000000000000098e-01 -1.135493512265384197e-03
2.620000000000000107e-01 -1.180120394565165043e-03
2.630000000000000115e-01 -1.222536084242165089e-03
2.640000000000000124e-01 -1.262273872271180153e-03
2.650000000000000133e-01 -1.298854476772248745e-03
2.660000000000000142e-01 -1.331791165284812450e-03
2.670000000000000151e-01 -1.360594644211232662e-03
2.680000000000000160e-01 -1.384778297506272793e-03
2.690000000000000169e-01 -1.403864356689155102e-03
2.700000000000000178e-01 -1.417388091795146465e-03
2.710000000000000187e-01 -1.424906193278729916e-03
2.720000000000000195e-01 -1.426001312211155891e-03
2.730000000000000204e-01 -1.420288230292499065e-03
2.740000000000000213e-01 -1.407422241754829884e-03
2.750000000000000222e-01 -1.387101830914616585e-03
2.760000000000000231e-01 -1.359077636152505875e-03
2.770000000000000240e-01 -1.323156408034265041e-03
2.780000000000000249e-01 -1.279205549508333206e-03
2.790000000000000258e-01 -1.227159402333199978e-03
2.800000000000000266e-01 -1.167020993307232857e-03
2.810000000000000275e-01 -1.098867156542837620e-03
2.819999999999999729e-01 -1.022849231958389282e-03
2.829999999999999738e-01 -9.391949861310422421e-04
2.839999999999999747e-01 -8.482097182422876358e-04
2.849999999999999756e-01 -7.502748048864305019e-04
2.859999999999999765e-01 -6.458475254476070404e-04
2.869999999999999774e-01 -5.354564054869115353e-04
2.879999999999999782e-01 -4.196994996163994074e-04
2.889999999999999791e-01 -2.992398221977055073e-04
2.899999999999999800e-01 -1.747983187669888139e-04
2.909999999999999809e-01 -4.714929673355072737e-05
2.919999999999999818e-01 8.288894605357199907e-05
2.929999999999999827e-01 2.144602913176640868e-04
2.939999999999999836e-01 3.466790367383509874e-04
2.949999999999999845e-01 4.786419158335775137e-04
2.959999999999999853e-01 6.094348500482738018e-04
2.969999999999999862e-01 7.381438044831156731e-04
2.979999999999999871e-01 8.638650760985910892e-04
2.989999999999999880e-01 9.857141412794589996e-04
2.999999999999999889e-01 1.102836802601814270e-03
3.009999999999999898e-01 1.214417745359241962e-03
3.019999999999999907e-01 1.319689094088971615e-03
3.029999999999999916e-01 1.417940133251249790e-03
3.039999999999999925e-01 1.508522778749465942e-03
3.049999999999999933e-01 1.590861473232507706e-03
3.059999999999999942e-01 1.664456096477806568e-03
3.069999999999999951e-01 1.728887902572751045e-03
3.079999999999999960e-01 1.783824176527559757e-03
3.089999999999999969e-01 1.829019747674465179e-03
3.099999999999999978e-01 1.864318968728184700e-03
3.109999999999999987e-01 1.889655948616564274e-03
3.119999999999999996e-01 1.905053621158003807e-03
3.130000000000000004e-01 1.910623162984848022e-03
3.140000000000000013e-01 1.906558056361973286e-03
3.150000000000000022e-01 1.893132925033569336e-03
3.160000000000000031e-01 1.870697829872369766e-03
3.170000000000000040e-01 1.839671516790986061e-03
3.180000000000000049e-01 1.800536643713712692e-03
3.190000000000000058e-01 1.753830933012068272e-03
3.200000000000000067e-01 1.700140768662095070e-03
3.210000000000000075e-01 1.640093862079083920e-03
3.220000000000000084e-01 1.574348774738609791e-03
3.230000000000000093e-01 1.503589446656405926e-03
3.240000000000000102e-01 1.428514719009399414e-03
3.250000000000000111e-01 1.349830999970436096e-03
3.260000000000000120e-01 1.268245745450258255e-03
3.270000000000000129e-01 1.184457447379827499e-03
3.280000000000000138e-01 1.099150045774877071e-03
3.290000000000000147e-01 1.012987107969820499e-03
3.300000000000000155e-01 9.266033885069191456e-04
3.310000000000000164e-01 8.406026754528284073e-04
3.320000000000000173e-01 7.555504562333226204e-04
3.330000000000000182e-01 6.719711818732321262e-04
3.340000000000000191e-01 5.903459386900067329e-04
3.350000000000000200e-01 5.111081991344690323e-04
3.360000000000000209e-01 4.346435598563402891e-04
3.370000000000000218e-01 3.612888685893267393e-04
3.380000000000000226e-01 2.913301868829876184e-04
3.390000000000000235e-01 2.250049437861889601e-04
3.400000000000000244e-01 1.625020813662558794e-04
3.410000000000000253e-01 1.039637427311390638e-04
3.420000000000000262e-01 4.948784044245257974e-05
3.430000000000000271e-01 -8.714861223779735155e-07
3.439999999999999725e-01 -4.709984204964712262e-05
3.449999999999999734e-01 -8.921916014514863491e-05
3.459999999999999742e-01 -1.272852532565593719e-04
3.469999999999999751e-01 -1.613842323422431946e-04
3.479999999999999760e-01 -1.916294568218290806e-04
3.489999999999999769e-01 -2.181574527639895678e-04
3.499999999999999778e-01 -2.411241730442270637e-04
3.509999999999999787e-01 -2.607023925520479679e-04
3.519999999999999796e-01 -2.770787396002560854e-04
3.529999999999999805e-01 -2.904489228967577219e-04
3.539999999999999813e-01 -3.010158834513276815e-04
3.549999999999999822e-01 -3.089869860559701920e-04
3.559999999999999831e-01 -3.145708469673991203e-04
3.569999999999999840e-01 -3.179758205078542233e-04
3.579999999999999849e-01 -3.194074670318514109e-04
3.589999999999999858e-01 -3.190657007507979870e-04
3.599999999999999867e-01 -3.171460120938718319e-04
3.609999999999999876e-01 -3.138344618491828442e-04
3.619999999999999885e-01 -3.093092818744480610e-04
3.629999999999999893e-01 -3.037393908016383648e-04
3.639999999999999902e-01 -2.972825895994901657e-04
3.649999999999999911e-01 -2.900870749726891518e-04
3.659999999999999920e-01 -2.822892274707555771e-04
3.669999999999999929e-01 -2.740137570071965456e-04
3.679999999999999938e-01 -2.653760602697730064e-04
3.689999999999999947e-01 -2.564790775068104267e-04
3.699999999999999956e-01 -2.474154753144830465e-04
3.709999999999999964e-01 -2.382684033364057541e-04
3.719999999999999973e-01 -2.291095588589087129e-04
3.729999999999999982e-01 -2.200032758992165327e-04
3.739999999999999991e-01 -2.110038622049614787e-04
3.750000000000000000e-01 -2.021573018282651901e-04
3.760000000000000009e-01 -1.935028121806681156e-04
3.770000000000000018e-01 -1.850729167927056551e-04
3.780000000000000027e-01 -1.768926740624010563e-04
3.790000000000000036e-01 -1.689817290753126144e-04
3.800000000000000044e-01 -1.613557105883955956e-04
3.810000000000000053e-01 -1.540240773465484381e-04
3.820000000000000062e-01 -1.469939597882330418e-04
3.830000000000000071e-01 -1.402676862198859453e-04
3.840000000000000080e-01 -1.338449801551178098e-04
3.850000000000000089e-01 -1.277238479815423489e-04
3.860000000000000098e-01 -1.218990801135078073e-04
3.870000000000000107e-01 -1.163634588010609150e-04
3.880000000000000115e-01 -1.111100064008496702e-04
3.890000000000000124e-01 -1.061291186488233507e-04
3.900000000000000133e-01 -1.014107838273048401e-04
3.910000000000000142e-01 -9.694403706816956401e-05
3.920000000000000151e-01 -9.271835006074979901e-05
3.930000000000000160e-01 -8.872235775925219059e-05
3.940000000000000169e-01 -8.494476060150191188e-05
3.950000000000000178e-01 -8.137369877658784389e-05
3.960000000000000187e-01 -7.799885497661307454e-05
3.970000000000000195e-01 -7.480834756279364228e-05
3.980000000000000204e-01 -7.179174281191080809e-05
3.990000000000000213e-01 -6.893924000905826688e-05
4.000000000000000222e-01 -6.623888475587591529e-05
4.010000000000000231e-01 -6.368345202645286918e-05
4.020000000000000240e-01 -6.126196240074932575e-05
4.030000000000000249e-01 -5.896398579352535307e-05
4.040000000000000258e-01 -5.678497473127208650e-05
4.050000000000000266e-01 -5.471255644806660712e-05
4.060000000000000275e-01 -5.274025534163229167e-05
4.069999999999999729e-01 -5.086169767309911549e-05
4.079999999999999738e-01 -4.906706817564554513e-05
4.089999999999999747e-01 -4.735163747682236135e-05
4.099999999999999756e-01 -4.570769306155852973e-05
4.109999999999999765e-01 -4.412876660353504121e-05
4.119999999999999774e-01 -4.260797868482768536e-05
4.129999999999999782e-01 -4.114027615287341177e-05
4.139999999999999791e-01 -3.971769911004230380e-05
4.149999999999999800e-01 -3.833222945104353130e-05
4.159999999999999809e-01 -3.697911597555503249e-05
4.169999999999999818e-01 -3.564817598089575768e-05
4.179999999999999827e-01 -3.433022357057780027e-05
4.189999999999999836e-01 -3.301626202301122248e-05
4.199999999999999845e-01 -3.169658157275989652e-05
4.209999999999999853e-01 -3.035702320630662143e-05
4.220000999999999891e-01 -2.898643469961825758e-05
4.229999999999999871e-01 -2.757140282483305782e-05
4.239999999999999880e-01 -2.609549846965819597e-05
4.249999999999999889e-01 -2.454177410982083529e-05
4.259999999999999898e-01 -2.289225994900334626e-05
4.269999999999999907e-01 -2.112543370458297431e-05
4.279999999999999916e-01 -1.921569673868361861e-05
4.289999999999999925e-01 -1.713762685540132225e-05
4.299999999999999933e-01 -1.485969005443621427e-05
4.309999999999999942e-01 -1.234639512404100969e-05
4.319999999999999951e-01 -9.559356840327382088e-06
4.329999999999999960e-01 -6.456657501985318959e-06
4.339999999999999969e-01 -2.988917231050436385e-06
4.349999999999999978e-01 8.962286983660305850e-07
4.359999999999999987e-01 5.256599251879379153e-06
4.369999999999999996e-01 1.015481666399864480e-05
4.380000000000000004e-01 1.566231912875082344e-05
4.390000000000000013e-01 2.185554694733582437e-05
4.400000000000000022e-01 2.881813452404458076e-05
4.410000000000000031e-01 3.664210089482367039e-05
4.420000000000000040e-01 4.542860915535129607e-05
4.430000000000000049e-01 5.528326437342911959e-05
4.440000000000000058e-01 6.632202712353318930e-05
4.450000000000000067e-01 7.866856321925297379e-05
4.460000000000000075e-01 9.245387627743184566e-05
4.470000000000000084e-01 1.078148052329197526e-04
4.480000000000000093e-01 1.248979970114305615e-04
4.490000000000000102e-01 1.438566396245732903e-04
4.500000000000000111e-01 1.648503821343183517e-04
4.510000000000000120e-01 1.880439522210508585e-04
4.520000000000000129e-01 2.136082912329584360e-04
4.530000000000000138e-01 2.417173382127657533e-04
4.540000000000000147e-01 2.725459344219416380e-04
4.550000000000000155e-01 3.062683972530066967e-04
4.560000000000000164e-01 3.430592187214642763e-04
4.570000000000000173e-01 3.830876667052507401e-04
4.580000000000000182e-01 4.265151510480791330e-04
4.590001000000000220e-01 4.734955145977437496e-04
4.600000000000000200e-01 5.241725593805313110e-04
4.610000000000000209e-01 5.786722758784890175e-04
4.620000000000000218e-01 6.371027557179331779e-04
4.630000000000000226e-01 6.995502044446766376e-04
4.640000000000000235e-01 7.660742267034947872e-04
4.650000000000000244e-01 8.367035188712179661e-04
4.660000000000000253e-01 9.114326094277203083e-04
4.670000000000000262e-01 9.902181336656212807e-04
4.680000000000000271e-01 1.072975574061274529e-03
4.689999999999999725e-01 1.159573323093354702e-03
4.699999999999999734e-01 1.249830587767064571e-03
4.709999999999999742e-01 1.343514071777462959e-03