-1.199999999999999956e-01 0.000000000000000000e+00
-1.189999999999999947e-01 0.000000000000000000e+00
-1.179999999999999938e-01 0.000000000000000000e+00
-1.170000000000000068e-01 0.000000000000000000e+00
-1.160000000000000059e-01 0.000000000000000000e+00
-1.150000000000000050e-01 0.000000000000000000e+00
-1.140000000000000041e-01 0.000000000000000000e+00
-1.130000000000000032e-01 0.000000000000000000e+00
-1.120000000000000023e-01 0.000000000000000000e+00
-1.110000000000000014e-01 0.000000000000000000e+00
-1.100000000000000006e-01 0.000000000000000000e+00
-1.089999999999999997e-01 0.000000000000000000e+00
-1.079999999999999988e-01 0.000000000000000000e+00
-1.069999999999999979e-01 0.000000000000000000e+00
-1.059999999999999970e-01 0.000000000000000000e+00
-1.049999999999999961e-01 0.000000000000000000e+00
-1.039999999999999952e-01 0.000000000000000000e+00
-1.029999999999999943e-01 0.000000000000000000e+00
-1.019999999999999934e-01 0.000000000000000000e+00
-1.010000000000000064e-01 0.000000000000000000e+00
-1.000000000000000056e-01 0.000000000000000000e+00
-9.900000999999999940e-02 0.000000000000000000e+00
-9.800000000000000377e-02 0.000000000000000000e+00
-9.700000000000000289e-02 0.000000000000000000e+00
-9.600000000000000200e-02 0.000000000000000000e+00
-9.500000999999999585e-02 0.000000000000000000e+00
-9.400000000000000022e-02 0.000000000000000000e+00
-9.299999999999999933e-02 0.000000000000000000e+00
-9.200000999999999318e-02 0.000000000000000000e+00
-9.100001000000000617e-02 0.000000000000000000e+00
-8.999999999999999667e-02 0.000000000000000000e+00
-8.899999999999999578e-02 0.000000000000000000e+00
-8.799999999999999489e-02 0.000000000000000000e+00
-8.699999999999999400e-02 0.000000000000000000e+00
-8.599999999999999312e-02 0.000000000000000000e+00
-8.500001000000000084e-02 0.000000000000000000e+00
-8.400000999999999995e-02 0.000000000000000000e+00
-8.300000000000000433e-02 0.000000000000000000e+00
-8.200000000000000344e-02 0.000000000000000000e+00
-8.100000000000000255e-02 0.000000000000000000e+00
-8.000000000000000167e-02 0.000000000000000000e+00
-7.900000000000000078e-02 0.000000000000000000e+00
-7.799999999999999989e-02 0.000000000000000000e+00
-7.700000999999999374e-02 0.000000000000000000e+00
-7.600001000000000673e-02 0.000000000000000000e+00
-7.499999999999999722e-02 0.000000000000000000e+00
-7.399999999999999634e-02 0.000000000000000000e+00
-7.299999999999999545e-02 0.000000000000000000e+00
-7.199999999999999456e-02 0.000000000000000000e+00
-7.099999999999999367e-02 0.000000000000000000e+00
-7.000001000000000140e-02 0.000000000000000000e+00
-6.900001000000000051e-02 0.000000000000000000e+00
-6.800000000000000488e-02 0.000000000000000000e+00
-6.700000000000000400e-02 0.000000000000000000e+00
-6.600000000000000311e-02 0.000000000000000000e+00
-6.500000000000000222e-02 0.000000000000000000e+00
-6.400000000000000133e-02 0.000000000000000000e+00
-6.300000000000000044e-02 0.000000000000000000e+00
-6.199999999999999956e-02 0.000000000000000000e+00
-6.099999999999999867e-02 0.000000000000000000e+00
-5.999999999999999778e-02 0.000000000000000000e+00
-5.899999999999999689e-02 0.000000000000000000e+00
-5.800000000000000294e-02 0.000000000000000000e+00
-5.700000000000000205e-02 0.000000000000000000e+00
-5.600000000000000117e-02 0.000000000000000000e+00
-5.500000000000000028e-02 0.000000000000000000e+00
-5.400001000000000106e-02 0.000000000000000000e+00
-5.299999999999999850e-02 0.000000000000000000e+00
-5.199999999999999761e-02 0.000000000000000000e+00
-5.099999999999999672e-02 0.000000000000000000e+00
-5.000000000000000278e-02 0.000000000000000000e+00
-4.900000000000000189e-02 0.000000000000000000e+00
-4.800000000000000100e-02 0.000000000000000000e+00
-4.700000000000000011e-02 0.000000000000000000e+00
-4.599999999999999922e-02 0.000000000000000000e+00
-4.499999999999999833e-02 0.000000000000000000e+00
-4.399999999999999745e-02 0.000000000000000000e+00
-4.299999999999999656e-02 0.000000000000000000e+00
-4.200000000000000261e-02 0.000000000000000000e+00
-4.100000000000000172e-02 0.000000000000000000e+00
-4.000000000000000083e-02 0.000000000000000000e+00
-3.899999999999999994e-02 0.000000000000000000e+00
-3.799999999999999906e-02 0.000000000000000000e+00
-3.699999999999999817e-02 0.000000000000000000e+00
-3.599999999999999728e-02 0.000000000000000000e+00
-3.500000000000000333e-02 0.000000000000000000e+00
-3.400000000000000244e-02 0.000000000000000000e+00
-3.300000000000000155e-02 0.000000000000000000e+00
-3.200000000000000067e-02 0.000000000000000000e+00
-3.099999999999999978e-02 0.000000000000000000e+00
-2.999999999999999889e-02 0.000000000000000000e+00
-2.900000000000000147e-02 0.000000000000000000e+00
-2.800000000000000058e-02 0.000000000000000000e+00
-2.699999999999999969e-02 0.000000000000000000e+00
-2.599999999999999881e-02 0.000000000000000000e+00
-2.500000000000000139e-02 0.000000000000000000e+00
-2.400000000000000050e-02 0.000000000000000000e+00
-2.299999999999999961e-02 0.000000000000000000e+00
-2.199999999999999872e-02 0.000000000000000000e+00
-2.100000000000000130e-02 0.000000000000000000e+00
-2.000000000000000042e-02 0.000000000000000000e+00
-1.899999999999999953e-02 0.000000000000000000e+00
-1.799999999999999864e-02 0.000000000000000000e+00
-1.700000000000000122e-02 0.000000000000000000e+00
-1.600000000000000033e-02 0.000000000000000000e+00
-1.499999999999999944e-02 0.000000000000000000e+00
-1.400000000000000029e-02 0.000000000000000000e+00
-1.299999999999999940e-02 0.000000000000000000e+00
-1.200000000000000025e-02 0.000000000000000000e+00
-1.099999999999999936e-02 0.000000000000000000e+00
-9.999997999999999526e-03 0.000000000000000000e+00
-8.999995999999999691e-03 0.000000000000000000e+00
-8.000000999999999640e-03 0.000000000000000000e+00
-6.999998999999999805e-03 0.000000000000000000e+00
-5.999996999999999969e-03 0.000000000000000000e+00
-5.000003000000000260e-03 0.000000000000000000e+00
-4.000001000000000424e-03 0.000000000000000000e+00
-2.999999000000000155e-03 0.000000000000000000e+00
-1.999996999999999886e-03 0.000000000000000000e+00
-1.000002000000000052e-03 0.000000000000000000e+00
0.000000000000000000e+00 0.000000000000000000e+00
1.000002000000000052e-03 0.000000000000000000e+00
2.000004000000000105e-03 0.000000000000000000e+00
2.999999000000000155e-03 0.000000000000000000e+00
4.000001000000000424e-03 0.000000000000000000e+00
4.999995000000000134e-03 0.000000000000000000e+00
5.999996999999999969e-03 0.000000000000000000e+00
6.999998999999999805e-03 0.000000000000000000e+00
8.000000999999999640e-03 0.000000000000000000e+00
9.000002999999999476e-03 0.000000000000000000e+00
1.000001000000000015e-02 0.000000000000000000e+00
1.100000999999999930e-02 0.000000000000000000e+00
1.199999000000000031e-02 0.000000000000000000e+00
1.299999999999999940e-02 0.000000000000000000e+00
1.400000000000000029e-02 0.000000000000000000e+00
1.499999999999999944e-02 0.000000000000000000e+00
1.600000000000000033e-02 0.000000000000000000e+00
1.700000000000000122e-02 0.000000000000000000e+00
1.800001000000000032e-02 0.000000000000000000e+00
1.900001000000000120e-02 0.000000000000000000e+00
2.000000000000000042e-02 0.000000000000000000e+00
2.100000000000000130e-02 0.000000000000000000e+00
2.199999999999999872e-02 0.000000000000000000e+00
2.299999999999999961e-02 0.000000000000000000e+00
2.400000000000000050e-02 0.000000000000000000e+00
2.500000999999999959e-02 0.000000000000000000e+00
2.600001000000000048e-02 0.000000000000000000e+00
2.699999999999999969e-02 0.000000000000000000e+00
2.800000000000000058e-02 0.000000000000000000e+00
2.900000000000000147e-02 0.000000000000000000e+00
2.999999999999999889e-02 0.000000000000000000e+00
3.099999999999999978e-02 0.000000000000000000e+00
3.200001000000000234e-02 0.000000000000000000e+00
3.300001000000000323e-02 0.000000000000000000e+00
3.400000999999999718e-02 0.000000000000000000e+00
3.500000000000000333e-02 0.000000000000000000e+00
3.599999999999999728e-02 0.000000000000000000e+00
3.699999999999999817e-02 0.000000000000000000e+00
3.799999999999999906e-02 0.000000000000000000e+00
3.899999999999999994e-02 0.000000000000000000e+00
4.000001000000000251e-02 -0.000000000000000000e+00
4.100001000000000340e-02 0.000000000000000000e+00
4.200000000000000261e-02 1.121038771459853657e-44
4.299999999999999656e-02 2.214051573633210972e-43
4.399999999999999745e-02 -3.222005559022051891e-41
4.499999999999999833e-02 -2.549603701303503018e-39
4.599999999999999922e-02 -8.350627897953393028e-38
4.700001000000000179e-02 -4.305961040545276465e-37
4.800001000000000267e-02 1.066909208108780674e-34
4.900000999999999662e-02 7.264779166692362298e-33
5.000000000000000278e-02 3.155146973129673709e-31
5.099999999999999672e-02 1.091730842716025653e-29
5.199999999999999761e-02 3.177650556107804245e-28
5.299999999999999850e-02 7.716353107612145925e-27
5.400001000000000106e-02 1.455554989614488058e-25
5.500001000000000195e-02 1.636969307336260855e-24
5.600001000000000284e-02 -1.107837364449761584e-23
5.700000000000000205e-02 -1.067312699379787981e-21
5.800000000000000294e-02 -2.762326357885647598e-20
5.899999999999999689e-02 -4.049180930357196107e-19
5.999999999999999778e-02 -2.736589124264548845e-18
6.099999999999999867e-02 1.712433605446463168e-17
6.200001000000000123e-02 5.629942126779636027e-16
6.300000999999999518e-02 4.533915374350461561e-15
6.400000999999999607e-02 -1.455682341668389137e-15
6.500000000000000222e-02 -2.587011009060058431e-13
6.600000000000000311e-02 -1.256670006770377324e-12
6.700000000000000400e-02 3.199956792598879218e-12
6.800000000000000488e-02 3.641635951123767256e-11
6.900001000000000051e-02 1.467316546044372672e-11
7.000001000000000140e-02 -3.721696284486597506e-10
7.100001000000000229e-02 -3.079702881603196829e-10
7.199999999999999456e-02 1.436234020602000783e-09
7.299999999999999545e-02 4.363006067542585242e-10
7.399999999999999634e-02 -7.516918754113532941e-10
7.499999999999999722e-02 6.696228016522809412e-10
7.600001000000000673e-02 -1.374438007850642407e-09
7.700000999999999374e-02 6.816552322597146940e-10
7.800000999999999463e-02 -1.290801576736555489e-09
7.900000999999999551e-02 1.580994224426035544e-10
8.000000000000000167e-02 -1.533259109953721833e-11
8.100000000000000255e-02 -1.650936387598278543e-09
8.200000000000000344e-02 1.852081155107043742e-09
8.300000000000000433e-02 -1.701329299663711936e-09
8.400000999999999995e-02 -3.525265357406937028e-10
8.500001000000000084e-02 2.125842613054373942e-09
8.600001000000000173e-02 -1.653914449839533063e-09
8.700001000000000262e-02 2.461874037962274997e-10
8.799999999999999489e-02 1.146152506237285706e-09
8.899999999999999578e-02 -9.390795085995051750e-11
8.999999999999999667e-02 9.013079727004935648e-10
9.100001000000000617e-02 -1.069437982614829252e-09
9.200000999999999318e-02 -5.587265650142114737e-10
9.300000999999999407e-02 8.548041718903220954e-10
9.400000999999999496e-02 -5.474938835625664524e-10
9.500000000000000111e-02 5.121475465941216498e-10
9.600000000000000200e-02 7.578754290804567972e-11
9.700000000000000289e-02 -8.867062084583210435e-10
9.800000000000000377e-02 5.096403299376106588e-10
9.900000999999999940e-02 -4.153516142135771361e-10
1.000000000000000056e-01 -2.891932249227124885e-10
1.010000000000000064e-01 5.817862858137345938e-10
1.019999999999999934e-01 -5.882707099225115144e-10
1.029999999999999943e-01 3.277317583982863880e-10
1.039999999999999952e-01 6.104455274602571535e-10
1.049999999999999961e-01 -1.357700618598300935e-10
1.059999999999999970e-01 9.522013177942767470e-10
1.069999999999999979e-01 2.427280321182223588e-10
1.079999999999999988e-01 -2.946811683557370998e-10
1.089999999999999997e-01 4.801917752317308441e-10
1.100000000000000006e-01 -4.261859753995622668e-10
1.110000000000000014e-01 5.633724823456143227e-12
1.120000000000000023e-01 6.610890723734996755e-10
1.130000000000000032e-01 -2.840542523419031795e-10
1.140000000000000041e-01 2.555556599670438800e-10
1.150000000000000050e-01 1.004994767961342461e-10
1.160000000000000059e-01 -6.195103319228678629e-10
1.170000000000000068e-01 3.934969572405577765e-10
1.179999999999999938e-01 1.633388840849292478e-10
1.189999999999999947e-01 -1.141768624091099582e-10
1.199999999999999956e-01 5.590461427118498250e-10
1.209999999999999964e-01 -2.931581644105563100e-10
1.219999999999999973e-01 -2.316748598518714175e-10
1.229999999999999982e-01 5.137453240600109439e-10
1.239999999999999991e-01 -8.687215530267522468e-11
1.250000000000000000e-01 3.073550580712236524e-10
1.260000000000000009e-01 4.052130297971245909e-10
1.270000000000000018e-01 -4.858657920436826316e-10
1.280000000000000027e-01 1.728782117460525569e-10
1.290000000000000036e-01 4.123585362059145609e-10
1.300000000000000044e-01 -3.304447687701994596e-11
1.310000000000000053e-01 4.099033334981072585e-10
1.320000000000000062e-01 -2.916185071200061429e-10
1.330000000000000071e-01 -5.690600768382125807e-10
1.340000000000000080e-01 7.081376041107034780e-10
1.350000000000000089e-01 4.121790131428326731e-10
1.360000000000000098e-01 -4.686099286388412111e-10
1.370000000000000107e-01 -4.740983161610756724e-10
1.380000000000000115e-01 -3.140527560230310655e-10
1.390000000000000124e-01 5.742017972210078369e-10
1.400000000000000133e-01 3.697197270557950333e-10
1.409999999999999865e-01 -9.216212792928502040e-10
1.419999999999999873e-01 7.875263635659379702e-11
1.429999999999999882e-01 4.468285741410227274e-10
1.439999999999999891e-01 -9.948162293937912182e-10
1.449999999999999900e-01 2.175487845423873523e-10
1.459999999999999909e-01 1.206532207476129770e-09
1.469999999999999918e-01 -7.068121643527547349e-10
1.479999999999999927e-01 -3.503048684461163020e-10
1.489999999999999936e-01 8.398589601554817818e-10
1.499999999999999944e-01 -5.905673172712511132e-10
1.509999999999999953e-01 2.266735237010930604e-11
1.519999999999999962e-01 1.019001105717620703e-09
1.529999999999999971e-01 -9.110854848337623935e-10
1.539999999999999980e-01 1.446901765067565293e-10
1.549999999999999989e-01 7.637528942616711447e-10
1.559999999999999998e-01 -1.167894447817729997e-09
1.570000000000000007e-01 5.073455544568616915e-10
1.580000000000000016e-01 8.234911363924624084e-11
1.590000000000000024e-01 -7.850455285840496344e-10
1.600000000000000033e-01 2.576947544241647847e-09
1.610000000000000042e-01 3.345963062173495928e-09
1.620000000000000051e-01 1.167931884538120357e-08
1.630000000000000060e-01 3.039169982343992160e-08
1.640000000000000069e-01 6.147055842120607849e-08
1.650000000000000078e-01 1.108027021246016375e-07
1.660000000000000087e-01 1.632809443208316225e-07
1.670000000000000095e-01 2.177450397766733659e-07
1.680000000000000104e-01 2.759533401786029572e-07
1.690000000000000113e-01 3.520992493122321321e-07
1.700000000000000122e-01 4.460543436834996101e-07
1.710000000000000131e-01 5.513529117706639227e-07
1.719999999999999862e-01 6.932913265700335614e-07
1.729999999999999871e-01 8.659295076540729497e-07
1.739999999999999880e-01 1.063659283317974769e-06
1.749999999999999889e-01 1.296277901019493584e-06
1.759999999999999898e-01 1.594256787029735278e-06
1.769999999999999907e-01 1.946099018823588267e-06
1.779999999999999916e-01 2.369775984334410168e-06
1.789999999999999925e-01 2.875960944948019460e-06
1.799999999999999933e-01 3.471561740298056975e-06
1.809999999999999942e-01 4.198044280201429501e-06
1.819999999999999951e-01 5.053506356489378959e-06
1.829999999999999960e-01 6.075892997614573687e-06
1.839999999999999969e-01 7.279150850081350654e-06
1.849999999999999978e-01 8.704471838427707553e-06
1.859999999999999987e-01 1.038630580296739936e-05
1.869999999999999996e-01 1.236819207406369969e-05
1.880000000000000004e-01 1.469185735913924873e-05
1.890000000000000013e-01 1.741384767228737473e-05
1.900000000000000022e-01 2.059467260551173240e-05
1.910000000000000031e-01 2.430464701319579035e-05
1.920000000000000040e-01 2.861934626707807183e-05
1.930000000000000049e-01 3.362688221386633813e-05
1.940000000000000058e-01 3.942310650018043816e-05
1.950000000000000067e-01 4.611728945747017860e-05
1.960000000000000075e-01 5.383222742239013314e-05
1.970000000000000084e-01 6.269633013289421797e-05
1.980000000000000093e-01 7.286438631126657128e-05
1.990000000000000102e-01 8.449143206235021353e-05
2.000000000000000111e-01 9.776419756235554814e-05
2.010000000000000120e-01 1.128636140492744744e-04
2.020000000000000129e-01 1.300159638049080968e-04
2.030000000000000138e-01 1.494347961852326989e-04
2.039999999999999869e-01 1.713818346615880728e-04
2.049999999999999878e-01 1.961069065146148205e-04
2.059999999999999887e-01 2.239016321254894137e-04
2.069999999999999896e-01 2.550588396843522787e-04
2.079999999999999905e-01 2.899007522501051426e-04
2.089999999999999913e-01 3.287628642283380032e-04
2.099999999999999922e-01 3.719811793416738510e-04
2.109999999999999931e-01 4.199343093205243349e-04
2.119999999999999940e-01 4.729731590487062931e-04
2.129999999999999949e-01 5.315043381415307522e-04
2.139999999999999958e-01 5.958956317044794559e-04
2.149999999999999967e-01 6.665427354164421558e-04
2.159999999999999976e-01 7.438389002345502377e-04
2.169999999999999984e-01 8.281425107270479202e-04
2.179999999999999993e-01 9.198591578751802444e-04
2.190000000000000002e-01 1.019300892949104309e-03
2.200000000000000011e-01 1.126817543990910053e-03
2.210000000000000020e-01 1.242703758180141449e-03
2.220000000000000029e-01 1.367187825962901115e-03
2.230000000000000038e-01 1.500531681813299656e-03
2.240000000000000047e-01 1.642834744416177273e-03
2.250000000000000056e-01 1.794227864593267441e-03
2.260000000000000064e-01 1.954720588400959969e-03
2.270000000000000073e-01 2.124224789440631866e-03
2.280000000000000082e-01 2.302652690559625626e-03
2.290000000000000091e-01 2.489673439413309097e-03
2.300000000000000100e-01 2.685007173568010330e-03
2.310000000000000109e-01 2.888131421059370041e-03
2.320000000000000118e-01 3.098463173955678940e-03
2.330000000000000127e-01 3.315316047519445419e-03
2.340000000000000135e-01 3.537779441103339195e-03
2.349999999999999867e-01 3.764908295124769211e-03
2.359999999999999876e-01 3.995550330728292465e-03
2.369999999999999885e-01 4.228422883898019791e-03
2.379999999999999893e-01 4.462135024368762970e-03
2.389999999999999902e-01 4.695121664553880692e-03
2.399999999999999911e-01 4.925684072077274323e-03
2.409999999999999920e-01 5.152042023837566376e-03
2.419999999999999929e-01 5.372234620153903961e-03
2.429999999999999938e-01 5.584245547652244568e-03
2.439999999999999947e-01 5.785952322185039520e-03
2.449999999999999956e-01 5.975131411105394363e-03
2.459999999999999964e-01 6.149546243250370026e-03
2.469999999999999973e-01 6.306898780167102814e-03
2.479999999999999982e-01 6.444866303354501724e-03
2.489999999999999991e-01 6.561170797795057297e-03
2.500000000000000000e-01 6.653553806245326996e-03
2.510000000000000009e-01 6.719798780977725983e-03
2.520000000000000018e-01 6.757839117199182510e-03
2.530000000000000027e-01 6.765681784600019455e-03
2.540000000000000036e-01 6.741499528288841248e-03
2.550000000000000044e-01 6.683666259050369263e-03
2.560000000000000053e-01 6.590746808797121048e-03
2.570000000000000062e-01 6.461538840085268021e-03
2.580000000000000071e-01 6.295133847743272781e-03
2.590000000000000080e-01 6.090885959565639496e-03
2.600000000000000089e-01 5.848450586199760437e-03
2.610000000000000098e-01 5.567849613726139069e-03
2.620000000000000107e-01 5.249410402029752731e-03
2.630000000000000115e-01 4.893819801509380341e-03
2.640000000000000124e-01 4.502145107835531235e-03
2.650000000000000133e-01 4.075801465660333633e-03
2.660000000000000142e-01 3.616554662585258484e-03
2.670000000000000151e-01 3.126545576378703117e-03
2.680000000000000160e-01 2.608253154903650284e-03
2.690000000000000169e-01 2.064459025859832764e-03
2.700000000000000178e-01 1.498281257227063179e-03
2.710000000000000187e-01 9.131043916568160057e-04
2.720000000000000195e-01 3.125437942799180746e-04
2.730000000000000204e-01 -2.995451795868575573e-04
2.740000000000000213e-01 -9.191337157972157001e-04
2.750000000000000222e-01 -1.542072626762092113e-03
2.760000000000000231e-01 -2.164111239835619926e-03
2.770000000000000240e-01 -2.780935261398553848e-03
2.780000000000000249e-01 -3.388248151168227196e-03
2.790000000000000258e-01 -3.981797490268945694e-03
2.800000000000000266e-01 -4.557400476187467575e-03
2.810000000000000275e-01 -5.111030302941799164e-03
2.819999999999999729e-01 -5.638846196234226227e-03
2.829999999999999738e-01 -6.137210410088300705e-03
2.839999999999999747e-01 -6.602756213396787643e-03
2.849999999999999756e-01 -7.032428868114948273e-03
2.859999999999999765e-01 -7.423494011163711548e-03
2.869999999999999774e-01 -7.773565594106912613e-03
2.879999999999999782e-01 -8.080661296844482422e-03
2.889999999999999791e-01 -8.343194611370563507e-03
2.899999999999999800e-01 -8.559972979128360748e-03
2.909999999999999809e-01 -8.730247616767883301e-03
2.919999999999999818e-01 -8.853689767420291901e-03
2.929999999999999827e-01 -8.930374868214130402e-03
2.939999999999999836e-01 -8.960792794823646545e-03
2.949999999999999845e-01 -8.945844136178493500e-03
2.959999999999999853e-01 -8.886796422302722931e-03
2.969999999999999862e-01 -8.785268291831016541e-03
2.979999999999999871e-01 -8.643211796879768372e-03
2.989999999999999880e-01 -8.462888188660144806e-03
2.999999999999999889e-01 -8.246801793575286865e-03
3.009999999999999898e-01 -7.997695356607437134e-03
3.019999999999999907e-01 -7.718518842011690140e-03
3.029999999999999916e-01 -7.412356790155172348e-03
3.039999999999999925e-01 -7.082409225404262543e-03
3.049999999999999933e-01 -6.731962319463491440e-03
3.059999999999999942e-01 -6.364343687891960144e-03
3.069999999999999951e-01 -5.982868839055299759e-03
3.079999999999999960e-01 -5.590821616351604462e-03
3.089999999999999969e-01 -5.191428121179342270e-03
3.099999999999999978e-01 -4.787810146808624268e-03
3.109999999999999987e-01 -4.382952116429805756e-03
3.119999999999999996e-01 -3.979701548814773560e-03
3.130000000000000004e-01 -3.580733435228466988e-03
3.140000000000000013e-01 -3.188516246154904366e-03
3.150000000000000022e-01 -2.805316122248768806e-03
3.160000000000000031e-01 -2.433189889416098595e-03
3.170000000000000040e-01 -2.073963405564427376e-03
3.180000000000000049e-01 -1.729221665300428867e-03
3.190000000000000058e-01 -1.400321489199995995e-03
3.200000000000000067e-01 -1.088397926650941372e-03
3.210000000000000075e-01 -7.943493546918034554e-04
3.220000000000000084e-01 -5.188485374674201012e-04
3.230000000000000093e-01 -2.623667242005467415e-04
3.240000000000000102e-01 -2.517498614906799048e-05
3.250000000000000111e-01 1.926542026922106743e-04
3.260000000000000120e-01 3.912168031092733145e-04
3.270000000000000129e-01 5.707626696676015854e-04
3.280000000000000138e-01 7.316872943192720413e-04
3.290000000000000147e-01 8.745218510739505291e-04
3.300000000000000155e-01 9.999022586271166801e-04
3.310000000000000164e-01 1.108550233766436577e-03
3.320000000000000173e-01 1.201274106279015541e-03
3.330000000000000182e-01 1.278950367122888565e-03
3.340000000000000191e-01 1.342494506388902664e-03
3.350000000000000200e-01 1.392852398566901684e-03
3.360000000000000209e-01 1.430997624993324280e-03
3.370000000000000218e-01 1.457913080230355263e-03
3.380000000000000226e-01 1.474573160521686077e-03
3.390000000000000235e-01 1.481936778873205185e-03
3.400000000000000244e-01 1.480951206758618355e-03
3.410000000000000253e-01 1.472532050684094429e-03
3.420000000000000262e-01 1.457551028579473495e-03
3.430000000000000271e-01 1.436844118870794773e-03
3.439999999999999725e-01 1.411210279911756516e-03
3.449999999999999734e-01 1.381392823532223701e-03
3.459999999999999742e-01 1.348079415038228035e-03
3.469999999999999751e-01 1.311913598328828812e-03
3.479999999999999760e-01 1.273491070605814457e-03
3.489999999999999769e-01 1.233347575180232525e-03
3.499999999999999778e-01 1.191966584883630276e-03
3.509999999999999787e-01 1.149784075096249580e-03
3.519999999999999796e-01 1.107195275835692883e-03
3.529999999999999805e-01 1.064539188519120216e-03
3.539999999999999813e-01 1.022109412588179111e-03
3.549999999999999822e-01 9.801681153476238251e-04
3.559999999999999831e-01 9.389357292093336582e-04
3.569999999999999840e-01 8.985925815068185329e-04
3.579999999999999849e-01 8.592877420596778393e-04
3.589999999999999858e-01 8.211449603550136089e-04
3.599999999999999867e-01 7.842609193176031113e-04
3.609999999999999876e-01 7.487036054953932762e-04
3.619999999999999885e-01 7.145188283175230026e-04
3.629999999999999893e-01 6.817407556809484959e-04
3.639999999999999902e-01 6.503857439383864403e-04
3.649999999999999911e-01 6.204472156241536140e-04
3.659999999999999920e-01 5.919100949540734291e-04
3.669999999999999929e-01 5.647531361319124699e-04
3.679999999999999938e-01 5.389442085288465023e-04
3.689999999999999947e-01 5.144375027157366276e-04
3.699999999999999956e-01 4.911853466182947159e-04
3.709999999999999964e-01 4.691413196269422770e-04
3.719999999999999973e-01 4.482560616452246904e-04
3.729999999999999982e-01 4.284720052964985371e-04
3.739999999999999991e-01 4.097353084944188595e-04
3.750000000000000000e-01 3.919976588804274797e-04
3.760000000000000009e-01 3.752052725758403540e-04
3.770000000000000018e-01 3.592965367715805769e-04
3.780000000000000027e-01 3.442139714024960995e-04
3.790000000000000036e-01 3.299008822068572044e-04
3.800000000000000044e-01 3.162942011840641499e-04
3.810000000000000053e-01 3.033284156117588282e-04
3.820000000000000062e-01 2.909415634348988533e-04
3.830000000000000071e-01 2.790778235066682100e-04
3.840000000000000080e-01 2.676777949091047049e-04
3.850000000000000089e-01 2.566799230407923460e-04
3.860000000000000098e-01 2.460235846228897572e-04
3.870000000000000107e-01 2.356485783820971847e-04
3.880000000000000115e-01 2.254834398627281189e-04
3.890000000000000124e-01 2.154480753233656287e-04
3.900000000000000133e-01 2.054601354757323861e-04
3.910000000000000142e-01 1.954338949872180820e-04
3.920000000000000151e-01 1.852743007475510240e-04
3.930000000000000160e-01 1.748779177432879806e-04
3.940000000000000169e-01 1.641351846046745777e-04
3.950000000000000178e-01 1.529298751847818494e-04
3.960000000000000187e-01 1.411284029018133879e-04
3.970000000000000195e-01 1.285748003283515573e-04
3.980000000000000204e-01 1.150981843238696456e-04
3.990000000000000213e-01 1.005144513328559697e-04
4.000000000000000222e-01 8.461576362606137991e-05
4.010000000000000231e-01 6.716942880302667618e-05
4.020000000000000240e-01 4.792621257365681231e-05
4.030000000000000249e-01 2.661551843630149961e-05
4.040000000000000258e-01 2.932930783572373912e-06
4.050000000000000266e-01 -2.346055589441675693e-05
4.060000000000000275e-01 -5.293439244269393384e-05
4.069999999999999729e-01 -8.589103526901453733e-05
4.079999999999999738e-01 -1.227707107318565249e-04
4.089999999999999747e-01 -1.640515110921114683e-04
4.099999999999999756e-01 -2.102448925143107772e-04
4.109999999999999765e-01 -2.618949511088430882e-04
4.119999999999999774e-01 -3.195902390871196985e-04
4.129999999999999782e-01 -3.839630808215588331e-04
4.139999999999999791e-01 -4.556839412543922663e-04
4.149999999999999800e-01 -5.354585009627044201e-04
4.159999999999999809e-01 -6.240286747924983501e-04
4.169999999999999818e-01 -7.221711566671729088e-04
4.179999999999999827e-01 -8.306877571158111095e-04
4.189999999999999836e-01 -9.503976907581090927e-04
4.199999999999999845e-01 -1.082139788195490837e-03
4.209999999999999853e-01 -1.226772321388125420e-03
4.220000999999999891e-01 -1.385156530886888504e-03
4.229999999999999871e-01 -1.558144460432231426e-03
4.239999999999999880e-01 -1.746569061651825905e-03
4.249999999999999889e-01 -1.951239188201725483e-03
4.259999999999999898e-01 -2.172917127609252930e-03
4.269999999999999907e-01 -2.412303583696484566e-03
4.279999999999999916e-01 -2.670030808076262474e-03
4.289999999999999925e-01 -2.946646884083747864e-03
4.299999999999999933e-01 -3.242594655603170395e-03
4.309999999999999942e-01 -3.558188211172819138e-03
4.319999999999999951e-01 -3.893596818670630455e-03
4.329999999999999960e-01 -4.248826298862695694e-03
4.339999999999999969e-01 -4.623696673661470413e-03
4.349999999999999978e-01 -5.017821677029132843e-03
4.359999999999999987e-01 -5.430593155324459076e-03
4.369999999999999996e-01 -5.861168261617422104e-03
4.380000000000000004e-01 -6.308445706963539124e-03
4.390000000000000013e-01 -6.771045736968517303e-03
4.400000000000000022e-01 -7.247297558933496475e-03
4.410000000000000031e-01 -7.735229562968015671e-03
4.420000000000000040e-01 -8.232563734054565430e-03
4.430000000000000049e-01 -8.736707270145416260e-03
4.440000000000000058e-01 -9.244751185178756714e-03
4.450000000000000067e-01 -9.753474965691566467e-03
4.460000000000000075e-01 -1.025935728102922440e-02
4.470000000000000084e-01 -1.075857412070035934e-02
4.480000000000000093e-01 -1.124702021479606628e-02
4.490000000000000102e-01 -1.172032952308654785e-02
4.500000000000000111e-01 -1.217391435056924820e-02
4.510000000000000120e-01 -1.260298676788806915e-02
4.520000000000000129e-01 -1.300259679555892944e-02
4.530000000000000138e-01 -1.336767897009849548e-02
4.540000000000000147e-01 -1.369309704750776291e-02
4.550000000000000155e-01 -1.397369615733623505e-02
4.560000000000000164e-01 -1.420435402542352676e-02
4.570000000000000173e-01 -1.438004802912473679e-02
4.580000000000000182e-01 -1.449591945856809616e-02
4.590001000000000220e-01 -1.454733964055776596e-02
4.600000000000000200e-01 -1.452996674925088882e-02
4.610000000000000209e-01 -1.443981751799583435e-02
4.620000000000000218e-01 -1.427333522588014603e-02
4.630000000000000226e-01 -1.402744930237531662e-02
4.640000000000000235e-01 -1.369963586330413818e-02
4.650000000000000244e-01 -1.328798197209835052e-02
4.660000000000000253e-01 -1.279123965650796890e-02
4.670000000000000262e-01 -1.220887154340744019e-02
4.680000000000000271e-01 -1.154108438640832901e-02
4.689999999999999725e-01 -1.078885886818170547e-02
4.699999999999999734e-01 -9.953979402780532837e-03
4.709999999999999742e-01 -9.039052762091159821e-03
4.719999999999999751e-01 -8.047503419220447540e-03
4.729999999999999760e-01 -6.983571685850620270e-03