-1.199999999999999956e-01 0.000000000000000000e+00
-1.189999999999999947e-01 0.000000000000000000e+00
-1.179999999999999938e-01 0.000000000000000000e+00
-1.170000000000000068e-01 0.000000000000000000e+00
-1.160000000000000059e-01 0.000000000000000000e+00
-1.150000000000000050e-01 0.000000000000000000e+00
-1.140000000000000041e-01 0.000000000000000000e+00
-1.130000000000000032e-01 0.000000000000000000e+00
-1.120000000000000023e-01 0.000000000000000000e+00
-1.110000000000000014e-01 0.000000000000000000e+00
-1.100000000000000006e-01 0.000000000000000000e+00
-1.089999999999999997e-01 0.000000000000000000e+00
-1.079999999999999988e-01 0.000000000000000000e+00
-1.069999999999999979e-01 0.000000000000000000e+00
-1.059999999999999970e-01 0.000000000000000000e+00
-1.049999999999999961e-01 0.000000000000000000e+00
-1.039999999999999952e-01 0.000000000000000000e+00
-1.029999999999999943e-01 0.000000000000000000e+00
-1.019999999999999934e-01 0.000000000000000000e+00
-1.010000000000000064e-01 0.000000000000000000e+00
-1.000000000000000056e-01 0.000000000000000000e+00
-9.900000999999999940e-02 0.000000000000000000e+00
-9.800000000000000377e-02 0.000000000000000000e+00
-9.700000000000000289e-02 0.000000000000000000e+00
-9.600000000000000200e-02 0.000000000000000000e+00
-9.500000999999999585e-02 0.000000000000000000e+00
-9.400000000000000022e-02 0.000000000000000000e+00
-9.299999999999999933e-02 0.000000000000000000e+00
-9.200000999999999318e-02 0.000000000000000000e+00
-9.100001000000000617e-02 0.000000000000000000e+00
-8.999999999999999667e-02 0.000000000000000000e+00
-8.899999999999999578e-02 0.000000000000000000e+00
-8.799999999999999489e-02 0.000000000000000000e+00
-8.699999999999999400e-02 0.000000000000000000e+00
-8.599999999999999312e-02 0.000000000000000000e+00
-8.500001000000000084e-02 0.000000000000000000e+00
-8.400000999999999995e-02 0.000000000000000000e+00
-8.300000000000000433e-02 0.000000000000000000e+00
-8.200000000000000344e-02 0.000000000000000000e+00
-8.100000000000000255e-02 0.000000000000000000e+00
-8.000000000000000167e-02 0.000000000000000000e+00
-7.900000000000000078e-02 0.000000000000000000e+00
-7.799999999999999989e-02 0.000000000000000000e+00
-7.700000999999999374e-02 0.000000000000000000e+00
-7.600001000000000673e-02 0.000000000000000000e+00
-7.499999999999999722e-02 0.000000000000000000e+00
-7.399999999999999634e-02 0.000000000000000000e+00
-7.299999999999999545e-02 0.000000000000000000e+00
-7.199999999999999456e-02 0.000000000000000000e+00
-7.099999999999999367e-02 0.000000000000000000e+00
-7.000001000000000140e-02 0.000000000000000000e+00
-6.900001000000000051e-02 0.000000000000000000e+00
-6.800000000000000488e-02 0.000000000000000000e+00
-6.700000000000000400e-02 0.000000000000000000e+00
-6.600000000000000311e-02 0.000000000000000000e+00
-6.500000000000000222e-02 0.000000000000000000e+00
-6.400000000000000133e-02 0.000000000000000000e+00
-6.300000000000000044e-02 0.000000000000000000e+00
-6.199999999999999956e-02 0.000000000000000000e+00
-6.099999999999999867e-02 0.000000000000000000e+00
-5.999999999999999778e-02 0.000000000000000000e+00
-5.899999999999999689e-02 0.000000000000000000e+00
-5.800000000000000294e-02 -9.809089250273719496e-45
-5.700000000000000205e-02 6.422851511232799045e-41
-5.600000000000000117e-02 -2.225458143132814983e-37
-5.500000000000000028e-02 3.980551724605549531e-34
-5.400001000000000106e-02 -3.485679527659989444e-31
-5.299999999999999850e-02 1.351512671788993017e-28
-5.199999999999999761e-02 -1.800461001114251721e-26
-5.099999999999999672e-02 -1.643268293871716592e-26
-5.000000000000000278e-02 4.118758906484151169e-23
-4.900000000000000189e-02 1.807588557594226000e-21
-4.800000000000000100e-02 4.663008075360643112e-20
-4.700000000000000011e-02 9.811503574124231402e-19
-4.599999999999999922e-02 1.984459725382284318e-17
-4.499999999999999833e-02 3.773278199529323754e-16
-4.399999999999999745e-02 5.866977944321647570e-15
-4.299999999999999656e-02 6.549970255845943834e-14
-4.200000000000000261e-02 4.614552555175233106e-13
-4.100000000000000172e-02 1.451505148714060667e-12
-4.000000000000000083e-02 -4.895330668608366409e-12
-3.899999999999999994e-02 -6.914702838090036607e-11
-3.799999999999999906e-02 -2.825367717562698999e-10
-3.699999999999999817e-02 -4.384023422066007925e-10
-3.599999999999999728e-02 3.575841844849492190e-10
-3.500000000000000333e-02 2.075346561269952872e-09
-3.400000000000000244e-02 1.899390200676975837e-09
-3.300000000000000155e-02 -1.551166972646456088e-10
-3.200000000000000067e-02 7.378097022225915680e-10
-3.099999999999999978e-02 1.413436034880533043e-09
-2.999999999999999889e-02 -7.390310585719817027e-10
-2.900000000000000147e-02 4.501498618303401145e-10
-2.800000000000000058e-02 -4.470178394111457010e-10
-2.699999999999999969e-02 -1.069218602545163321e-09
-2.599999999999999881e-02 3.235462731066007791e-10
-2.500000000000000139e-02 -9.285310853535122533e-10
-2.400000000000000050e-02 1.214445544128750498e-09
-2.299999999999999961e-02 -1.959332002199332123e-10
-2.199999999999999872e-02 1.028982565820513173e-09
-2.100000000000000130e-02 -5.539572689450267262e-10
-2.000000000000000042e-02 3.657282462987687666e-11
-1.899999999999999953e-02 -8.420326658153953758e-10
-1.799999999999999864e-02 6.335965606341087408e-12
-1.700000000000000122e-02 -4.905247319442196385e-10
-1.600000000000000033e-02 1.029183058220972669e-10
-1.499999999999999944e-02 -7.424690862123384250e-10
-1.400000000000000029e-02 1.929609944051335901e-11
-1.299999999999999940e-02 -7.522159006789763680e-10
-1.200000000000000025e-02 4.713340273632127264e-10
-1.099999999999999936e-02 -5.814413395199835577e-10
-9.999997999999999526e-03 8.177097887696049838e-10
-8.999995999999999691e-03 -8.171280319047014018e-10
-8.000000999999999640e-03 6.612719399834432465e-11
-6.999998999999999805e-03 -1.075996847177407290e-09
-5.999996999999999969e-03 1.093658941186959055e-09
-5.000003000000000260e-03 4.578915024922025623e-10
-4.000001000000000424e-03 -3.595201358841393358e-10
-2.999999000000000155e-03 -3.207374643654503643e-10
-1.999996999999999886e-03 -2.897358186704224181e-10
-1.000002000000000052e-03 -2.765638162927075427e-09
0.000000000000000000e+00 -1.729040910447565693e-08
1.000002000000000052e-03 -4.767130690197518561e-08
2.000004000000000105e-03 -9.539801482105758623e-08
2.999999000000000155e-03 -1.326057343931097421e-07
4.000001000000000424e-03 -1.702767207234501257e-07
4.999995000000000134e-03 -2.313625202532421099e-07
5.999996999999999969e-03 -2.875124494039482670e-07
6.999998999999999805e-03 -3.620147595029266085e-07
8.000000999999999640e-03 -4.550840344563766848e-07
9.000002999999999476e-03 -5.666739184562175069e-07
1.000001000000000015e-02 -7.030741926428163424e-07
1.100000999999999930e-02 -8.598462954978458583e-07
1.199999000000000031e-02 -1.056289193002157845e-06
1.299999999999999940e-02 -1.290750674343144055e-06
1.400000000000000029e-02 -1.576041313455789350e-06
1.499999999999999944e-02 -1.917447661980986595e-06
1.600000000000000033e-02 -2.318053020644583739e-06
1.700000000000000122e-02 -2.805789790727430955e-06
1.800001000000000032e-02 -3.383525154276867397e-06
1.900001000000000120e-02 -4.074660409969510511e-06
2.000000000000000042e-02 -4.893593995802802965e-06
2.100000000000000130e-02 -5.856813459104159847e-06
2.199999999999999872e-02 -7.001995072641875595e-06
2.299999999999999961e-02 -8.352130862476769835e-06
2.400000000000000050e-02 -9.938428775058127940e-06
2.500000999999999959e-02 -1.180095023300964385e-05
2.600001000000000048e-02 -1.397811684000771493e-05
2.699999999999999969e-02 -1.652256105444394052e-05
2.800000000000000058e-02 -1.949014222191181034e-05
2.900000000000000147e-02 -2.293949910381343216e-05
2.999999999999999889e-02 -2.693752503546420485e-05
3.099999999999999978e-02 -3.156039747409522533e-05
3.200001000000000234e-02 -3.689922959893010557e-05
3.300001000000000323e-02 -4.304672984289936721e-05
3.400000999999999718e-02 -5.010315726394765079e-05
3.500000000000000333e-02 -5.818823774461634457e-05
3.599999999999999728e-02 -6.742723053321242332e-05
3.699999999999999817e-02 -7.795743294991552830e-05
3.799999999999999906e-02 -8.993242227006703615e-05
3.899999999999999994e-02 -1.035126406350173056e-04
4.000001000000000251e-02 -1.188740134239196777e-04
4.100001000000000340e-02 -1.362056791549548507e-04
4.200000000000000261e-02 -1.557071664137765765e-04
4.299999999999999656e-02 -1.775967830326408148e-04
4.399999999999999745e-02 -2.021003019763156772e-04
4.499999999999999833e-02 -2.294510632054880261e-04
4.599999999999999922e-02 -2.599007275421172380e-04
4.700001000000000179e-02 -2.937075041700154543e-04
4.800001000000000267e-02 -3.311346517875790596e-04
4.900000999999999662e-02 -3.724569105543196201e-04
5.000000000000000278e-02 -4.179411625955253839e-04
5.099999999999999672e-02 -4.678643890656530857e-04
5.199999999999999761e-02 -5.225057830102741718e-04
5.299999999999999850e-02 -5.821055383421480656e-04
5.400001000000000106e-02 -6.469569052569568157e-04
5.500001000000000195e-02 -7.172543555498123169e-04
5.600001000000000284e-02 -7.932340377010405064e-04
5.700000000000000205e-02 -8.751243585720658302e-04
5.800000000000000294e-02 -9.629840496927499771e-04
5.899999999999999689e-02 -1.057064160704612732e-03
5.999999999999999778e-02 -1.157336635515093803e-03
6.099999999999999867e-02 -1.263863989152014256e-03
6.200001000000000123e-02 -1.376622240059077740e-03
6.300000999999999518e-02 -1.495509524829685688e-03
6.400000999999999607e-02 -1.620305120013654232e-03
6.500000000000000222e-02 -1.750826253555715084e-03
6.600000000000000311e-02 -1.886686310172080994e-03
6.700000000000000400e-02 -2.027456415817141533e-03
6.800000000000000488e-02 -2.172602806240320206e-03
6.900001000000000051e-02 -2.321528270840644836e-03
7.000001000000000140e-02 -2.473419066518545151e-03
7.100001000000000229e-02 -2.627466572448611259e-03
7.199999999999999456e-02 -2.782693365588784218e-03
7.299999999999999545e-02 -2.938021207228302956e-03
7.399999999999999634e-02 -3.092213068157434464e-03
7.499999999999999722e-02 -3.244009101763367653e-03
7.600001000000000673e-02 -3.391984151676297188e-03
7.700000999999999374e-02 -3.534592455253005028e-03
7.800000999999999463e-02 -3.670247737318277359e-03
7.900000999999999551e-02 -3.797259880229830742e-03
8.000000000000000167e-02 -3.913870546966791153e-03
8.100000000000000255e-02 -4.018220119178295135e-03
8.200000000000000344e-02 -4.108493216335773468e-03
8.300000000000000433e-02 -4.182795062661170959e-03
8.400000999999999995e-02 -4.239226691424846649e-03
8.500001000000000084e-02 -4.275926854461431503e-03
8.600001000000000173e-02 -4.291077144443988800e-03
8.700001000000000262e-02 -4.282942041754722595e-03
8.799999999999999489e-02 -4.249816294759511948e-03
8.899999999999999578e-02 -4.190169740468263626e-03
8.999999999999999667e-02 -4.102598875761032104e-03
9.100001000000000617e-02 -3.985844552516937256e-03
9.200000999999999318e-02 -3.838840639218688011e-03
9.300000999999999407e-02 -3.660727525129914284e-03
9.400000999999999496e-02 -3.450929885730147362e-03
9.500000000000000111e-02 -3.209077054634690285e-03
9.600000000000000200e-02 -2.935097087174654007e-03
9.700000000000000289e-02 -2.629256807267665863e-03
9.800000000000000377e-02 -2.292104298248887062e-03
9.900000999999999940e-02 -1.924519427120685577e-03
1.000000000000000056e-01 -1.527681597508490086e-03
1.010000000000000064e-01 -1.103122369386255741e-03
1.019999999999999934e-01 -6.526974611915647984e-04
1.029999999999999943e-01 -1.785376080079004169e-04
1.039999999999999952e-01 3.168775292579084635e-04
1.049999999999999961e-01 8.307704702019691467e-04
1.059999999999999970e-01 1.360076479613780975e-03
1.069999999999999979e-01 1.901470241136848927e-03
1.079999999999999988e-01 2.451423089951276779e-03
1.089999999999999997e-01 3.006163518875837326e-03
1.100000000000000006e-01 3.561774501577019691e-03
1.110000000000000014e-01 4.114240407943725586e-03
1.120000000000000023e-01 4.659417551010847092e-03
1.130000000000000032e-01 5.193107761442661285e-03
1.140000000000000041e-01 5.711081437766551971e-03
1.150000000000000050e-01 6.209140643477439880e-03
1.160000000000000059e-01 6.683165673166513443e-03
1.170000000000000068e-01 7.129107136279344559e-03
1.179999999999999938e-01 7.543081883341073990e-03
1.189999999999999947e-01 7.921404205262660980e-03
1.199999999999999956e-01 8.260576985776424408e-03
1.209999999999999964e-01 8.557345718145370483e-03
1.219999999999999973e-01 8.808705955743789673e-03
1.229999999999999982e-01 9.011942893266677856e-03
1.239999999999999991e-01 9.164676070213317871e-03
1.250000000000000000e-01 9.264813736081123352e-03
1.260000000000000009e-01 9.310608729720115662e-03
1.270000000000000018e-01 9.300665929913520813e-03
1.280000000000000027e-01 9.233903139829635620e-03
1.290000000000000036e-01 9.109560400247573853e-03
1.300000000000000044e-01 8.927184157073497772e-03
1.310000000000000053e-01 8.686620742082595825e-03
1.320000000000000062e-01 8.388038724660873413e-03
1.330000000000000071e-01 8.031846024096012115e-03
1.340000000000000080e-01 7.618695031851530075e-03
1.350000000000000089e-01 7.149476092308759689e-03
1.360000000000000098e-01 6.625254172831773758e-03
1.370000000000000107e-01 6.047258619219064713e-03
1.380000000000000115e-01 5.416861735284328461e-03
1.390000000000000124e-01 4.735545255243778229e-03
1.400000000000000133e-01 4.004917573183774948e-03
1.409999999999999865e-01 3.226665081456303596e-03
1.419999999999999873e-01 2.402501879259943962e-03
1.429999999999999882e-01 1.534204115159809589e-03
1.439999999999999891e-01 6.235853652469813824e-04
1.449999999999999900e-01 -3.275151248089969158e-04
1.459999999999999909e-01 -1.317214802838861942e-03
1.469999999999999918e-01 -2.343593863770365715e-03
1.479999999999999927e-01 -3.404670162126421928e-03
1.489999999999999936e-01 -4.498382098972797394e-03
1.499999999999999944e-01 -5.622607655823230743e-03
1.509999999999999953e-01 -6.775113288313150406e-03
1.519999999999999962e-01 -7.953502237796783447e-03
1.529999999999999971e-01 -9.155208244919776917e-03
1.539999999999999980e-01 -1.037744153290987015e-02
1.549999999999999989e-01 -1.161716133356094360e-02
1.559999999999999998e-01 -1.287105306982994080e-02
1.570000000000000007e-01 -1.413545943796634674e-02
1.580000000000000016e-01 -1.540636736899614334e-02
1.590000000000000024e-01 -1.667938381433486938e-02
1.600000000000000033e-01 -1.794966869056224823e-02
1.610000000000000042e-01 -1.921190693974494934e-02
1.620000000000000051e-01 -2.046032622456550598e-02
1.630000000000000060e-01 -2.168866991996765137e-02
1.640000000000000069e-01 -2.289019152522087097e-02
1.650000000000000078e-01 -2.405766956508159637e-02
1.660000000000000087e-01 -2.518338337540626526e-02
1.670000000000000095e-01 -2.625917643308639526e-02
1.680000000000000104e-01 -2.727649360895156860e-02
1.690000000000000113e-01 -2.822639606893062592e-02
1.700000000000000122e-01 -2.909965813159942627e-02
1.710000000000000131e-01 -2.988684549927711487e-02
1.719999999999999862e-01 -3.057836182415485382e-02
1.729999999999999871e-01 -3.116457536816596985e-02
1.739999999999999880e-01 -3.163589537143707275e-02
1.749999999999999889e-01 -3.198288753628730774e-02
1.759999999999999898e-01 -3.219643235206604004e-02
1.769999999999999907e-01 -3.226783871650695801e-02
1.779999999999999916e-01 -3.218895196914672852e-02
1.789999999999999925e-01 -3.195229172706604004e-02
1.799999999999999933e-01 -3.155121952295303345e-02
1.809999999999999942e-01 -3.098002821207046509e-02
1.819999999999999951e-01 -3.023409098386764526e-02
1.829999999999999960e-01 -2.930999174714088440e-02
1.839999999999999969e-01 -2.820562198758125305e-02
1.849999999999999978e-01 -2.692030370235443115e-02
1.859999999999999987e-01 -2.545485645532608032e-02
1.869999999999999996e-01 -2.381165325641632080e-02
1.880000000000000004e-01 -2.199470810592174530e-02
1.890000000000000013e-01 -2.000970393419265747e-02
1.900000000000000022e-01 -1.786400191485881805e-02
1.910000000000000031e-01 -1.556664519011974335e-02
1.920000000000000040e-01 -1.312830485403537750e-02
1.930000000000000049e-01 -1.056123338639736176e-02
1.940000000000000058e-01 -7.879209704697132111e-03
1.950000000000000067e-01 -5.097417626529932022e-03
1.960000000000000075e-01 -2.232328522950410843e-03
1.970000000000000084e-01 6.984231295064091682e-04
1.980000000000000093e-01 3.676201449707150459e-03
1.990000000000000102e-01 6.681578699499368668e-03
2.000000000000000111e-01 9.694504551589488983e-03
2.010000000000000120e-01 1.269451342523097992e-02
2.020000000000000129e-01 1.566093973815441132e-02
2.030000000000000138e-01 1.857312209904193878e-02
2.039999999999999869e-01 2.141064032912254333e-02
2.049999999999999878e-01 2.415356226265430450e-02
2.059999999999999887e-01 2.678263373672962189e-02
2.069999999999999896e-01 2.927949465811252594e-02
2.079999999999999905e-01 3.162689134478569031e-02
2.089999999999999913e-01 3.380886092782020569e-02
2.099999999999999922e-01 3.581090271472930908e-02
2.109999999999999931e-01 3.762013837695121765e-02
2.119999999999999940e-01 3.922544047236442566e-02
2.129999999999999949e-01 4.061755537986755371e-02
2.139999999999999958e-01 4.178919270634651184e-02
2.149999999999999967e-01 4.273505136370658875e-02
2.159999999999999976e-01 4.345188289880752563e-02
2.169999999999999984e-01 4.393849894404411316e-02
2.179999999999999993e-01 4.419575259089469910e-02
2.190000000000000002e-01 4.422648996114730835e-02
2.200000000000000011e-01 4.403549432754516602e-02
2.210000000000000020e-01 4.362937808036804199e-02
2.220000000000000029e-01 4.301646351814270020e-02
2.230000000000000038e-01 4.220668226480484009e-02
2.240000000000000047e-01 4.121140018105506897e-02
2.250000000000000056e-01 4.004326462745666504e-02
2.260000000000000064e-01 3.871603682637214661e-02
2.270000000000000073e-01 3.724440559744834900e-02
2.280000000000000082e-01 3.564378619194030762e-02
2.290000000000000091e-01 3.393013775348663330e-02
2.300000000000000100e-01 3.211976587772369385e-02
2.310000000000000109e-01 3.022916242480278015e-02
2.320000000000000118e-01 2.827480062842369080e-02
2.330000000000000127e-01 2.627297118306159973e-02
2.340000000000000135e-01 2.423958666622638702e-02
2.349999999999999867e-01 2.219006977975368500e-02
2.359999999999999876e-01 2.013919688761234283e-02
2.369999999999999885e-01 1.810098253190517426e-02
2.379999999999999893e-01 1.608856394886970520e-02
2.389999999999999902e-01 1.411412376910448074e-02
2.399999999999999911e-01 1.218879316002130508e-02
2.409999999999999920e-01 1.032260991632938385e-02
2.419999999999999929e-01 8.524482138454914093e-03
2.429999999999999938e-01 6.802160292863845825e-03
2.439999999999999947e-01 5.162230692803859711e-03
2.449999999999999956e-01 3.610137151554226875e-03
2.459999999999999964e-01 2.150181913748383522e-03
2.469999999999999973e-01 7.855542353354394436e-04
2.479999999999999982e-01 -4.816048021893948317e-04
2.489999999999999991e-01 -1.650145277380943298e-03
2.500000000000000000e-01 -2.719851210713386536e-03
2.510000000000000009e-01 -3.691370366141200066e-03
2.520000000000000018e-01 -4.566147457808256149e-03
2.530000000000000027e-01 -5.346346180886030197e-03
2.540000000000000036e-01 -6.034749560058116913e-03
2.550000000000000044e-01 -6.634683813899755478e-03
2.560000000000000053e-01 -7.149951532483100891e-03
2.570000000000000062e-01 -7.584729697555303574e-03
2.580000000000000071e-01 -7.943499833345413208e-03
2.590000000000000080e-01 -8.230987936258316040e-03
2.600000000000000089e-01 -8.452076464891433716e-03
2.610000000000000098e-01 -8.611744269728660583e-03
2.620000000000000107e-01 -8.715003728866577148e-03
2.630000000000000115e-01 -8.766837418079376221e-03
2.640000000000000124e-01 -8.772154338657855988e-03
2.650000000000000133e-01 -8.735765703022480011e-03
2.660000000000000142e-01 -8.662336505949497223e-03
2.670000000000000151e-01 -8.556335233151912689e-03
2.680000000000000160e-01 -8.422012440860271454e-03
2.690000000000000169e-01 -8.263394236564636230e-03
2.700000000000000178e-01 -8.084260858595371246e-03
2.710000000000000187e-01 -7.888139225542545319e-03
2.720000000000000195e-01 -7.678295485675334930e-03
2.730000000000000204e-01 -7.457718718796968460e-03
2.740000000000000213e-01 -7.229131646454334259e-03
2.750000000000000222e-01 -6.995001342147588730e-03
2.760000000000000231e-01 -6.757533643394708633e-03
2.770000000000000240e-01 -6.518686190247535706e-03
2.780000000000000249e-01 -6.280193105340003967e-03
2.790000000000000258e-01 -6.043562665581703186e-03
2.800000000000000266e-01 -5.810081493109464645e-03
2.810000000000000275e-01 -5.580847151577472687e-03
2.819999999999999729e-01 -5.356773734092712402e-03
2.829999999999999738e-01 -5.138605367392301559e-03
2.839999999999999747e-01 -4.926951136440038681e-03
2.849999999999999756e-01 -4.722280427813529968e-03
2.859999999999999765e-01 -4.524924326688051224e-03
2.869999999999999774e-01 -4.335106350481510162e-03
2.879999999999999782e-01 -4.152966197580099106e-03
2.889999999999999791e-01 -3.978557884693145752e-03
2.899999999999999800e-01 -3.811863716691732407e-03
2.909999999999999809e-01 -3.652806626632809639e-03
2.919999999999999818e-01 -3.501253668218851089e-03
2.929999999999999827e-01 -3.357028588652610779e-03
2.939999999999999836e-01 -3.219923935830593109e-03
2.949999999999999845e-01 -3.089707810431718826e-03
2.959999999999999853e-01 -2.966125262901186943e-03
2.969999999999999862e-01 -2.848914824426174164e-03
2.979999999999999871e-01 -2.737801987677812576e-03
2.989999999999999880e-01 -2.632495015859603882e-03
2.999999999999999889e-01 -2.532708691433072090e-03
3.009999999999999898e-01 -2.438163617625832558e-03
3.019999999999999907e-01 -2.348583424463868141e-03
3.029999999999999916e-01 -2.263700822368264198e-03
3.039999999999999925e-01 -2.183253644034266472e-03
3.049999999999999933e-01 -2.106977626681327820e-03
3.059999999999999942e-01 -2.034623641520738602e-03
3.069999999999999951e-01 -1.965967239812016487e-03
3.079999999999999960e-01 -1.900789560750126839e-03
3.089999999999999969e-01 -1.838874421082437038e-03
3.099999999999999978e-01 -1.780022168532013893e-03
3.109999999999999987e-01 -1.724045840092003345e-03
3.119999999999999996e-01 -1.670762663707137108e-03
3.130000000000000004e-01 -1.620009075850248337e-03
3.140000000000000013e-01 -1.571632921695709229e-03
3.150000000000000022e-01 -1.525487750768661499e-03
3.160000000000000031e-01 -1.481438637711107731e-03
3.170000000000000040e-01 -1.439358107745647430e-03
3.180000000000000049e-01 -1.399121945723891258e-03
3.190000000000000058e-01 -1.360617810860276222e-03
3.200000000000000067e-01 -1.323752920143306255e-03
3.210000000000000075e-01 -1.288433792069554329e-03
3.220000000000000084e-01 -1.254567876458168030e-03
3.230000000000000093e-01 -1.222070306539535522e-03
3.240000000000000102e-01 -1.190858776681125164e-03
3.250000000000000111e-01 -1.160863437689840794e-03
3.260000000000000120e-01 -1.132027129642665386e-03
3.270000000000000129e-01 -1.104290597140789032e-03
3.280000000000000138e-01 -1.077585504390299320e-03
3.290000000000000147e-01 -1.051856321282684803e-03
3.300000000000000155e-01 -1.027057063765823841e-03
3.310000000000000164e-01 -1.003140700049698353e-03
3.320000000000000173e-01 -9.800634579733014107e-04
3.330000000000000182e-01 -9.577886667102575302e-04
3.340000000000000191e-01 -9.362751734443008900e-04
3.350000000000000200e-01 -9.154828730970621109e-04
3.360000000000000209e-01 -8.953797514550387859e-04
3.370000000000000218e-01 -8.759340271353721619e-04
3.380000000000000226e-01 -8.571159560233354568e-04
3.390000000000000235e-01 -8.389028953388333321e-04
3.400000000000000244e-01 -8.212681277655065060e-04
3.410000000000000253e-01 -8.041800465434789658e-04
3.420000000000000262e-01 -7.876140298321843147e-04
3.430000000000000271e-01 -7.715504616498947144e-04
3.439999999999999725e-01 -7.559719961136579514e-04
3.449999999999999734e-01 -7.408614619635045528e-04
3.459999999999999742e-01 -7.261988939717411995e-04
3.469999999999999751e-01 -7.119580986909568310e-04
3.479999999999999760e-01 -6.981207989156246185e-04
3.489999999999999769e-01 -6.846805918030440807e-04
3.499999999999999778e-01 -6.716247298754751682e-04
3.509999999999999787e-01 -6.589335389435291290e-04
3.519999999999999796e-01 -6.465921760536730289e-04
3.529999999999999805e-01 -6.345880101434886456e-04
3.539999999999999813e-01 -6.229057908058166504e-04
3.549999999999999822e-01 -6.115367286838591099e-04
3.559999999999999831e-01 -6.004737224429845810e-04
3.569999999999999840e-01 -5.897038499824702740e-04
3.579999999999999849e-01 -5.792147130705416203e-04
3.589999999999999858e-01 -5.689968820661306381e-04
3.599999999999999867e-01 -5.590376676991581917e-04
3.609999999999999876e-01 -5.493290955200791359e-04
3.619999999999999885e-01 -5.398691864684224129e-04
3.629999999999999893e-01 -5.306496750563383102e-04
3.639999999999999902e-01 -5.216575809754431248e-04
3.649999999999999911e-01 -5.128838238306343555e-04
3.659999999999999920e-01 -5.043209530413150787e-04
3.669999999999999929e-01 -4.959632642567157745e-04
3.679999999999999938e-01 -4.878109029959887266e-04
3.689999999999999947e-01 -4.798574082087725401e-04
3.699999999999999956e-01 -4.720883734989911318e-04
3.709999999999999964e-01 -4.644950677175074816e-04
3.719999999999999973e-01 -4.570792661979794502e-04
3.729999999999999982e-01 -4.498365160543471575e-04
3.739999999999999991e-01 -4.427598905749619007e-04
3.750000000000000000e-01 -4.358454898465424776e-04
3.760000000000000009e-01 -4.290876968298107386e-04
3.770000000000000018e-01 -4.224765580147504807e-04
3.780000000000000027e-01 -4.160102980677038431e-04
3.790000000000000036e-01 -4.096893244422972202e-04
3.800000000000000044e-01 -4.035079618915915489e-04
3.810000000000000053e-01 -3.974619030486792326e-04
3.820000000000000062e-01 -3.915473062079399824e-04
3.830000000000000071e-01 -3.857556148432195187e-04
3.840000000000000080e-01 -3.800829581450670958e-04
3.850000000000000089e-01 -3.745326539501547813e-04
3.860000000000000098e-01 -3.691033052746206522e-04
3.870000000000000107e-01 -3.637874906416982412e-04
3.880000000000000115e-01 -3.585803788155317307e-04
3.890000000000000124e-01 -3.534769639372825623e-04
3.900000000000000133e-01 -3.484742192085832357e-04
3.910000000000000142e-01 -3.435762191656976938e-04
3.920000000000000151e-01 -3.387835458852350712e-04
3.930000000000000160e-01 -3.340848197694867849e-04
3.940000000000000169e-01 -3.294750349596142769e-04
3.950000000000000178e-01 -3.249550936743617058e-04
3.960000000000000187e-01 -3.205258108209818602e-04
3.970000000000000195e-01 -3.161836066283285618e-04
3.980000000000000204e-01 -3.119280445389449596e-04
3.990000000000000213e-01 -3.077544388361275196e-04
4.000000000000000222e-01 -3.036572597920894623e-04
4.010000000000000231e-01 -2.996372058987617493e-04
4.020000000000000240e-01 -2.956950920633971691e-04
4.030000000000000249e-01 -2.918269310612231493e-04
4.040000000000000258e-01 -2.880323154386132956e-04
4.050000000000000266e-01 -2.843105758074671030e-04
4.060000000000000275e-01 -2.806543197948485613e-04
4.069999999999999729e-01 -2.770619466900825500e-04
4.079999999999999738e-01 -2.735365123953670263e-04
4.089999999999999747e-01 -2.700776094570755959e-04
4.099999999999999756e-01 -2.666825894266366959e-04
4.109999999999999765e-01 -2.633495605550706387e-04
4.119999999999999774e-01 -2.600729640107601881e-04
4.129999999999999782e-01 -2.568488998804241419e-04
4.139999999999999791e-01 -2.536842366680502892e-04
4.149999999999999800e-01 -2.505816519260406494e-04
4.159999999999999809e-01 -2.475341025274246931e-04
4.169999999999999818e-01 -2.445345162414014339e-04
4.179999999999999827e-01 -2.415840135654434562e-04
4.189999999999999836e-01 -2.386848791502416134e-04
4.199999999999999845e-01 -2.358371712034568191e-04
4.209999999999999853e-01 -2.330412680748850107e-04
4.220000999999999891e-01 -2.302926586708053946e-04
4.229999999999999871e-01 -2.275857114000245929e-04
4.239999999999999880e-01 -2.249230019515380263e-04
4.249999999999999889e-01 -2.223061455879360437e-04
4.259999999999999898e-01 -2.197332505602389574e-04
4.269999999999999907e-01 -2.172042004531249404e-04
4.279999999999999916e-01 -2.147171035176143050e-04
4.289999999999999925e-01 -2.122683945344761014e-04
4.299999999999999933e-01 -2.098569093504920602e-04
4.309999999999999942e-01 -2.074861840810626745e-04
4.319999999999999951e-01 -2.051547780865803361e-04
4.329999999999999960e-01 -2.028603194048628211e-04
4.339999999999999969e-01 -2.006044378504157066e-04
4.349999999999999978e-01 -1.983831753022968769e-04
4.359999999999999987e-01 -1.961919624591246247e-04
4.369999999999999996e-01 -1.940344955073669553e-04
4.380000000000000004e-01 -1.919163332786411047e-04
4.390000000000000013e-01 -1.898334739962592721e-04
4.400000000000000022e-01 -1.877796021290123463e-04
4.410000000000000031e-01 -1.857539464253932238e-04
4.420000000000000040e-01 -1.837580784922465682e-04
4.430000000000000049e-01 -1.817939482862129807e-04
4.440000000000000058e-01 -1.798647135728970170e-04
4.450000000000000067e-01 -1.779650629032403231e-04
4.460000000000000075e-01 -1.760894956532865763e-04
4.470000000000000084e-01 -1.742391032166779041e-04
4.480000000000000093e-01 -1.724181202007457614e-04
4.490000000000000102e-01 -1.706260372884571552e-04
4.500000000000000111e-01 -1.688615739112719893e-04
4.510000000000000120e-01 -1.671234203968197107e-04
4.520000000000000129e-01 -1.654078805586323142e-04
4.530000000000000138e-01 -1.637144305277615786e-04
4.540000000000000147e-01 -1.620475959498435259e-04
4.550000000000000155e-01 -1.604074350325390697e-04
4.560000000000000164e-01 -1.587903389008715749e-04
4.570000000000000173e-01 -1.571963221067562699e-04
4.580000000000000182e-01 -1.556246716063469648e-04
4.590001000000000220e-01 -1.540724624646827579e-04
4.600000000000000200e-01 -1.525410043541342020e-04
4.610000000000000209e-01 -1.510350703028962016e-04
4.620000000000000218e-01 -1.495529722888022661e-04
4.630000000000000226e-01 -1.480887149227783084e-04
4.640000000000000235e-01 -1.466420653741806746e-04
4.650000000000000244e-01 -1.452140277251601219e-04
4.660000000000000253e-01 -1.438061590306460857e-04
4.670000000000000262e-01 -1.424222427885979414e-04
4.680000000000000271e-01 -1.410592230968177319e-04