 -0.12000000000000000          0.0000000000000000
 -0.11914999999999999          0.0000000000000000
 -0.11830000000000000          1.4494941699356532E-012
 -0.11745000000000000          1.7222049579682218E-011
 -0.11660000000000000          8.1916724519998881E-011
 -0.11574999999999999          2.4573144725241629E-010
 -0.11490000000000000          5.4007798705034425E-010
 -0.11405000000000000          9.2450853511373034E-010
 -0.11320000000000000          1.2510232122206755E-009
 -0.11234999999999999          1.2884826936082413E-009
 -0.11150000000000000          8.1962142446572657E-010
 -0.11065000000000000         -2.3018547757062941E-010
 -0.10979999999999999         -1.7080726594494225E-009
 -0.10894999999999999         -3.2493760709795496E-009
 -0.10810000000000000         -4.3847299893913772E-009
 -0.10725000000000000         -4.6674724558175933E-009
 -0.10639999999999999         -3.7436728563213840E-009
 -0.10554999999999999         -1.3411822143581510E-009
 -0.10470000000000000          2.7797934459764548E-009
 -0.10385000000000000          8.8517358333111545E-009
 -0.10299999999999999          1.7076782700800876E-008
 -0.10214999999999999          2.7588006841156686E-008
 -0.10130000000000000          4.0445282273134059E-008
 -0.10045000000000000          5.5681584806344437E-008
  -9.9599999999999994E-002     7.3368361048121052E-008
  -9.8750000000000004E-002     9.3658374870151346E-008
  -9.7900000000000001E-002     1.1679914339543743E-007
  -9.7049999999999997E-002     1.4314877174563677E-007
  -9.6199999999999994E-002     1.7322324152515616E-007
  -9.5349999999999990E-002     2.0776133437534915E-007
  -9.4500000000000001E-002     2.4775688940793422E-007
  -9.3649999999999997E-002     2.9442360854095365E-007
  -9.2799999999999994E-002     3.4911446754115398E-007
  -9.1950000000000004E-002     4.1326154596797785E-007
  -9.1100000000000000E-002     4.8838899640551793E-007
  -9.0249999999999997E-002     5.7618969320583067E-007
  -8.9399999999999993E-002     6.7860999940972763E-007
  -8.8549999999999990E-002     7.9789902793938334E-007
  -8.7700000000000000E-002     9.3663436991392993E-007
  -8.6849999999999997E-002     1.0977716319183480E-006
  -8.5999999999999993E-002     1.2847387910889522E-006
  -8.5150000000000003E-002     1.5015392595620082E-006
  -8.4300000000000000E-002     1.7527954449181788E-006
  -8.3449999999999996E-002     2.0437105461218943E-006
  -8.2600000000000007E-002     2.3800050196431349E-006
  -8.1749999999999989E-002     2.7679162132508679E-006
  -8.0900000000000000E-002     3.2143088271542005E-006
  -8.0049999999999996E-002     3.7268460962146690E-006
  -7.9199999999999993E-002     4.3141377382146638E-006
  -7.8350000000000003E-002     4.9858210507220504E-006
  -7.7499999999999999E-002     5.7526122999663854E-006
  -7.6649999999999996E-002     6.6264051807542061E-006
  -7.5800000000000006E-002     7.6204313788476301E-006
  -7.4949999999999989E-002     8.7494145725908838E-006
  -7.4099999999999999E-002     1.0029626729719522E-005
  -7.3249999999999996E-002     1.1478841472818072E-005
  -7.2399999999999992E-002     1.3116275700281126E-005
  -7.1550000000000002E-002     1.4962666209958406E-005
  -7.0699999999999999E-002     1.7040502327875784E-005
  -6.9849999999999995E-002     1.9374312608818051E-005
  -6.9000000000000006E-002     2.1990842182594575E-005
  -6.8149999999999988E-002     2.4919054482193493E-005
  -6.7299999999999999E-002     2.8190013270685779E-005
  -6.6449999999999995E-002     3.1836807737386279E-005
  -6.5599999999999992E-002     3.5894620581860957E-005
  -6.4750000000000002E-002     4.0400877077112245E-005
  -6.3899999999999998E-002     4.5395308460059485E-005
  -6.3049999999999995E-002     5.0919892038267720E-005
  -6.2199999999999998E-002     5.7018638178403754E-005
  -6.1350000000000002E-002     6.3737402807229483E-005
  -6.0499999999999998E-002     7.1123790412638745E-005
  -5.9650000000000002E-002     7.9227100810053954E-005
  -5.8799999999999998E-002     8.8098178680931049E-005
  -5.7950000000000002E-002     9.7789146865841816E-005
  -5.7099999999999998E-002     1.0835292394450911E-004
  -5.6249999999999994E-002     1.1984281284122188E-004
  -5.5400000000000005E-002     1.3231203820762125E-004
  -5.4550000000000001E-002     1.4581339643151057E-004
  -5.3699999999999998E-002     1.6039873251623839E-004
  -5.2849999999999994E-002     1.7611832815621467E-004
  -5.2000000000000005E-002     1.9302004858598248E-004
  -5.1150000000000001E-002     2.1114852912090571E-004
  -5.0299999999999997E-002     2.3054426443352771E-004
  -4.9449999999999994E-002     2.5124289626559851E-004
  -4.8600000000000004E-002     2.7327423438916227E-004
  -4.7750000000000001E-002     2.9666145176103563E-004
  -4.6899999999999997E-002     3.2141980806086538E-004
  -4.6049999999999994E-002     3.4755570625406124E-004
  -4.5200000000000004E-002     3.7506541211430178E-004
  -4.4350000000000001E-002     4.0393391262098744E-004
  -4.3499999999999997E-002     4.3413379757848699E-004
  -4.2649999999999993E-002     4.6562401978402412E-004
  -4.1800000000000004E-002     4.9834879672985377E-004
  -4.0950000000000000E-002     5.3223638181041787E-004
  -4.0099999999999997E-002     5.6719813659771338E-004
  -3.9249999999999993E-002     6.0312748546704131E-004
  -3.8400000000000004E-002     6.3989887948440465E-004
  -3.7550000000000000E-002     6.7736703565918514E-004
  -3.6699999999999997E-002     7.1536619659636066E-004
  -3.5850000000000007E-002     7.5370987674804372E-004
  -3.5000000000000003E-002     7.9218992366231872E-004
  -3.4150000000000000E-002     8.3057690168414410E-004
  -3.3299999999999996E-002     8.6861970540837424E-004
  -3.2450000000000007E-002     9.0604590289432665E-004
  -3.1600000000000003E-002     9.4256224616100009E-004
  -3.0750000000000000E-002     9.7785555870087476E-004
  -2.9899999999999996E-002     1.0115938319425625E-003
  -2.9050000000000006E-002     1.0434278745865429E-003
  -2.8200000000000003E-002     1.0729924373758895E-003
  -2.7349999999999999E-002     1.0999084620703014E-003
  -2.6499999999999996E-002     1.1237849361952867E-003
  -2.5650000000000006E-002     1.1442221582303241E-003
  -2.4800000000000003E-002     1.1608144622936463E-003
  -2.3949999999999999E-002     1.1731538768147915E-003
  -2.3099999999999996E-002     1.1808332744974314E-003
  -2.2250000000000006E-002     1.1834502389974962E-003
  -2.1400000000000002E-002     1.1806111236037074E-003
  -2.0549999999999999E-002     1.1719355043290415E-003
  -1.9699999999999995E-002     1.1570603483232224E-003
  -1.8850000000000006E-002     1.1356452186271696E-003
  -1.8000000000000002E-002     1.1073764067167338E-003
  -1.7149999999999999E-002     1.0719717410623240E-003
  -1.6299999999999995E-002     1.0291850600575502E-003
  -1.5450000000000005E-002     9.7881124942439152E-004
  -1.4600000000000002E-002     9.2069096890869996E-004
  -1.3749999999999998E-002     8.5471488343185189E-004
  -1.2899999999999995E-002     7.8082776100652700E-004
  -1.2050000000000005E-002     6.9903207861369979E-004
  -1.1200000000000002E-002     6.0939099696046180E-004
  -1.0349999999999998E-002     5.1203138426868103E-004
  -9.5000000000000084E-003     4.0714644155622013E-004
  -8.6500000000000049E-003     2.9499779107405139E-004
  -7.8000000000000014E-003     1.7591639526791719E-004
  -6.9499999999999978E-003     5.0303033079282175E-005
  -6.1000000000000082E-003    -8.1371837247729375E-005
  -5.2500000000000047E-003    -2.1856913979734492E-004
  -4.4000000000000011E-003    -3.6068258509603393E-004
  -3.5499999999999976E-003    -5.0704145407705814E-004
  -2.7000000000000079E-003    -6.5691380239340787E-004
  -1.8500000000000044E-003    -8.0951075747317527E-004
  -1.0000000000000009E-003    -9.6399117534871806E-004
  -1.4999999999999736E-004    -1.1194671558623619E-003
   6.9999999999999230E-004    -1.2750102478657896E-003
   1.5499999999999958E-003    -1.4296582800677735E-003
   2.3999999999999994E-003    -1.5824229286186681E-003
   3.2500000000000029E-003    -1.7322987950183421E-003
   4.0999999999999925E-003    -1.8782708569336491E-003
   4.9499999999999961E-003    -2.0193241137881719E-003
   5.7999999999999996E-003    -2.1544520958774499E-003
   6.6499999999999893E-003    -2.2826663625909660E-003
   7.5000000000000067E-003    -2.4030062026158842E-003
   8.3499999999999963E-003    -2.5145479562536715E-003
   9.1999999999999860E-003    -2.6164147576084543E-003
   1.0050000000000003E-002    -2.7077841707971386E-003
   1.0899999999999993E-002    -2.7878980779511000E-003
   1.1750000000000010E-002    -2.8560697211813253E-003
   1.2600000000000000E-002    -2.9116916264071754E-003
   1.3449999999999990E-002    -2.9542426329858245E-003
   1.4300000000000007E-002    -2.9832936893632060E-003
   1.5149999999999997E-002    -2.9985129462983605E-003
   1.5999999999999986E-002    -2.9996698205585221E-003
   1.6850000000000004E-002    -2.9866379071560060E-003
   1.7699999999999994E-002    -2.9593976992891118E-003
   1.8549999999999983E-002    -2.9180369801051686E-003
   1.9400000000000001E-002    -2.8627515424566614E-003
   2.0249999999999990E-002    -2.7938435566807703E-003
   2.1100000000000008E-002    -2.7117190541935377E-003
   2.1949999999999997E-002    -2.6168842691674846E-003
   2.2799999999999987E-002    -2.5099413351613426E-003
   2.3650000000000004E-002    -2.3915833431792950E-003
   2.4499999999999994E-002    -2.2625876359861565E-003
   2.5349999999999984E-002    -2.1238086136746042E-003
   2.6200000000000001E-002    -1.9761699408771373E-003
   2.7049999999999991E-002    -1.8206552862131630E-003
   2.7900000000000008E-002    -1.6582989905318823E-003
   2.8749999999999998E-002    -1.4901765229565335E-003
   2.9599999999999987E-002    -1.3173948691057667E-003
   3.0450000000000005E-002    -1.1410821992268228E-003
   3.1299999999999994E-002    -9.6237755220493124E-004
   3.2149999999999984E-002    -7.8242013965064677E-004
   3.3000000000000002E-002    -6.0233884251886826E-004
   3.3849999999999991E-002    -4.2324273169956010E-004
   3.4700000000000009E-002    -2.4621140447428434E-004
   3.5549999999999998E-002    -7.2286102259877153E-005
   3.6399999999999988E-002     9.7538460586267951E-005
   3.7250000000000005E-002     2.6232190073458169E-004
   3.8099999999999995E-002     4.2118546844563339E-004
   3.8949999999999985E-002     5.7331851772275395E-004
   3.9800000000000002E-002     7.1798398984745785E-004
   4.0649999999999992E-002     8.5452321268451176E-004
   4.1500000000000009E-002     9.8235882254472592E-004
   4.2349999999999999E-002     1.1009972279102244E-003
   4.3199999999999988E-002     1.2100303197645601E-003
   4.4050000000000006E-002     1.3091360005458744E-003
   4.4899999999999995E-002     1.3980786183395565E-003
   4.5749999999999985E-002     1.4767080828416001E-003
   4.6600000000000003E-002     1.5449576507201206E-003
   4.7449999999999992E-002     1.6028417011747346E-003
   4.8299999999999982E-002     1.6504510507489329E-003
   4.9149999999999999E-002     1.6879499237116599E-003
   4.9999999999999989E-002     1.7155710808991523E-003
   5.0850000000000006E-002     1.7336112598908494E-003
   5.1699999999999996E-002     1.7424249793985445E-003
   5.2549999999999986E-002     1.7424190945980488E-003
   5.3400000000000003E-002     1.7340457950077394E-003
   5.4249999999999993E-002     1.7177972585114851E-003
   5.5099999999999982E-002     1.6941983578158811E-003
   5.5950000000000000E-002     1.6638013532870300E-003
   5.6799999999999989E-002     1.6271791182007717E-003
   5.7650000000000007E-002     1.5849191922957956E-003
   5.8499999999999996E-002     1.5376171519247859E-003
   5.9349999999999986E-002     1.4858712416552990E-003
   6.0200000000000004E-002     1.4302765714451597E-003
   6.1049999999999993E-002     1.3714200755418518E-003
   6.1899999999999983E-002     1.3098764717541836E-003
   6.2750000000000000E-002     1.2462034401848976E-003
   6.3599999999999990E-002     1.1809379614756553E-003
   6.4450000000000007E-002     1.1145931503485672E-003
   6.5299999999999997E-002     1.0476546865097805E-003
   6.6149999999999987E-002     9.8057883473504385E-004
   6.7000000000000004E-002     9.1379037547116538E-004
   6.7849999999999994E-002     8.4768108090810636E-004
   6.8699999999999983E-002     7.8260880772037362E-004
   6.9550000000000001E-002     7.1889700969198867E-004
   7.0399999999999990E-002     6.5683414137918084E-004
   7.1249999999999980E-002     5.9667376162248029E-004
   7.2099999999999997E-002     5.3863479164402807E-004
   7.2949999999999987E-002     4.8290262211743429E-004
   7.3800000000000004E-002     4.2963027257341655E-004
   7.4649999999999994E-002     3.7893984286392661E-004
   7.5499999999999984E-002     3.3092399881296848E-004
   7.6350000000000001E-002     2.8564728509995947E-004
   7.7199999999999991E-002     2.4314776334554246E-004
   7.8049999999999981E-002     2.0343890371580530E-004
   7.8899999999999998E-002     1.6651197601035437E-004
   7.9749999999999988E-002     1.3233835344742079E-004
   8.0600000000000005E-002     1.0087170553267034E-004
   8.1449999999999995E-002     7.2049829688993020E-005
   8.2299999999999984E-002     4.5796391148049605E-005
   8.3150000000000002E-002     2.2022849859762832E-005
   8.3999999999999991E-002     6.3042795598318736E-007
   8.4849999999999981E-002    -1.8487707949766082E-005
   8.5699999999999998E-002    -3.5444603233741518E-005
   8.6549999999999988E-002    -5.0358115715667037E-005
   8.7400000000000005E-002    -6.3349543073200213E-005
   8.8249999999999995E-002    -7.4542300277589298E-005
   8.9099999999999985E-002    -8.4060399781373443E-005
   8.9950000000000002E-002    -9.2027117709609521E-005
   9.0799999999999992E-002    -9.8563889731146301E-005
   9.1649999999999981E-002    -1.0378960593115117E-004
   9.2499999999999999E-002    -1.0782002438287753E-004
   9.3349999999999989E-002    -1.1076718910060097E-004
   9.4200000000000006E-002    -1.1273871453696747E-004
   9.5049999999999996E-002    -1.1383724196764244E-004
   9.5899999999999985E-002    -1.1416000925744429E-004
   9.6750000000000003E-002    -1.1379879156359891E-004
   9.7599999999999992E-002    -1.1283982362694821E-004
   9.8449999999999982E-002    -1.1136358779838495E-004
   9.9299999999999999E-002    -1.0944467096582510E-004
  0.10014999999999999         -1.0715166793504997E-004
  0.10099999999999998         -1.0454742467468889E-004
  0.10185000000000000         -1.0168941266745826E-004
  0.10269999999999999         -9.8630098863274266E-005
  0.10355000000000000         -9.5416921565205396E-005
  0.10439999999999999         -9.2092246951167345E-005
  0.10524999999999998         -8.8693385566366648E-005
  0.10610000000000000         -8.5253069184759774E-005
  0.10694999999999999         -8.1800085460776229E-005
  0.10779999999999998         -7.8359776333988238E-005
  0.10865000000000000         -7.4954182086582738E-005
  0.10949999999999999         -7.1601998664170343E-005
  0.11035000000000000         -6.8318552179716982E-005
  0.11119999999999999         -6.5116196870517180E-005
  0.11204999999999998         -6.2004916536387555E-005
  0.11290000000000000         -5.8992834934977195E-005
  0.11374999999999999         -5.6086415550215852E-005
  0.11459999999999998         -5.3290367006412348E-005
  0.11545000000000000         -5.0607556293167969E-005
  0.11629999999999999         -4.8039224785678859E-005
  0.11715000000000000         -4.5585485855672946E-005
  0.11799999999999999         -4.3245736821162789E-005
  0.11884999999999998         -4.1018806128181188E-005
  0.11970000000000000         -3.8902817194105090E-005
  0.12054999999999999         -3.6895051312948321E-005
  0.12139999999999998         -3.4992093964594074E-005
  0.12225000000000000         -3.3190179123225705E-005
  0.12309999999999999         -3.1485546118550929E-005
  0.12395000000000000         -2.9874500522826394E-005
  0.12479999999999999         -2.8353272718008588E-005
  0.12564999999999998         -2.6917840554908588E-005
  0.12650000000000000         -2.5563950877728253E-005
  0.12734999999999999         -2.4287309152379924E-005
  0.12819999999999998         -2.3083763727234787E-005
  0.12905000000000000         -2.1949346901877977E-005
  0.12989999999999999         -2.0880189085518344E-005
  0.13074999999999998         -1.9872477310542628E-005
  0.13159999999999999         -1.8922539914379802E-005
  0.13245000000000001         -1.8026974773830460E-005
  0.13329999999999997         -1.7182676237798095E-005
  0.13414999999999999         -1.6386708665535063E-005
  0.13500000000000001         -1.5636165280490158E-005
  0.13584999999999997         -1.4928140148696967E-005
  0.13669999999999999         -1.4259873082902887E-005
  0.13755000000000001         -1.3628895112915510E-005
  0.13839999999999997         -1.3033023552396255E-005
  0.13924999999999998         -1.2470191903173283E-005
  0.14010000000000000         -1.1938278933149097E-005
  0.14094999999999996         -1.1435135125773170E-005
  0.14179999999999998         -1.0958782724801624E-005
  0.14265000000000000         -1.0507599750742921E-005
  0.14350000000000002         -1.0080298458066262E-005
  0.14434999999999998         -9.6756914260092729E-006
  0.14520000000000000         -9.2924572359911534E-006
  0.14605000000000001         -8.9291168224481524E-006
  0.14689999999999998         -8.5842290021942550E-006
  0.14774999999999999         -8.2566091060274232E-006
  0.14860000000000001         -7.9453674535138591E-006
  0.14944999999999997         -7.6497534684044279E-006
  0.15029999999999999         -7.3689554570085709E-006
  0.15115000000000001         -7.1020492844446665E-006
  0.15199999999999997         -6.8481070222870450E-006
  0.15284999999999999         -6.6063001672255403E-006
  0.15370000000000000         -6.3759068408363091E-006
  0.15454999999999997         -6.1562152521702378E-006
  0.15539999999999998         -5.9464906204889989E-006
  0.15625000000000000         -5.7460611403812597E-006
  0.15709999999999996         -5.5544446322166285E-006
  0.15794999999999998         -5.3713565843764409E-006
  0.15880000000000000         -5.1965446617592247E-006
  0.15965000000000001         -5.0295855767048715E-006
  0.16049999999999998         -4.8698464517115301E-006
  0.16134999999999999         -4.7166597481518275E-006
  0.16220000000000001         -4.5695514410955239E-006
  0.16304999999999997         -4.4282842841101191E-006
  0.16389999999999999         -4.2926743825541849E-006
  0.16475000000000001         -4.1623686850556263E-006
  0.16559999999999997         -4.0368280989940458E-006
  0.16644999999999999         -3.9155591621358490E-006
  0.16730000000000000         -3.7983706426176051E-006
  0.16814999999999997         -3.6853762824303483E-006
  0.16899999999999998         -3.5767099254793015E-006
  0.16985000000000000         -3.4721967120201038E-006
  0.17069999999999996         -3.3713075333513954E-006
  0.17154999999999998         -3.2734560403942535E-006
  0.17240000000000000         -3.1783707783151437E-006
  0.17325000000000002         -3.0861895208604663E-006
  0.17409999999999998         -2.9971807838646967E-006
  0.17494999999999999         -2.9113548899533338E-006
  0.17580000000000001         -2.8283305150029264E-006
  0.17664999999999997         -2.7475884401466118E-006
  0.17749999999999999         -2.6688671694194751E-006
  0.17835000000000001         -2.5923280824049501E-006
  0.17919999999999997         -2.5183400753712908E-006
  0.18004999999999999         -2.4470990294649470E-006
  0.18090000000000001         -2.3784290693282188E-006
  0.18174999999999997         -2.3119351644383670E-006
  0.18259999999999998         -2.2473330852573122E-006
  0.18345000000000000         -2.1846349484364358E-006
  0.18429999999999996         -2.1240311315759234E-006
  0.18514999999999998         -2.0656138080758059E-006
  0.18600000000000000         -2.0092246733268486E-006
  0.18684999999999996         -1.9545662489488500E-006
  0.18769999999999998         -1.9014454133179779E-006
  0.18855000000000000         -1.8498990654184266E-006
  0.18940000000000001         -1.8000930478647774E-006
  0.19024999999999997         -1.7521177530402096E-006
  0.19109999999999999         -1.7058873067809237E-006
  0.19195000000000001         -1.6612225497256618E-006
  0.19279999999999997         -1.6180001693195011E-006
  0.19364999999999999         -1.5761970697286384E-006
  0.19450000000000001         -1.5357944568754123E-006
  0.19534999999999997         -1.4966646738014237E-006
  0.19619999999999999         -1.4585848789765687E-006
  0.19705000000000000         -1.4213632498422464E-006
  0.19789999999999996         -1.3849302601825209E-006
  0.19874999999999998         -1.3492757503089805E-006
  0.19960000000000000         -1.3142918134762706E-006
  0.20044999999999996         -1.2796992573420475E-006
  0.20129999999999998         -1.2451626110803406E-006
  0.20215000000000000         -1.2104936876918743E-006
  0.20300000000000001         -1.1757208269487802E-006
  0.20384999999999998         -1.1409247459534756E-006
  0.20469999999999999         -1.1059698217395097E-006
  0.20555000000000001         -1.0703936221668792E-006
  0.20639999999999997         -1.0335791250719727E-006
  0.20724999999999999         -9.9506009346429368E-007
  0.20810000000000001         -9.5466855534062912E-007
  0.20894999999999997         -9.1237965131534287E-007
  0.20979999999999999         -8.6799733609377329E-007
  0.21065000000000000         -8.2099270950340373E-007
  0.21149999999999997         -7.7065417714651054E-007
  0.21234999999999998         -7.1640510819696410E-007
  0.21320000000000000         -6.5796609939189667E-007
  0.21404999999999996         -5.9519195485720112E-007
  0.21489999999999998         -5.2772277134291468E-007
  0.21575000000000000         -4.5478141443141780E-007
  0.21659999999999996         -3.7531107691762507E-007
  0.21744999999999998         -2.8832243477613774E-007
  0.21829999999999999         -1.9311900833799682E-007
  0.21915000000000001         -8.9186893899428128E-008
  0.21999999999999997          2.4137804537217734E-008
  0.22084999999999999          1.4790487616815089E-007
  0.22170000000000001          2.8346976337497240E-007
  0.22254999999999997          4.3217645666997268E-007
  0.22339999999999999          5.9510841658604173E-007
  0.22425000000000000          7.7313090143243523E-007
  0.22509999999999997          9.6717375196805574E-007
  0.22594999999999998          1.1784886086668250E-006
  0.22680000000000000          1.4086665645585685E-006
  0.22764999999999996          1.6594345508555487E-006
  0.22849999999999998          1.9324482313404933E-006
  0.22935000000000000          2.2292628356653134E-006
  0.23019999999999996          2.5514633644366753E-006
  0.23104999999999998          2.9007853328932047E-006
  0.23190000000000000          3.2790841680946443E-006
  0.23275000000000001          3.6881909199567007E-006
  0.23359999999999997          4.1298093607456557E-006
  0.23444999999999999          4.6055465331269570E-006
  0.23530000000000001          5.1170417141701467E-006
  0.23614999999999997          5.6660510972726546E-006
  0.23699999999999999          6.2544029883730105E-006
  0.23785000000000001          6.8838777309640596E-006
  0.23869999999999997          7.5561291819981032E-006
  0.23954999999999999          8.2726932703542977E-006
  0.24040000000000000          9.0350260199366909E-006
  0.24124999999999996          9.8444833387183964E-006
  0.24209999999999998          1.0702223905312089E-005
  0.24295000000000000          1.1609122357456791E-005
  0.24379999999999996          1.2565776524948275E-005
  0.24464999999999998          1.3572586077979535E-005
  0.24550000000000000          1.4629796081987269E-005
  0.24634999999999996          1.5737424490252389E-005
  0.24719999999999998          1.6895115703075217E-005
  0.24804999999999999          1.8102039981023108E-005
  0.24890000000000001          1.9356939662917943E-005
  0.24974999999999997          2.0658252644251966E-005
  0.25059999999999999          2.2004186265708574E-005
  0.25145000000000001          2.3392600401704373E-005
  0.25229999999999997          2.4820837175188971E-005
  0.25314999999999999          2.6285577662287596E-005
  0.25400000000000000          2.7782894590563407E-005
  0.25484999999999997          2.9308426076241114E-005
  0.25569999999999998          3.0857483291338447E-005
  0.25655000000000000          3.2425008523108721E-005
  0.25739999999999996          3.4005427944648025E-005
  0.25824999999999998          3.5592580800079689E-005
  0.25910000000000000          3.7179763836513826E-005
  0.25994999999999996          3.8759898107941924E-005
  0.26079999999999998          4.0325621506502287E-005
  0.26164999999999999          4.1869257025918231E-005
  0.26249999999999996          4.3382722040464987E-005
  0.26334999999999997          4.4857508135814053E-005
  0.26419999999999999          4.6284776337014862E-005
  0.26505000000000001          4.7655549887903031E-005
  0.26589999999999997          4.8960834424625023E-005
  0.26674999999999999          5.0191642639669460E-005
  0.26760000000000000          5.1338931233514348E-005
  0.26844999999999997          5.2393603635537888E-005
  0.26929999999999998          5.3346658310579037E-005
  0.27015000000000000          5.4189360853067817E-005
  0.27099999999999996          5.4913359289619595E-005
  0.27184999999999998          5.5510683536282163E-005
  0.27270000000000000          5.5973756578235623E-005
  0.27354999999999996          5.6295472544382830E-005
  0.27439999999999998          5.6469383274582310E-005
  0.27524999999999999          5.6489887290535385E-005
  0.27609999999999996          5.6352225614156276E-005
  0.27694999999999997          5.6052406103463017E-005
  0.27779999999999999          5.5587096499901299E-005
  0.27865000000000001          5.4953681719959801E-005
  0.27949999999999997          5.4150557827287347E-005
  0.28034999999999999          5.3177354052013818E-005
  0.28120000000000001          5.2035069157109617E-005
  0.28204999999999997          5.0725882814947277E-005
  0.28289999999999998          4.9252930491885191E-005
  0.28375000000000000          4.7620210100550532E-005
  0.28459999999999996          4.5832703925520525E-005
  0.28544999999999998          4.3896597965033305E-005
  0.28630000000000000          4.1819356476237242E-005
  0.28714999999999996          3.9609592474361394E-005
  0.28799999999999998          3.7276826498670190E-005
  0.28885000000000000          3.4831299308569512E-005
  0.28969999999999996          3.2283980320397988E-005
  0.29054999999999997          2.9646685940657885E-005
  0.29139999999999999          2.6932117478554736E-005
  0.29224999999999995          2.4153736932994588E-005
  0.29309999999999997          2.1325497131198403E-005
  0.29394999999999999          1.8461585944729540E-005
  0.29480000000000001          1.5576341155870695E-005
  0.29564999999999997          1.2684286713284124E-005
  0.29649999999999999          9.8001684387655135E-006
  0.29735000000000000          6.9388521622087840E-006
  0.29819999999999997          4.1150888126938143E-006
  0.29904999999999998          1.3432418682649771E-006
  0.29990000000000000         -1.3628677273362450E-006
  0.30074999999999996         -3.9900071844763795E-006
  0.30159999999999998         -6.5254977728541332E-006
  0.30245000000000000         -8.9572240045378844E-006
  0.30329999999999996         -1.1273746607072909E-005
  0.30414999999999998         -1.3464491650505644E-005
  0.30499999999999999         -1.5519922168057158E-005
  0.30584999999999996         -1.7431616061157105E-005
  0.30669999999999997         -1.9192257265990248E-005
  0.30754999999999999         -2.0795594858067904E-005
  0.30840000000000001         -2.2236460179838566E-005
  0.30924999999999997         -2.3510819586485481E-005
  0.31009999999999999         -2.4615910982309028E-005
  0.31095000000000000         -2.5550299124197719E-005
  0.31179999999999997         -2.6313832496341916E-005
  0.31264999999999998         -2.6907505914385311E-005
  0.31350000000000000         -2.7333318384875583E-005
  0.31434999999999996         -2.7594246901914902E-005
  0.31519999999999998         -2.7694308488096622E-005
  0.31605000000000000         -2.7638674371590754E-005
  0.31689999999999996         -2.7433657988007202E-005
  0.31774999999999998         -2.7086566189235092E-005
  0.31859999999999999         -2.6605443984249769E-005
  0.31944999999999996         -2.5998929900305884E-005
  0.32029999999999997         -2.5276257914440618E-005
  0.32114999999999999         -2.4447359346984005E-005
  0.32199999999999995         -2.3522911817592143E-005
  0.32284999999999997         -2.2514199189190842E-005
  0.32369999999999999         -2.1432833918094986E-005
  0.32455000000000001         -2.0290520850679973E-005
  0.32539999999999997         -1.9099000028262550E-005
  0.32624999999999998         -1.7870156250307333E-005
  0.32710000000000000         -1.6616162375159344E-005
  0.32794999999999996         -1.5349453167755872E-005
  0.32879999999999998         -1.4082530962440515E-005
  0.32965000000000000         -1.2827717759918379E-005
  0.33049999999999996         -1.1597036554560093E-005
  0.33134999999999998         -1.0402264386997963E-005
  0.33220000000000000         -9.2550443159363681E-006
  0.33304999999999996         -8.1669267865685989E-006
  0.33389999999999997         -7.1492650734949960E-006
  0.33474999999999999         -6.2130686669358184E-006
  0.33559999999999995         -5.3689297802906454E-006
  0.33644999999999997         -4.6270896304570031E-006
  0.33729999999999999         -3.9975569003600699E-006
  0.33815000000000001         -3.4901743297825831E-006
  0.33899999999999997         -3.1145644209888240E-006
  0.33984999999999999         -2.8800202162359135E-006
  0.34070000000000000         -2.7954222083664608E-006
  0.34154999999999996         -2.8692534655643716E-006
  0.34239999999999998         -3.1096591736601106E-006