 -0.12000000000000000          0.0000000000000000
 -0.11914999999999999          0.0000000000000000
 -0.11830000000000000          0.0000000000000000
 -0.11745000000000000          0.0000000000000000
 -0.11660000000000000          0.0000000000000000
 -0.11574999999999999          1.0893501797058240E-020
 -0.11490000000000000         -2.8572135487895434E-019
 -0.11405000000000000         -2.1771473614593597E-018
 -0.11320000000000000         -5.3120192435239482E-018
 -0.11234999999999999          3.1509215106875509E-018
 -0.11150000000000000          5.5999867039371862E-017
 -0.11065000000000000          1.6544679978295154E-016
 -0.10979999999999999          2.0355060743156179E-016
 -0.10894999999999999         -1.8445082239313387E-016
 -0.10810000000000000         -1.3267635004507571E-015
 -0.10725000000000000         -2.7375704746400183E-015
 -0.10639999999999999         -2.3522701266835742E-015
 -0.10554999999999999          2.7084112896937010E-015
 -0.10470000000000000          1.2673374926325787E-014
 -0.10385000000000000          2.0626268870460879E-014
 -0.10299999999999999          1.2544453480936499E-014
 -0.10214999999999999         -2.2472780002757686E-014
 -0.10130000000000000         -7.4168874180714303E-014
 -0.10045000000000000         -1.0072292499786063E-013
  -9.9599999999999994E-002    -4.6508832682698457E-014
  -9.8750000000000004E-002     1.0786272357702722E-013
  -9.7900000000000001E-002     2.9392471544367874E-013
  -9.7049999999999997E-002     3.5790947692338015E-013
  -9.6199999999999994E-002     1.5259901790555168E-013
  -9.5349999999999990E-002    -3.1865149659125132E-013
  -9.4500000000000001E-002    -8.1802362267856896E-013
  -9.3649999999999997E-002    -9.6141866609316695E-013
  -9.2799999999999994E-002    -4.7747876502644021E-013
  -9.1950000000000004E-002     5.2613332247177184E-013
  -9.1100000000000000E-002     1.5226678134565126E-012
  -9.0249999999999997E-002     1.8592822041154984E-012
  -8.9399999999999993E-002     1.2212737742232536E-012
  -8.8549999999999990E-002    -9.1229246356744563E-014
  -8.7700000000000000E-002    -1.3476563789904229E-012
  -8.6849999999999997E-002    -1.9427874411422481E-012
  -8.5999999999999993E-002    -1.8710578329369235E-012
  -8.5150000000000003E-002    -1.6559772569743077E-012
  -8.4300000000000000E-002    -1.7118971540320890E-012
  -8.3449999999999996E-002    -1.6868794045868278E-012
  -8.2600000000000007E-002    -5.0626817728405628E-013
  -8.1749999999999989E-002     2.6681037212466902E-012
  -8.0900000000000000E-002     7.2143951149427367E-012
  -8.0049999999999996E-002     1.0698276383846238E-011
  -7.9199999999999993E-002     1.0064455269265882E-011
  -7.8350000000000003E-002     3.8267316851490068E-012
  -7.7499999999999999E-002    -6.3270929466469648E-012
  -7.6649999999999996E-002    -1.5979239777983735E-011
  -7.5800000000000006E-002    -2.0521423496383061E-011
  -7.4949999999999989E-002    -1.8107615205211437E-011
  -7.4099999999999999E-002    -1.0736871077505565E-011
  -7.3249999999999996E-002    -2.4176527140012228E-012
  -7.2399999999999992E-002     4.3228458410025730E-012
  -7.1550000000000002E-002     1.0729238456734100E-011
  -7.0699999999999999E-002     2.0640977341270010E-011
  -6.9849999999999995E-002     3.6188205009461626E-011
  -6.9000000000000006E-002     5.3463475494377261E-011
  -6.8149999999999988E-002     6.1941642111652502E-011
  -6.7299999999999999E-002     4.9157462842566886E-011
  -6.6449999999999995E-002     8.3658536225611153E-012
  -6.5599999999999992E-002    -5.5621752191022384E-011
  -6.4750000000000002E-002    -1.2644601932579330E-010
  -6.3899999999999998E-002    -1.8230768533110183E-010
  -6.3049999999999995E-002    -2.0434988908179896E-010
  -6.2199999999999998E-002    -1.8217295226092715E-010
  -6.1350000000000002E-002    -1.1386979567665495E-010
  -6.0499999999999998E-002    -2.4605871006331067E-012
  -5.9650000000000002E-002     1.4648325736689566E-010
  -5.8799999999999998E-002     3.2232982384454243E-010
  -5.7950000000000002E-002     5.0267372476742228E-010
  -5.7099999999999998E-002     6.4726416209026061E-010
  -5.6249999999999994E-002     6.9781087948284697E-010
  -5.5400000000000005E-002     5.8486068093938282E-010
  -5.4550000000000001E-002     2.3748027674204896E-010
  -5.3699999999999998E-002    -4.1094031568317145E-010
  -5.2849999999999994E-002    -1.4245857852355695E-009
  -5.2000000000000005E-002    -2.8724853003553998E-009
  -5.1150000000000001E-002    -4.8342606818570944E-009
  -5.0299999999999997E-002    -7.3983878427010458E-009
  -4.9449999999999994E-002    -1.0652970435859381E-008
  -4.8600000000000004E-002    -1.4675563472874170E-008
  -4.7750000000000001E-002    -1.9530559451511673E-008
  -4.6899999999999997E-002    -2.5278487227632372E-008
  -4.6049999999999994E-002    -3.1994553737956501E-008
  -4.5200000000000004E-002    -3.9788938648133518E-008
  -4.4350000000000001E-002    -4.8822178463424817E-008
  -4.3499999999999997E-002    -5.9313730423091737E-008
  -4.2649999999999993E-002    -7.1546393141700519E-008
  -4.1800000000000004E-002    -8.5870295892787800E-008
  -4.0950000000000000E-002    -1.0270746264905831E-007
  -4.0099999999999997E-002    -1.2255515825974606E-007
  -3.9249999999999993E-002    -1.4598567733287819E-007
  -3.8400000000000004E-002    -1.7364289965183825E-007
  -3.7550000000000000E-002    -2.0623936598452908E-007
  -3.6699999999999997E-002    -2.4455867558903134E-007
  -3.5850000000000007E-002    -2.8946727678519317E-007
  -3.5000000000000003E-002    -3.4193603673457775E-007
  -3.4150000000000000E-002    -4.0306927438702617E-007
  -3.3299999999999996E-002    -4.7413559340736650E-007
  -3.2450000000000007E-002    -5.5659646832580899E-007
  -3.1600000000000003E-002    -6.5212833095808779E-007
  -3.0750000000000000E-002    -7.6263975045781749E-007
  -2.9899999999999996E-002    -8.9028853091111393E-007
  -2.9050000000000006E-002    -1.0375066078676764E-006
  -2.8200000000000003E-002    -1.2070344158249449E-006
  -2.7349999999999999E-002    -1.4019611280260129E-006
  -2.6499999999999996E-002    -1.6257616270369427E-006
  -2.5650000000000006E-002    -1.8823223457617175E-006
  -2.4800000000000003E-002    -2.1759617176824158E-006
  -2.3949999999999999E-002    -2.5114571622418011E-006
  -2.3099999999999996E-002    -2.8940921163793502E-006
  -2.2250000000000006E-002    -3.3297230774408178E-006
  -2.1400000000000002E-002    -3.8248531992796858E-006
  -2.0549999999999999E-002    -4.3866905727231171E-006
  -1.9699999999999995E-002    -5.0231860559050136E-006
  -1.8850000000000006E-002    -5.7430579420143913E-006
  -1.8000000000000002E-002    -6.5558291301490621E-006
  -1.7149999999999999E-002    -7.4718952564356487E-006
  -1.6299999999999995E-002    -8.5026029673765332E-006
  -1.5450000000000005E-002    -9.6603272732272333E-006
  -1.4600000000000002E-002    -1.0958511750063389E-005
  -1.3749999999999998E-002    -1.2411679401663057E-005
  -1.2899999999999995E-002    -1.4035443323300250E-005
  -1.2050000000000005E-002    -1.5846541547090717E-005
  -1.1200000000000002E-002    -1.7862902099899141E-005
  -1.0349999999999998E-002    -2.0103717382012085E-005
  -9.5000000000000084E-003    -2.2589491027722873E-005
  -8.6500000000000049E-003    -2.5342034264439961E-005
  -7.8000000000000014E-003    -2.8384445670413729E-005
  -6.9499999999999978E-003    -3.1741083932300386E-005
  -6.1000000000000082E-003    -3.5437565373914372E-005
  -5.2500000000000047E-003    -3.9500774583283688E-005
  -4.4000000000000011E-003    -4.3958837221648307E-005
  -3.5499999999999976E-003    -4.8841077430558210E-005
  -2.7000000000000079E-003    -5.4177877800748471E-005
  -1.8500000000000044E-003    -6.0000564973358503E-005
  -1.0000000000000009E-003    -6.6341200190136367E-005
  -1.4999999999999736E-004    -7.3232479185059314E-005
   6.9999999999999230E-004    -8.0707523386334474E-005
   1.5499999999999958E-003    -8.8799742405155108E-005
   2.3999999999999994E-003    -9.7542619355512985E-005
   3.2500000000000029E-003    -1.0696945927607645E-004
   4.0999999999999925E-003    -1.1711311244991371E-004
   4.9499999999999961E-003    -1.2800569408574964E-004
   5.7999999999999996E-003    -1.3967815493718668E-004
   6.6499999999999893E-003    -1.5215991723379610E-004
   7.5000000000000067E-003    -1.6547840897454080E-004
   8.3499999999999963E-003    -1.7965866497805035E-004
   9.1999999999999860E-003    -1.9472295175041788E-004
   1.0050000000000003E-002    -2.1069028549995273E-004
   1.0899999999999993E-002    -2.2757597191528847E-004
   1.1750000000000010E-002    -2.4539109488556172E-004
   1.2600000000000000E-002    -2.6414193386968874E-004
   1.3449999999999990E-002    -2.8382952267659405E-004
   1.4300000000000007E-002    -3.0444911455144443E-004
   1.5149999999999997E-002    -3.2598970598709311E-004
   1.5999999999999986E-002    -3.4843353955906029E-004
   1.6850000000000004E-002    -3.7175555897522199E-004
   1.7699999999999994E-002    -3.9592288384651827E-004
   1.8549999999999983E-002    -4.2089426997842221E-004
   1.9400000000000001E-002    -4.4661973564735465E-004
   2.0249999999999990E-002    -4.7304022266761420E-004
   2.1100000000000008E-002    -5.0008732994838044E-004
   2.1949999999999997E-002    -5.2768294738870418E-004
   2.2799999999999987E-002    -5.5573908976891341E-004
   2.3650000000000004E-002    -5.8415762257776698E-004
   2.4499999999999994E-002    -6.1283039806000290E-004
   2.5349999999999984E-002    -6.4163910114967962E-004
   2.6200000000000001E-002    -6.7045554030448467E-004
   2.7049999999999991E-002    -6.9914173976071191E-004
   2.7900000000000008E-002    -7.2755030429627707E-004
   2.8749999999999998E-002    -7.5552451065646203E-004
   2.9599999999999987E-002    -7.8289887814731764E-004
   3.0450000000000005E-002    -8.0949981123622314E-004
   3.1299999999999994E-002    -8.3514644207652528E-004
   3.2149999999999984E-002    -8.5965115608901195E-004
   3.3000000000000002E-002    -8.8282076301007080E-004
   3.3849999999999991E-002    -9.0445722800883491E-004
   3.4700000000000009E-002    -9.2435901410122868E-004
   3.5549999999999998E-002    -9.4232211130344887E-004
   3.6399999999999988E-002    -9.5814115435383389E-004
   3.7250000000000005E-002    -9.7161116767055728E-004
   3.8099999999999995E-002    -9.8252834064945773E-004
   3.8949999999999985E-002    -9.9069190575636241E-004
   3.9800000000000002E-002    -9.9590515120191801E-004
   4.0649999999999992E-002    -9.9797749729200243E-004
   4.1500000000000009E-002    -9.9672552046167393E-004
   4.2349999999999999E-002    -9.9197515280778767E-004
   4.3199999999999988E-002    -9.8356234124050601E-004
   4.4050000000000006E-002    -9.7133480292717757E-004
   4.4899999999999995E-002    -9.5515356358691122E-004
   4.5749999999999985E-002    -9.3489409465022627E-004
   4.6600000000000003E-002    -9.1044794760362588E-004
   4.7449999999999992E-002    -8.8172371141075588E-004
   4.8299999999999982E-002    -8.4864831222503405E-004
   4.9149999999999999E-002    -8.1116779435544796E-004
   4.9999999999999989E-002    -7.6924818909280017E-004
   5.0850000000000006E-002    -7.2287629154841834E-004
   5.1699999999999996E-002    -6.7206061145681708E-004
   5.2549999999999986E-002    -6.1683169357273752E-004
   5.3400000000000003E-002    -5.5724235151686455E-004
   5.4249999999999993E-002    -4.9336791593434333E-004
   5.5099999999999982E-002    -4.2530596367948751E-004
   5.5950000000000000E-002    -3.5317662181129269E-004
   5.6799999999999989E-002    -2.7712228272797762E-004
   5.7650000000000007E-002    -1.9730749234512352E-004
   5.8499999999999996E-002    -1.1391823587779398E-004
   5.9349999999999986E-002    -2.7161221009136413E-005
   6.0200000000000004E-002     6.2736911683271659E-005
   6.1049999999999993E-002     1.5553053016480385E-004
   6.1899999999999983E-002     2.5095572792451876E-004
   6.2750000000000000E-002     3.4873126062034450E-004
   6.3599999999999990E-002     4.4855964795799175E-004
   6.4450000000000007E-002     5.5012845797771835E-004
   6.5299999999999997E-002     6.5311168619235180E-004
   6.6149999999999987E-002     7.5717109984872895E-004
   6.7000000000000004E-002     8.6195734745980258E-004
   6.7849999999999994E-002     9.6711144476080402E-004
   6.8699999999999983E-002     1.0722660185811333E-003
   6.9550000000000001E-002     1.1770463642479777E-003
   7.0399999999999990E-002     1.2810721345256301E-003
   7.1249999999999980E-002     1.3839587918212102E-003
   7.2099999999999997E-002     1.4853190734969500E-003
   7.2949999999999987E-002     1.5847637792904242E-003
   7.3800000000000004E-002     1.6819036431536226E-003
   7.4649999999999994E-002     1.7763509348398599E-003
   7.5499999999999984E-002     1.8677201650286722E-003
   7.6350000000000001E-002     1.9556296510791619E-003
   7.7199999999999991E-002     2.0397031028507925E-003
   7.8049999999999981E-002     2.1195707355519768E-003
   7.8899999999999998E-002     2.1948707213405431E-003
   7.9749999999999988E-002     2.2652503350472902E-003
   8.0600000000000005E-002     2.3303678519492267E-003
   8.1449999999999995E-002     2.3898933182254769E-003
   8.2299999999999984E-002     2.4435107286404092E-003
   8.3150000000000002E-002     2.4909189391982421E-003
   8.3999999999999991E-002     2.5318337682887250E-003
   8.4849999999999981E-002     2.5659887919131344E-003
   8.5699999999999998E-002     2.5931379671306838E-003
   8.6549999999999988E-002     2.6130564082735919E-003
   8.7400000000000005E-002     2.6255423137083430E-003
   8.8249999999999995E-002     2.6304183211915914E-003
   8.9099999999999985E-002     2.6275332603738965E-003
   8.9950000000000002E-002     2.6167631851655585E-003
   9.0799999999999992E-002     2.5980138566640419E-003
   9.1649999999999981E-002     2.5712217859131491E-003
   9.2499999999999999E-002     2.5363562463141106E-003
   9.3349999999999989E-002     2.4934198300208769E-003
   9.4200000000000006E-002     2.4424502027983715E-003
   9.5049999999999996E-002     2.3835205825074820E-003
   9.5899999999999985E-002     2.3167408562316922E-003
   9.6750000000000003E-002     2.2422586969090257E-003
   9.7599999999999992E-002     2.1602601133962479E-003
   9.8449999999999982E-002     2.0709692777366759E-003
   9.9299999999999999E-002     1.9746491509274257E-003
  0.10014999999999999          1.8716005501491521E-003
  0.10099999999999998          1.7621619563916722E-003
  0.10185000000000000          1.6467088998989893E-003
  0.10269999999999999          1.5256527772231211E-003
  0.10355000000000000          1.3994398486699899E-003
  0.10439999999999999          1.2685487603535299E-003
  0.10524999999999998          1.1334883809063535E-003
  0.10610000000000000          9.9479546834372939E-004
  0.10694999999999999          8.5303223689718035E-004
  0.10779999999999998          7.0878366217181125E-004
  0.10865000000000000          5.6265425259606223E-004
  0.10949999999999999          4.1526430513000241E-004
  0.11035000000000000          2.6724567269847542E-004
  0.11119999999999999          1.1923789425035986E-004
  0.11204999999999998         -2.8116146810874560E-005
  0.11290000000000000         -1.7417375528777098E-004
  0.11374999999999999         -3.1829674391693459E-004
  0.11459999999999998         -4.5985585664793456E-004
  0.11545000000000000         -5.9823522512665497E-004
  0.11629999999999999         -7.3283701281410705E-004
  0.11715000000000000         -8.6308544170072177E-004
  0.11799999999999999         -9.8843077080941737E-004
  0.11884999999999998         -1.1083530010523297E-003
  0.11970000000000000         -1.2223655410325816E-003
  0.12054999999999999         -1.3300186904701776E-003
  0.12139999999999998         -1.4309030274422927E-003
  0.12225000000000000         -1.5246520390530375E-003
  0.12309999999999999         -1.6109448255906638E-003
  0.12395000000000000         -1.6895072238830532E-003
  0.12479999999999999         -1.7601141124826379E-003
  0.12564999999999998         -1.8225900876943028E-003
  0.12650000000000000         -1.8768103168293085E-003
  0.12734999999999999         -1.9227011525888523E-003
  0.12819999999999998         -1.9602395692054652E-003
  0.12905000000000000         -1.9894528422844454E-003
  0.12989999999999999         -2.0104173111076505E-003
  0.13074999999999998         -2.0232571169681991E-003
  0.13159999999999999         -2.0281417762712185E-003
  0.13245000000000001         -2.0252845672389204E-003
  0.13329999999999997         -2.0149396074970465E-003
  0.13414999999999999         -1.9973993338465623E-003
  0.13500000000000001         -1.9729911228803993E-003
  0.13584999999999997         -1.9420739968315603E-003
  0.13669999999999999         -1.9050350013609704E-003
  0.13755000000000001         -1.8622854243630675E-003
  0.13839999999999997         -1.8142570598455332E-003
  0.13924999999999998         -1.7613981149200222E-003
  0.14010000000000000         -1.7041697238020627E-003
  0.14094999999999996         -1.6430416569821827E-003
  0.14179999999999998         -1.5784883411488863E-003
  0.14265000000000000         -1.5109856107145176E-003
  0.14350000000000002         -1.4410067869775895E-003
  0.14434999999999998         -1.3690192432985247E-003
  0.14520000000000000         -1.2954813232338421E-003
  0.14605000000000001         -1.2208388083004196E-003
  0.14689999999999998         -1.1455224507576304E-003
  0.14774999999999999         -1.0699454618033231E-003
  0.14860000000000001         -9.9450104024479194E-004
  0.14944999999999997         -9.1956054686497999E-004
  0.15029999999999999         -8.4547161118662191E-004
  0.15115000000000001         -7.7255702446562570E-004
  0.15199999999999997         -7.0111320202761800E-004
  0.15284999999999999         -6.3140952527491253E-004
  0.15370000000000000         -5.6368770535274843E-004
  0.15454999999999997         -4.9816163904510134E-004
  0.15539999999999998         -4.3501752662837432E-004
  0.15625000000000000         -3.7441408239069919E-004
  0.15709999999999996         -3.1648311858024800E-004
  0.15794999999999998         -2.6132992750349933E-004
  0.15880000000000000         -2.0903427220685453E-004
  0.15965000000000001         -1.5965135410271405E-004
  0.16049999999999998         -1.1321315987376747E-004
  0.16134999999999999         -6.9729962401381362E-005
  0.16220000000000001         -2.9191632279498668E-005
  0.16304999999999997          8.4309554771021272E-006
  0.16389999999999999          4.3184395449020621E-005
  0.16475000000000001          7.5131082622276760E-005
  0.16559999999999997          1.0434738268754292E-004
  0.16644999999999999          1.3092191849905350E-004
  0.16730000000000000          1.5495390240113815E-004
  0.16814999999999997          1.7655165478958740E-004
  0.16899999999999998          1.9583107413635617E-004
  0.16985000000000000          2.1291399979853258E-004
  0.17069999999999996          2.2792673002953399E-004
  0.17154999999999998          2.4099849896510152E-004
  0.17240000000000000          2.5226024301670607E-004
  0.17325000000000002          2.6184343932304376E-004
  0.17409999999999998          2.6987901595443997E-004
  0.17494999999999999          2.7649640829301728E-004
  0.17580000000000001          2.8182239724324019E-004
  0.17664999999999997          2.8598024444738011E-004
  0.17749999999999999          2.8908907253962998E-004
  0.17835000000000001          2.9126313537672171E-004
  0.17919999999999997          2.9261144287480787E-004
  0.18004999999999999          2.9323690019772175E-004
  0.18090000000000001          2.9323601258943736E-004
  0.18174999999999997          2.9269848894916971E-004
  0.18259999999999998          2.9170733089542412E-004
  0.18345000000000000          2.9033892753578078E-004
  0.18429999999999996          2.8866295575403887E-004
  0.18514999999999998          2.8674226181848756E-004
  0.18600000000000000          2.8463267288078760E-004
  0.18684999999999996          2.8238296263008488E-004
  0.18769999999999998          2.8003513185478998E-004
  0.18855000000000000          2.7762482028543980E-004
  0.18940000000000001          2.7518160457830939E-004
  0.19024999999999997          2.7272915347986715E-004
  0.19109999999999999          2.7028540096560343E-004
  0.19195000000000001          2.6786279063567607E-004
  0.19279999999999997          2.6546868142748078E-004
  0.19364999999999999          2.6310597739744122E-004
  0.19450000000000001          2.6077356522662153E-004
  0.19534999999999997          2.5846657214534705E-004
  0.19619999999999999          2.5617659401028009E-004
  0.19705000000000000          2.5389187015915948E-004
  0.19789999999999996          2.5159782018607151E-004
  0.19874999999999998          2.4927756490201065E-004
  0.19960000000000000          2.4691253583203159E-004
  0.20044999999999996          2.4448266963313759E-004
  0.20129999999999998          2.4196660869943367E-004
  0.20215000000000000          2.3934186159241998E-004
  0.20300000000000001          2.3658529198447434E-004
  0.20384999999999998          2.3367356743316409E-004
  0.20469999999999999          2.3058378656423602E-004
  0.20555000000000001          2.2729359094528928E-004
  0.20639999999999997          2.2378133556258002E-004
  0.20724999999999999          2.2002609532998239E-004
  0.20810000000000001          2.1600790995775245E-004
  0.20894999999999997          2.1170810295786873E-004
  0.20979999999999999          2.0710960872367867E-004
  0.21065000000000000          2.0219714349452333E-004
  0.21149999999999997          1.9695719626695214E-004
  0.21234999999999998          1.9137810631854004E-004
  0.21320000000000000          1.8545010759864571E-004
  0.21404999999999996          1.7916545950174805E-004
  0.21489999999999998          1.7251861129330805E-004
  0.21575000000000000          1.6550606374661869E-004
  0.21659999999999996          1.5812634529608965E-004
  0.21744999999999998          1.5037989730102669E-004
  0.21829999999999999          1.4226906648337993E-004
  0.21915000000000001          1.3379817778989768E-004
  0.21999999999999997          1.2497338516129499E-004
  0.22084999999999999          1.1580256028536761E-004
  0.22170000000000001          1.0629514204941600E-004
  0.22254999999999997          9.6461945759905555E-005
  0.22339999999999999          8.6315128292924464E-005
  0.22425000000000000          7.5868102471726931E-005
  0.22509999999999997          6.5135332824666433E-005
  0.22594999999999998          5.4132110301993413E-005
  0.22680000000000000          4.2874336110207188E-005
  0.22764999999999996          3.1378496806944294E-005
  0.22849999999999998          1.9661702682436354E-005
  0.22935000000000000          7.7416850397208373E-006
  0.23019999999999996         -4.3633556325447028E-006
  0.23104999999999998         -1.6635051587254660E-005
  0.23190000000000000         -2.9055066567762145E-005
  0.23275000000000001         -4.1605087616113148E-005
  0.23359999999999997         -5.4266655296659063E-005
  0.23444999999999999         -6.7021014190514372E-005
  0.23530000000000001         -7.9849108770102572E-005
  0.23614999999999997         -9.2731712273699823E-005
  0.23699999999999999         -1.0564950702554559E-004
  0.23785000000000001         -1.1858298532438094E-004
  0.23869999999999997         -1.3151214145351356E-004
  0.23954999999999999         -1.4441626701718483E-004
  0.24040000000000000         -1.5727384660260029E-004
  0.24124999999999996         -1.7006264056813804E-004
  0.24209999999999998         -1.8275969437474339E-004
  0.24295000000000000         -1.9534119171247890E-004
  0.24379999999999996         -2.0778211268661587E-004
  0.24464999999999998         -2.2005594355542068E-004
  0.24550000000000000         -2.3213450855327805E-004
  0.24634999999999996         -2.4398806792673181E-004
  0.24719999999999998         -2.5558535449761964E-004
  0.24804999999999999         -2.6689348721231745E-004
  0.24890000000000001         -2.7787786382951410E-004
  0.24974999999999997         -2.8850195899571339E-004
  0.25059999999999999         -2.9872740208145623E-004
  0.25145000000000001         -3.0851406822290228E-004
  0.25229999999999997         -3.1782028225358830E-004
  0.25314999999999999         -3.2660300681018888E-004
  0.25400000000000000         -3.3481777388735291E-004
  0.25484999999999997         -3.4241890139177328E-004
  0.25569999999999998         -3.4935991022789451E-004
  0.25655000000000000         -3.5559379564783123E-004
  0.25739999999999996         -3.6107349375234099E-004
  0.25824999999999998         -3.6575215428852082E-004
  0.25910000000000000         -3.6958341116177096E-004
  0.25994999999999996         -3.7252173456346681E-004
  0.26079999999999998         -3.7452291404375243E-004
  0.26164999999999999         -3.7554488766500602E-004
  0.26249999999999996         -3.7554813335161102E-004
  0.26334999999999997         -3.7449615279524498E-004
  0.26419999999999999         -3.7235594730228880E-004
  0.26505000000000001         -3.6909854105065664E-004
  0.26589999999999997         -3.6469958373972177E-004
  0.26674999999999999         -3.5914004133436457E-004
  0.26760000000000000         -3.5240660256347550E-004
  0.26844999999999997         -3.4449190164447907E-004
  0.26929999999999998         -3.3539489123661655E-004
  0.27015000000000000         -3.2512109591914442E-004
  0.27099999999999996         -3.1368324718622688E-004
  0.27184999999999998         -3.0110155695220985E-004
  0.27270000000000000         -2.8740409760008708E-004
  0.27354999999999996         -2.7262656957668637E-004
  0.27439999999999998         -2.5681221256888164E-004
  0.27524999999999999         -2.4001186857540907E-004
  0.27609999999999996         -2.2228402990415362E-004
  0.27694999999999997         -2.0369502732416183E-004
  0.27779999999999999         -1.8431855757321941E-004
  0.27865000000000001         -1.6423520776440414E-004
  0.27949999999999997         -1.4353165051093268E-004
  0.28034999999999999         -1.2230012968524929E-004
  0.28120000000000001         -1.0063818972009850E-004
  0.28204999999999997         -7.8648380525426649E-005
  0.28289999999999998         -5.6437684347745263E-005
  0.28375000000000000         -3.4116500293998811E-005
  0.28459999999999996         -1.1797566739809165E-005
  0.28544999999999998          1.0405026646474753E-005
  0.28630000000000000          3.2376495762925080E-005
  0.28714999999999996          5.4001967965186466E-005
  0.28799999999999998          7.5167236018526900E-005
  0.28885000000000000          9.5759891551168208E-005
  0.28969999999999996          1.1567053164884198E-004
  0.29054999999999997          1.3479381784862869E-004
  0.29139999999999999          1.5302908559524641E-004
  0.29224999999999995          1.7028080766801879E-004
  0.29309999999999997          1.8645912520499994E-004
  0.29394999999999999          2.0148067442278661E-004
  0.29480000000000001          2.1526965085607753E-004
  0.29564999999999997          2.2775863742758494E-004
  0.29649999999999999          2.3888903160395583E-004
  0.29735000000000000          2.4861122306236332E-004
  0.29819999999999997          2.5688462349036028E-004
  0.29904999999999998          2.6367792756053053E-004
  0.29990000000000000          2.6896961012963663E-004
  0.30074999999999996          2.7274836382198714E-004
  0.30159999999999998          2.7501306701226488E-004
  0.30245000000000000          2.7577251973883062E-004
  0.30329999999999996          2.7504500670460770E-004
  0.30414999999999998          2.7285784128197046E-004
  0.30499999999999999          2.6924729631110658E-004
  0.30584999999999996          2.6425835893736384E-004
  0.30669999999999997          2.5794452849917278E-004
  0.30754999999999999          2.5036720728157763E-004
  0.30840000000000001          2.4159491686708709E-004
  0.30924999999999997          2.3170256700581976E-004
  0.31009999999999999          2.2077064718169584E-004
  0.31095000000000000          2.0888467770574450E-004
  0.31179999999999997          1.9613460855810109E-004
  0.31264999999999998          1.8261419831524015E-004
  0.31350000000000000          1.6842040822958056E-004
  0.31434999999999996          1.5365254828076302E-004
  0.31519999999999998          1.3841148170090024E-004
  0.31605000000000000          1.2279875428873959E-004
  0.31689999999999996          1.0691583170586759E-004
  0.31774999999999998          9.0863505527755345E-005
  0.31859999999999999          7.4741353768576385E-005
  0.31944999999999996          5.8647312633407507E-005
  0.32029999999999997          4.2677158456237672E-005
  0.32114999999999999          2.6923878926042874E-005
  0.32199999999999995          1.1477021196008638E-005
  0.32284999999999997         -3.5778608892875880E-006
  0.32369999999999999         -1.8159474179364597E-005
  0.32455000000000001         -3.2190897597227348E-005
  0.32539999999999997         -4.5599673612679215E-005
  0.32624999999999998         -5.8317980862652619E-005
  0.32710000000000000         -7.0283030299279800E-005
  0.32794999999999996         -8.1437409636050815E-005
  0.32879999999999998         -9.1729303081809489E-005
  0.32965000000000000         -1.0111245969483096E-004
  0.33049999999999996         -1.0954598886452764E-004
  0.33134999999999998         -1.1699420859527618E-004
  0.33220000000000000         -1.2342650583607872E-004
  0.33304999999999996         -1.2881742051378366E-004
  0.33389999999999997         -1.3314663282672448E-004
  0.33474999999999999         -1.3639898273192977E-004
  0.33559999999999995         -1.3856422941370395E-004
  0.33644999999999997         -1.3963684932453383E-004
  0.33729999999999999         -1.3961577383157558E-004
  0.33815000000000001         -1.3850421499568750E-004
  0.33899999999999997         -1.3630957916988578E-004
  0.33984999999999999         -1.3304339774294072E-004
  0.34070000000000000         -1.2872128245289656E-004
  0.34154999999999996         -1.2336274564473754E-004
  0.34239999999999998         -1.1699095099363718E-004