 -0.12000000000000000          0.0000000000000000
 -0.11914999999999999          0.0000000000000000
 -0.11830000000000000          0.0000000000000000
 -0.11745000000000000         -1.6273510143472929E-015
 -0.11660000000000000         -5.1385946639648122E-015
 -0.11574999999999999         -2.1522450883866622E-015
 -0.11490000000000000          2.2026815716707665E-014
 -0.11405000000000000          6.5631275804417316E-014
 -0.11320000000000000          8.5076485633356981E-014
 -0.11234999999999999          1.0173110412583203E-014
 -0.11150000000000000         -1.8091758501225892E-013
 -0.11065000000000000         -3.8317982934675600E-013
 -0.10979999999999999         -3.9163021234559424E-013
 -0.10894999999999999         -8.0064058253358801E-014
 -0.10810000000000000          3.9239367865232810E-013
 -0.10725000000000000          5.9197654821255397E-013
 -0.10639999999999999          1.6769183213397616E-013
 -0.10554999999999999         -6.6062650604428566E-013
 -0.10470000000000000         -9.8372628795392704E-013
 -0.10385000000000000          1.8712567639091224E-013
 -0.10299999999999999          2.8327887747625836E-012
 -0.10214999999999999          5.2361960110549643E-012
 -0.10130000000000000          4.5589391931182126E-012
 -0.10045000000000000         -1.2891096857999433E-012
  -9.9599999999999994E-002    -1.1576088950719647E-011
  -9.8750000000000004E-002    -2.1988303670152955E-011
  -9.7900000000000001E-002    -2.5959834091390628E-011
  -9.7049999999999997E-002    -1.7488140473863896E-011
  -9.6199999999999994E-002     6.0297558476577222E-012
  -9.5349999999999990E-002     4.2058720594616973E-011
  -9.4500000000000001E-002     8.2344600039082762E-011
  -9.3649999999999997E-002     1.1302624372579402E-010
  -9.2799999999999994E-002     1.1567174039003765E-010
  -9.1950000000000004E-002     7.0632821337065255E-011
  -9.1100000000000000E-002    -3.5900432636576328E-011
  -9.0249999999999997E-002    -2.0183535467841455E-010
  -8.9399999999999993E-002    -3.9989808097824619E-010
  -8.8549999999999990E-002    -5.7469500110601539E-010
  -8.7700000000000000E-002    -6.5032334292251996E-010
  -8.6849999999999997E-002    -5.4872927269955737E-010
  -8.5999999999999993E-002    -2.1468000425412286E-010
  -8.5150000000000003E-002     3.5910006738835230E-010
  -8.4300000000000000E-002     1.1127297968297994E-009
  -8.3449999999999996E-002     1.9100307330171492E-009
  -8.2600000000000007E-002     2.5412393692167692E-009
  -8.1749999999999989E-002     2.7370409615452061E-009
  -8.0900000000000000E-002     2.1908943679430428E-009
  -8.0049999999999996E-002     5.8441943677938461E-010
  -7.9199999999999993E-002    -2.3899590038151427E-009
  -7.8350000000000003E-002    -7.0129378363322513E-009
  -7.7499999999999999E-002    -1.3529496702260201E-008
  -7.6649999999999996E-002    -2.2146261039529756E-008
  -7.5800000000000006E-002    -3.3035742528097312E-008
  -7.4949999999999989E-002    -4.6351436385973157E-008
  -7.4099999999999999E-002    -6.2258153364695991E-008
  -7.3249999999999996E-002    -8.0976821839689314E-008
  -7.2399999999999992E-002    -1.0283462566936396E-007
  -7.1550000000000002E-002    -1.2830649745329176E-007
  -7.0699999999999999E-002    -1.5803800958619861E-007
  -6.9849999999999995E-002    -1.9285076486670958E-007
  -6.9000000000000006E-002    -2.3374124143335783E-007
  -6.8149999999999988E-002    -2.8188454902443379E-007
  -6.7299999999999999E-002    -3.3864653394501571E-007
  -6.6449999999999995E-002    -4.0559794380826222E-007
  -6.5599999999999992E-002    -4.8452418334172690E-007
  -6.4750000000000002E-002    -5.7743322644162446E-007
  -6.3899999999999998E-002    -6.8657497014036052E-007
  -6.3049999999999995E-002    -8.1448507679797901E-007
  -6.2199999999999998E-002    -9.6405519561370057E-007
  -6.1350000000000002E-002    -1.1386148950347151E-006
  -6.0499999999999998E-002    -1.3420082843322044E-006
  -5.9650000000000002E-002    -1.5786555689173684E-006
  -5.8799999999999998E-002    -1.8536068691252439E-006
  -5.7950000000000002E-002    -2.1726061510589685E-006
  -5.7099999999999998E-002    -2.5421716515106742E-006
  -5.6249999999999994E-002    -2.9696885933548870E-006
  -5.5400000000000005E-002    -3.4635004522131244E-006
  -5.4550000000000001E-002    -4.0329875310709720E-006
  -5.3699999999999998E-002    -4.6886442383218870E-006
  -5.2849999999999994E-002    -5.4421675068089036E-006
  -5.2000000000000005E-002    -6.3065794218345804E-006
  -5.1150000000000001E-002    -7.2963850318094100E-006
  -5.0299999999999997E-002    -8.4277613431442218E-006
  -4.9449999999999994E-002    -9.7187510807445526E-006
  -4.8600000000000004E-002    -1.1189456525363564E-005
  -4.7750000000000001E-002    -1.2862219254317257E-005
  -4.6899999999999997E-002    -1.4761774471629060E-005
  -4.6049999999999994E-002    -1.6915387863035617E-005
  -4.5200000000000004E-002    -1.9352991626784552E-005
  -4.4350000000000001E-002    -2.2107322262842412E-005
  -4.3499999999999997E-002    -2.5214090416945994E-005
  -4.2649999999999993E-002    -2.8712190765270634E-005
  -4.1800000000000004E-002    -3.2643906810065892E-005
  -4.0950000000000000E-002    -3.7055126181632116E-005
  -4.0099999999999997E-002    -4.1995529302730037E-005
  -3.9249999999999993E-002    -4.7518774109137077E-005
  -3.8400000000000004E-002    -5.3682683349639609E-005
  -3.7550000000000000E-002    -6.0549443241757553E-005
  -3.6699999999999997E-002    -6.8185756744043133E-005
  -3.5850000000000007E-002    -7.6662918707543734E-005
  -3.5000000000000003E-002    -8.6056817008693518E-005
  -3.4150000000000000E-002    -9.6447831324852510E-005
  -3.3299999999999996E-002    -1.0792078446812567E-004
  -3.2450000000000007E-002    -1.2056489908944349E-004
  -3.1600000000000003E-002    -1.3447378088072572E-004
  -3.0750000000000000E-002    -1.4974536694722907E-004
  -2.9899999999999996E-002    -1.6648170781098708E-004
  -2.9050000000000006E-002    -1.8478863499531544E-004
  -2.8200000000000003E-002    -2.0477536290483563E-004
  -2.7349999999999999E-002    -2.2655394991430753E-004
  -2.6499999999999996E-002    -2.5023887920530780E-004
  -2.5650000000000006E-002    -2.7594646306643882E-004
  -2.4800000000000003E-002    -3.0379422968572045E-004
  -2.3949999999999999E-002    -3.3390016570519244E-004
  -2.3099999999999996E-002    -3.6638162478025416E-004
  -2.2250000000000006E-002    -4.0135443579058020E-004
  -2.1400000000000002E-002    -4.3893166785669030E-004
  -2.0549999999999999E-002    -4.7922266510578275E-004
  -1.9699999999999995E-002    -5.2233159804027671E-004
  -1.8850000000000006E-002    -5.6835636176898532E-004
  -1.8000000000000002E-002    -6.1738690068951054E-004
  -1.7149999999999999E-002    -6.6950364243750370E-004
  -1.6299999999999995E-002    -7.2477586311980847E-004
  -1.5450000000000005E-002    -7.8325989997498247E-004
  -1.4600000000000002E-002    -8.4499738453882288E-004
  -1.3749999999999998E-002    -9.1001375772566074E-004
  -1.2899999999999995E-002    -9.7831625563719253E-004
  -1.2050000000000005E-002    -1.0498921344357826E-003
  -1.1200000000000002E-002    -1.1247069716924314E-003
  -1.0349999999999998E-002    -1.2027027485198723E-003
  -9.5000000000000084E-003    -1.2837959877817439E-003
  -8.6500000000000049E-003    -1.3678761406053306E-003
  -7.8000000000000014E-003    -1.4548041549509146E-003
  -6.9499999999999978E-003    -1.5444107212735868E-003
  -6.1000000000000082E-003    -1.6364955262905849E-003
  -5.2500000000000047E-003    -1.7308259036455508E-003
  -4.4000000000000011E-003    -1.8271356694152703E-003
  -3.5499999999999976E-003    -1.9251249630859568E-003
  -2.7000000000000079E-003    -2.0244590634766468E-003
  -1.8500000000000044E-003    -2.1247689197803569E-003
  -1.0000000000000009E-003    -2.2256514273726784E-003
  -1.4999999999999736E-004    -2.3266692417044776E-003
   6.9999999999999230E-004    -2.4273529255112716E-003
   1.5499999999999958E-003    -2.5272004236356637E-003
   2.3999999999999994E-003    -2.6256798861409767E-003
   3.2500000000000029E-003    -2.7222311710005196E-003
   4.0999999999999925E-003    -2.8162679695665641E-003
   4.9499999999999961E-003    -2.9071806291627389E-003
   5.7999999999999996E-003    -2.9943398872509623E-003
   6.6499999999999893E-003    -3.0771000033197587E-003
   7.5000000000000067E-003    -3.1548026162141942E-003
   8.3499999999999963E-003    -3.2267806738819219E-003
   9.1999999999999860E-003    -3.2923626979249167E-003
   1.0050000000000003E-002    -3.3508783921933553E-003
   1.0899999999999993E-002    -3.4016639085396204E-003
   1.1750000000000010E-002    -3.4440660985974058E-003
   1.2600000000000000E-002    -3.4774485981181645E-003
   1.3449999999999990E-002    -3.5011968040205600E-003
   1.4300000000000007E-002    -3.5147240231292029E-003
   1.5149999999999997E-002    -3.5174770055486576E-003
   1.5999999999999986E-002    -3.5089414694187181E-003
   1.6850000000000004E-002    -3.4886474468774136E-003
   1.7699999999999994E-002    -3.4561754316028842E-003
   1.8549999999999983E-002    -3.4111602858697262E-003
   1.9400000000000001E-002    -3.3532964167184258E-003
   2.0249999999999990E-002    -3.2823427867606364E-003
   2.1100000000000008E-002    -3.1981262627638436E-003
   2.1949999999999997E-002    -3.1005452729273913E-003
   2.2799999999999987E-002    -2.9895730351625770E-003
   2.3650000000000004E-002    -2.8652605975157579E-003
   2.4499999999999994E-002    -2.7277378240202479E-003
   2.5349999999999984E-002    -2.5772150973937865E-003
   2.6200000000000001E-002    -2.4139834880278332E-003
   2.7049999999999991E-002    -2.2384151079818545E-003
   2.7900000000000008E-002    -2.0509620345032752E-003
   2.8749999999999998E-002    -1.8521549064292474E-003
   2.9599999999999987E-002    -1.6426003494915834E-003
   3.0450000000000005E-002    -1.4229787907001259E-003
   3.1299999999999994E-002    -1.1940402131344809E-003
   3.2149999999999984E-002    -9.5659983870272818E-004
   3.3000000000000002E-002    -7.1153302707478022E-004
   3.3849999999999991E-002    -4.5977037212199627E-004
   3.4700000000000009E-002    -2.0229145117646799E-004
   3.5549999999999998E-002     5.9881340125010965E-005
   3.6399999999999988E-002     3.2568965216142403E-004
   3.7250000000000005E-002     5.9404662131870209E-004
   3.8099999999999995E-002     8.6384448694024041E-004
   3.8949999999999985E-002     1.1339622543024589E-003
   3.9800000000000002E-002     1.4032731370765858E-003
   4.0649999999999992E-002     1.6706525197835167E-003
   4.1500000000000009E-002     1.9349848758689237E-003
   4.2349999999999999E-002     2.1951720465681027E-003
   4.3199999999999988E-002     2.4501406882240081E-003
   4.4050000000000006E-002     2.6988493802326177E-003
   4.4899999999999995E-002     2.9402955177082481E-003
   4.5749999999999985E-002     3.1735212232205279E-003
   4.6600000000000003E-002     3.3976196374616305E-003
   4.7449999999999992E-002     3.6117396567816357E-003
   4.8299999999999982E-002     3.8150917357049658E-003
   4.9149999999999999E-002     4.0069515769288831E-003
   4.9999999999999989E-002     4.1866641760552282E-003
   5.0850000000000006E-002     4.3536464913165231E-003
   5.1699999999999996E-002     4.5073898273784926E-003
   5.2549999999999986E-002     4.6474607504887085E-003
   5.3400000000000003E-002     4.7735032595856708E-003
   5.4249999999999993E-002     4.8852390097613198E-003
   5.5099999999999982E-002     4.9824663978566275E-003
   5.5950000000000000E-002     5.0650611268914696E-003
   5.6799999999999989E-002     5.1329730711430653E-003
   5.7650000000000007E-002     5.1862255076492760E-003
   5.8499999999999996E-002     5.2249114435484745E-003
   5.9349999999999986E-002     5.2491925096149897E-003
   6.0200000000000004E-002     5.2592941266110292E-003
   6.1049999999999993E-002     5.2555032733224254E-003
   6.1899999999999983E-002     5.2381622002930957E-003
   6.2750000000000000E-002     5.2076665817635277E-003
   6.3599999999999990E-002     5.1644607000881030E-003
   6.4450000000000007E-002     5.1090324191012670E-003
   6.5299999999999997E-002     5.0419087555059732E-003
   6.6149999999999987E-002     4.9636517333898232E-003
   6.7000000000000004E-002     4.8748519207274330E-003
   6.7849999999999994E-002     4.7761262252716107E-003
   6.8699999999999983E-002     4.6681118942514185E-003
   6.9550000000000001E-002     4.5514632069127148E-003
   7.0399999999999990E-002     4.4268458804751932E-003
   7.1249999999999980E-002     4.2949352077472375E-003
   7.2099999999999997E-002     4.1564089849927422E-003
   7.2949999999999987E-002     4.0119455196134975E-003
   7.3800000000000004E-002     3.8622211074328646E-003
   7.4649999999999994E-002     3.7079053040385548E-003
   7.5499999999999984E-002     3.5496590407826391E-003
   7.6350000000000001E-002     3.3881315552922774E-003
   7.7199999999999991E-002     3.2239579657254223E-003
   7.8049999999999981E-002     3.0577568106883299E-003
   7.8899999999999998E-002     2.8901281520820506E-003
   7.9749999999999988E-002     2.7216515798488073E-003
   8.0600000000000005E-002     2.5528859386756220E-003
   8.1449999999999995E-002     2.3843664527913367E-003
   8.2299999999999984E-002     2.2166051355841892E-003
   8.3150000000000002E-002     2.0500887768600817E-003
   8.3999999999999991E-002     1.8852780220300961E-003
   8.4849999999999981E-002     1.7226076057602509E-003
   8.5699999999999998E-002     1.5624852444206571E-003
   8.6549999999999988E-002     1.4052912847912248E-003
   8.7400000000000005E-002     1.2513795608068343E-003
   8.8249999999999995E-002     1.1010765616335965E-003
   8.9099999999999985E-002     9.5468162299089583E-004
   8.9950000000000002E-002     8.1246679028754924E-004
   9.0799999999999992E-002     6.7467689776894136E-004
   9.1649999999999981E-002     5.4152977520169712E-004
   9.2499999999999999E-002     4.1321722598889948E-004
   9.3349999999999989E-002     2.8990574102555095E-004
   9.4200000000000006E-002     1.7173705973632335E-004
   9.5049999999999996E-002     5.8828164731529470E-005
   9.5899999999999985E-002    -4.8728202458641403E-005
   9.6750000000000003E-002    -1.5086325455122756E-004
   9.7599999999999992E-002    -2.4753110624190888E-004
   9.8449999999999982E-002    -3.3870749640734014E-004
   9.9299999999999999E-002    -4.2438872417051017E-004
  0.10014999999999999         -5.0459074045187133E-004
  0.10099999999999998         -5.7934876007176663E-004
  0.10185000000000000         -6.4871650938571213E-004
  0.10269999999999999         -7.1276540454119782E-004
  0.10355000000000000         -7.7158321391175512E-004
  0.10439999999999999         -8.2527235306004186E-004
  0.10524999999999998         -8.7394889921825513E-004
  0.10610000000000000         -9.1774160185823027E-004
  0.10694999999999999         -9.5679100515873717E-004
  0.10779999999999998         -9.9124867129614315E-004
  0.10865000000000000         -1.0212760307198379E-003
  0.10949999999999999         -1.0470427241797003E-003
  0.11035000000000000         -1.0687252542780127E-003
  0.11119999999999999         -1.0865057271679866E-003
  0.11204999999999998         -1.1005706967632497E-003
  0.11290000000000000         -1.1111108860364584E-003
  0.11374999999999999         -1.1183198515976214E-003
  0.11459999999999998         -1.1223932236068333E-003
  0.11545000000000000         -1.1235273310177840E-003
  0.11629999999999999         -1.1219177806048751E-003
  0.11715000000000000         -1.1177583706812320E-003
  0.11799999999999999         -1.1112407404975531E-003
  0.11884999999999998         -1.1025534265679665E-003
  0.11970000000000000         -1.0918816894845659E-003
  0.12054999999999999         -1.0794063933892567E-003
  0.12139999999999998         -1.0653037785663649E-003
  0.12225000000000000         -1.0497441989243180E-003
  0.12309999999999999         -1.0328917244702917E-003
  0.12395000000000000         -1.0149036123686371E-003
  0.12479999999999999         -9.9593020683449085E-004
  0.12564999999999998         -9.7611484043278894E-004
  0.12650000000000000         -9.5559411713766517E-004
  0.12734999999999999         -9.3449688007650727E-004
  0.12819999999999998         -9.1294431103439914E-004
  0.12905000000000000         -8.9104926168890003E-004
  0.12989999999999999         -8.6891658163324131E-004
  0.13074999999999998         -8.4664325343436291E-004
  0.13159999999999999         -8.2431894301930890E-004
  0.13245000000000001         -8.0202638643216021E-004
  0.13329999999999997         -7.7984124600386623E-004
  0.13414999999999999         -7.5783182033378228E-004
  0.13500000000000001         -7.3605913998370026E-004
  0.13584999999999997         -7.1457722968348088E-004
  0.13669999999999999         -6.9343382695098341E-004
  0.13755000000000001         -6.7267077878430397E-004
  0.13839999999999997         -6.5232472132039461E-004
  0.13924999999999998         -6.3242700027916500E-004
  0.14010000000000000         -6.1300368312195677E-004
  0.14094999999999996         -5.9407553624378322E-004
  0.14179999999999998         -5.7565862173298969E-004
  0.14265000000000000         -5.5776495234955434E-004
  0.14350000000000002         -5.4040321292935043E-004
  0.14434999999999998         -5.2357904194295533E-004
  0.14520000000000000         -5.0729512009921101E-004
  0.14605000000000001         -4.9155113210732617E-004
  0.14689999999999998         -4.7634377083890150E-004
  0.14774999999999999         -4.6166732005413090E-004
  0.14860000000000001         -4.4751409248289909E-004
  0.14944999999999997         -4.3387496961951776E-004
  0.15029999999999999         -4.2073961988494524E-004
  0.15115000000000001         -4.0809655498562629E-004
  0.15199999999999997         -3.9593300475611912E-004
  0.15284999999999999         -3.8423502728091144E-004
  0.15370000000000000         -3.7298792804644381E-004
  0.15454999999999997         -3.6217660285517298E-004
  0.15539999999999998         -3.5178589727856538E-004
  0.15625000000000000         -3.4180064773177670E-004
  0.15709999999999996         -3.3220569138993458E-004
  0.15794999999999998         -3.2298575427784241E-004
  0.15880000000000000         -3.1412528125624025E-004
  0.15965000000000001         -3.0560879660866116E-004
  0.16049999999999998         -2.9742101330523937E-004
  0.16134999999999999         -2.8954728162142212E-004
  0.16220000000000001         -2.8197359746841039E-004
  0.16304999999999997         -2.7468654904855093E-004
  0.16389999999999999         -2.6767316823848180E-004
  0.16475000000000001         -2.6092076721285259E-004
  0.16559999999999997         -2.5441696661505990E-004
  0.16644999999999999         -2.4814990954066053E-004
  0.16730000000000000         -2.4210847368755860E-004
  0.16814999999999997         -2.3628229095173724E-004
  0.16899999999999998         -2.3066172936035828E-004
  0.16985000000000000         -2.2523758557060599E-004
  0.17069999999999996         -2.2000096595237465E-004
  0.17154999999999998         -2.1494321733340002E-004
  0.17240000000000000         -2.1005613711970727E-004
  0.17325000000000002         -2.0533209842637471E-004
  0.17409999999999998         -2.0076416931074758E-004
  0.17494999999999999         -1.9634608261964604E-004
  0.17580000000000001         -1.9207192506024833E-004
  0.17664999999999997         -1.8793603110100603E-004
  0.17749999999999999         -1.8393283119357657E-004
  0.17835000000000001         -1.8005698585862130E-004
  0.17919999999999997         -1.7630358323459842E-004
  0.18004999999999999         -1.7266820871733260E-004
  0.18090000000000001         -1.6914692333880180E-004
  0.18174999999999997         -1.6573603964472781E-004
  0.18259999999999998         -1.6243181617782486E-004
  0.18345000000000000         -1.5923041697100656E-004
  0.18429999999999996         -1.5612793911939563E-004
  0.18514999999999998         -1.5312066634926550E-004
  0.18600000000000000         -1.5020525483957147E-004
  0.18684999999999996         -1.4737874182786247E-004
  0.18769999999999998         -1.4463834947332245E-004
  0.18855000000000000         -1.4198118072664788E-004
  0.18940000000000001         -1.3940407319227050E-004
  0.19024999999999997         -1.3690368610460953E-004
  0.19109999999999999         -1.3447676120975183E-004
  0.19195000000000001         -1.3212031952589964E-004
  0.19279999999999997         -1.2983179717040592E-004
  0.19364999999999999         -1.2760873751662625E-004
  0.19450000000000001         -1.2544847108654841E-004
  0.19534999999999997         -1.2334800884825238E-004
  0.19619999999999999         -1.2130413064712790E-004
  0.19705000000000000         -1.1931371895971838E-004
  0.19789999999999996         -1.1737406892533157E-004
  0.19874999999999998         -1.1548287026163905E-004
  0.19960000000000000         -1.1363800353342409E-004
  0.20044999999999996         -1.1183724771988586E-004
  0.20129999999999998         -1.1007812878843011E-004
  0.20215000000000000         -1.0835806251041524E-004
  0.20300000000000001         -1.0667458433909537E-004
  0.20384999999999998         -1.0502560909004754E-004
  0.20469999999999999         -1.0340939038099375E-004
  0.20555000000000001         -1.0182435137502926E-004
  0.20639999999999997         -1.0026891699231980E-004
  0.20724999999999999         -9.8741410986985881E-005
  0.20810000000000001         -9.7240193870148638E-005
  0.20894999999999997         -9.5763813538640708E-005
  0.20979999999999999         -9.4311211436835121E-005
  0.21065000000000000         -9.2881701206842300E-005
  0.21149999999999997         -9.1474844610568115E-005
  0.21234999999999998         -9.0090285260561916E-005
  0.21320000000000000         -8.8727612125644544E-005
  0.21404999999999996         -8.7386352334327709E-005
  0.21489999999999998         -8.6066120725578825E-005
  0.21575000000000000         -8.4766752464860421E-005
  0.21659999999999996         -8.3488408822602329E-005
  0.21744999999999998         -8.2231517784775091E-005
  0.21829999999999999         -8.0996603709154846E-005
  0.21915000000000001         -7.9784067534535290E-005
  0.21999999999999997         -7.8594166285204424E-005
  0.22084999999999999         -7.7427096544539821E-005
  0.22170000000000001         -7.6283236210852447E-005
  0.22254999999999997         -7.5163286732755918E-005
  0.22339999999999999         -7.4068204058652459E-005
  0.22425000000000000         -7.2998953542095199E-005
  0.22509999999999997         -7.1956247584278925E-005
  0.22594999999999998         -7.0940467310059025E-005
  0.22680000000000000         -6.9951863742615092E-005
  0.22764999999999996         -6.8990844776883390E-005
  0.22849999999999998         -6.8058133712961864E-005
  0.22935000000000000         -6.7154713602690354E-005
  0.23019999999999996         -6.6281515040075216E-005
  0.23104999999999998         -6.5439213968399159E-005
  0.23190000000000000         -6.4628207052563061E-005
  0.23275000000000001         -6.3848851170506855E-005
  0.23359999999999997         -6.3101712802291426E-005
  0.23444999999999999         -6.2387723377404619E-005
  0.23530000000000001         -6.1708010717100031E-005
  0.23614999999999997         -6.1063657122212446E-005
  0.23699999999999999         -6.0455551797563015E-005
  0.23785000000000001         -5.9884437194241135E-005
  0.23869999999999997         -5.9351207505084480E-005
  0.23954999999999999         -5.8857177359800297E-005
  0.24040000000000000         -5.8404209807002201E-005
  0.24124999999999996         -5.7994637428188135E-005
  0.24209999999999998         -5.7631090216532003E-005
  0.24295000000000000         -5.7316426025943505E-005
  0.24379999999999996         -5.7053779861722655E-005
  0.24464999999999998         -5.6846802350753475E-005
  0.24550000000000000         -5.6699855850918300E-005
  0.24634999999999996         -5.6618122193845949E-005
  0.24719999999999998         -5.6607570975528829E-005
  0.24804999999999999         -5.6674839326805824E-005
  0.24890000000000001         -5.6827168450386937E-005
  0.24974999999999997         -5.7072476404756422E-005
  0.25059999999999999         -5.7419531890228293E-005
  0.25145000000000001         -5.7878196191987722E-005
  0.25229999999999997         -5.8459548492133945E-005
  0.25314999999999999         -5.9175885384468203E-005
  0.25400000000000000         -6.0040606166135842E-005
  0.25484999999999997         -6.1068082366229944E-005
  0.25569999999999998         -6.2273664673056521E-005
  0.25655000000000000         -6.3673797713933970E-005
  0.25739999999999996         -6.5286220001949124E-005
  0.25824999999999998         -6.7130048458446582E-005
  0.25910000000000000         -6.9225716716594075E-005
  0.25994999999999996         -7.1594773230305623E-005
  0.26079999999999998         -7.4259725092632646E-005
  0.26164999999999999         -7.7243942361008406E-005
  0.26249999999999996         -8.0571735123834484E-005
  0.26334999999999997         -8.4268421123116115E-005
  0.26419999999999999         -8.8360284244505348E-005
  0.26505000000000001         -9.2874370513862422E-005
  0.26589999999999997         -9.7838252404759224E-005
  0.26674999999999999         -1.0327968044395780E-004
  0.26760000000000000         -1.0922644362473329E-004
  0.26844999999999997         -1.1570625052242628E-004
  0.26929999999999998         -1.2274658153771834E-004
  0.27015000000000000         -1.3037445664275399E-004
  0.27099999999999996         -1.3861612097196618E-004
  0.27184999999999998         -1.4749660664335333E-004
  0.27270000000000000         -1.5703932748867443E-004
  0.27354999999999996         -1.6726574525515294E-004
  0.27439999999999998         -1.7819507234445551E-004
  0.27524999999999999         -1.8984396733408521E-004
  0.27609999999999996         -2.0222621778135823E-004
  0.27694999999999997         -2.1535229526477528E-004
  0.27779999999999999         -2.2922888179207411E-004
  0.27865000000000001         -2.4385839080485929E-004
  0.27949999999999997         -2.5923844080243461E-004
  0.28034999999999999         -2.7536144644131985E-004
  0.28120000000000001         -2.9221424195119243E-004
  0.28204999999999997         -3.0977767842105367E-004
  0.28289999999999998         -3.2802632243872148E-004
  0.28375000000000000         -3.4692807720289136E-004
  0.28459999999999996         -3.6644371587113368E-004
  0.28544999999999998         -3.8652659721397434E-004
  0.28630000000000000         -4.0712237994620318E-004
  0.28714999999999996         -4.2816893439701428E-004
  0.28799999999999998         -4.4959611772523703E-004
  0.28885000000000000         -4.7132589505039586E-004
  0.28969999999999996         -4.9327218793008307E-004
  0.29054999999999997         -5.1534098328712152E-004
  0.29139999999999999         -5.3743008419055967E-004
  0.29224999999999995         -5.5942969364505845E-004
  0.29309999999999997         -5.8122247733125520E-004
  0.29394999999999999         -6.0268432790655329E-004
  0.29480000000000001         -6.2368463610639564E-004
  0.29564999999999997         -6.4408700747767918E-004
  0.29649999999999999         -6.6374981784444824E-004
  0.29735000000000000         -6.8252702540397899E-004
  0.29819999999999997         -7.0026872855436417E-004
  0.29904999999999998         -7.1682247498778759E-004
  0.29990000000000000         -7.3203432867718877E-004
  0.30074999999999996         -7.4574993119316986E-004
  0.30159999999999998         -7.5781598384564439E-004
  0.30245000000000000         -7.6808116897351540E-004
  0.30329999999999996         -7.7639776463600736E-004
  0.30414999999999998         -7.8262244663252932E-004
  0.30499999999999999         -7.8661806442895761E-004
  0.30584999999999996         -7.8825488517064810E-004
  0.30669999999999997         -7.8741214180114995E-004
  0.30754999999999999         -7.8397963912759695E-004
  0.30840000000000001         -7.7785857356185381E-004
  0.30924999999999997         -7.6896316672595997E-004
  0.31009999999999999         -7.5722198570174568E-004
  0.31095000000000000         -7.4257888894284428E-004
  0.31179999999999997         -7.2499418293894271E-004
  0.31264999999999998         -7.0444583425554545E-004
  0.31350000000000000         -6.8093027013576375E-004
  0.31434999999999996         -6.5446281695556480E-004
  0.31519999999999998         -6.2507856740169425E-004
  0.31605000000000000         -5.9283239672914124E-004
  0.31689999999999996         -5.5779953844759282E-004
  0.31774999999999998         -5.2007528064922938E-004
  0.31859999999999999         -4.7977504168258587E-004
  0.31944999999999996         -4.3703413979324533E-004
  0.32029999999999997         -3.9200703818348425E-004
  0.32114999999999999         -3.4486668899957976E-004
  0.32199999999999995         -2.9580349580621610E-004
  0.32284999999999997         -2.4502428685169121E-004
  0.32369999999999999         -1.9275094821663541E-004
  0.32455000000000001         -1.3921923866246438E-004
  0.32539999999999997         -8.4677109761381640E-005
  0.32624999999999998         -2.9383003668203992E-005
  0.32710000000000000          2.6396109337132389E-005
  0.32794999999999996          8.2386797850901225E-005
  0.32879999999999998          1.3831127150578445E-004
  0.32965000000000000          1.9388952499541516E-004
  0.33049999999999996          2.4884137065179569E-004
  0.33134999999999998          3.0288856635197277E-004
  0.33220000000000000          3.5575695368911578E-004
  0.33304999999999996          4.0717868572372017E-004
  0.33389999999999997          4.5689449583848735E-004
  0.33474999999999999          5.0465572771177236E-004
  0.33559999999999995          5.5022641403962009E-004
  0.33644999999999997          5.9338486403916126E-004
  0.33729999999999999          6.3392532558824075E-004
  0.33815000000000001          6.7165953352545441E-004
  0.33899999999999997          7.0641806407789598E-004
  0.33984999999999999          7.3805169373941551E-004
  0.34070000000000000          7.6643243013331498E-004
  0.34154999999999996          7.9145450566102567E-004
  0.34239999999999998          8.1303458916107119E-004