 -0.12000000000000000          0.0000000000000000
 -0.11914999999999999          0.0000000000000000
 -0.11830000000000000          0.0000000000000000
 -0.11745000000000000          0.0000000000000000
 -0.11660000000000000          0.0000000000000000
 -0.11574999999999999          0.0000000000000000
 -0.11490000000000000          0.0000000000000000
 -0.11405000000000000          0.0000000000000000
 -0.11320000000000000          0.0000000000000000
 -0.11234999999999999          0.0000000000000000
 -0.11150000000000000          0.0000000000000000
 -0.11065000000000000          0.0000000000000000
 -0.10979999999999999          0.0000000000000000
 -0.10894999999999999          0.0000000000000000
 -0.10810000000000000          3.6495542520568670E-037
 -0.10725000000000000          2.6440504144451680E-036
 -0.10639999999999999         -7.6388953470249170E-036
 -0.10554999999999999         -1.7894322801264811E-034
 -0.10470000000000000         -9.9150747746901397E-034
 -0.10385000000000000         -2.3194757223675821E-033
 -0.10299999999999999          2.3284061203250737E-033
 -0.10214999999999999          3.6033520139759128E-032
 -0.10130000000000000          1.2151650902594468E-031
 -0.10045000000000000          1.5121550980036699E-031
  -9.9599999999999994E-002    -3.7628029026707026E-031
  -9.8750000000000004E-002    -2.2839275376974404E-030
  -9.7900000000000001E-002    -4.9893878591598390E-030
  -9.7049999999999997E-002    -2.2852066493275442E-030
  -9.6199999999999994E-002     1.9953552463839854E-029
  -9.5349999999999990E-002     6.9605350487075651E-029
  -9.4500000000000001E-002     1.0257684103391606E-028
  -9.3649999999999997E-002    -2.9457755897626732E-029
  -9.2799999999999994E-002    -5.2065351671570564E-028
  -9.1950000000000004E-002    -1.2703697922559892E-027
  -9.1100000000000000E-002    -1.2987042740623092E-027
  -9.0249999999999997E-002     1.4040599391477656E-027
  -8.9399999999999993E-002     8.2407042951365193E-027
  -8.8549999999999990E-002     1.5823657892126594E-026
  -8.7700000000000000E-002     1.1783271970863416E-026
  -8.6849999999999997E-002    -2.1822529337794766E-026
  -8.5999999999999993E-002    -8.8867274460615015E-026
  -8.5150000000000003E-002    -1.4648115251465661E-025
  -8.4300000000000000E-002    -8.8926273231733592E-026
  -8.3449999999999996E-002     2.0040396713273296E-025
  -8.2600000000000007E-002     6.9960310456149489E-025
  -8.1749999999999989E-002     1.0683201911006390E-024
  -8.0900000000000000E-002     6.3679200839447627E-025
  -8.0049999999999996E-002    -1.2007039299128747E-024
  -7.9199999999999993E-002    -4.1736073608449018E-024
  -7.8350000000000003E-002    -6.3760053681028748E-024
  -7.7499999999999999E-002    -4.4767765884724320E-024
  -7.6649999999999996E-002     4.3312357722110235E-024
  -7.5800000000000006E-002     1.8970448739864146E-023
  -7.4949999999999989E-002     3.1707835825078765E-023
  -7.4099999999999999E-002     2.9002075671068582E-023
  -7.3249999999999996E-002    -1.9748812474124633E-024
  -7.2399999999999992E-002    -6.2291074393845086E-023
  -7.1550000000000002E-002    -1.3076394679146460E-022
  -7.0699999999999999E-002    -1.6140491167759789E-022
  -6.9849999999999995E-002    -9.5473279011556729E-023
  -6.9000000000000006E-002     1.0859347388009516E-022
  -6.8149999999999988E-002     4.3016330084913621E-022
  -6.7299999999999999E-002     7.4030177843033308E-022
  -6.6449999999999995E-002     7.8731463150925690E-022
  -6.5599999999999992E-002     2.6529037035452127E-022
  -6.4750000000000002E-002    -9.9115628484371784E-022
  -6.3899999999999998E-002    -2.7129609600144518E-021
  -6.3049999999999995E-002    -3.9670687682466368E-021
  -6.2199999999999998E-002    -3.2826679039090889E-021
  -6.1350000000000002E-002     6.1113295075979990E-022
  -6.0499999999999998E-002     7.5159202208162347E-021
  -5.9650000000000002E-002     1.4621813638643979E-020
  -5.8799999999999998E-002     1.6612223091493780E-020
  -5.7950000000000002E-002     7.9322811226074415E-021
  -5.7099999999999998E-002    -1.3047343988057935E-020
  -5.6249999999999994E-002    -4.0023477479245352E-020
  -5.5400000000000005E-002    -5.8164269972078009E-020
  -5.4550000000000001E-002    -4.9425234844464669E-020
  -5.3699999999999998E-002    -3.1392848903519140E-021
  -5.2849999999999994E-002     7.2933874795038288E-020
  -5.2000000000000005E-002     1.4834629709947428E-019
  -5.1150000000000001E-002     1.7797238259192623E-019
  -5.0299999999999997E-002     1.2179746967489565E-019
  -4.9449999999999994E-002    -3.1105993894612678E-020
  -4.8600000000000004E-002    -2.4579771893568202E-019
  -4.7750000000000001E-002    -4.4130871199914624E-019
  -4.6899999999999997E-002    -5.1037905466089593E-019
  -4.6049999999999994E-002    -3.5618879181959985E-019
  -4.5200000000000004E-002     6.0593227493958285E-020
  -4.4350000000000001E-002     6.7463291632999842E-019
  -4.3499999999999997E-002     1.2864104328073607E-018
  -4.2649999999999993E-002     1.5788340071703444E-018
  -4.1800000000000004E-002     1.2104887195737003E-018
  -4.0950000000000000E-002    -8.1923865843360617E-021
  -4.0099999999999997E-002    -1.9062288597825614E-018
  -3.9249999999999993E-002    -3.8275300373354846E-018
  -3.8400000000000004E-002    -4.7314964282742759E-018
  -3.7550000000000000E-002    -3.5916919036146565E-018
  -3.6699999999999997E-002    -1.6310567536717805E-021
  -3.5850000000000007E-002     5.2901896015610563E-018
  -3.5000000000000003E-002     1.0278019569202118E-017
  -3.4150000000000000E-002     1.2270194488288611E-017
  -3.3299999999999996E-002     9.0553877640103667E-018
  -3.2450000000000007E-002     2.1335342912238719E-019
  -3.1600000000000003E-002    -1.2085445642295042E-017
  -3.0750000000000000E-002    -2.3328482202859304E-017
  -2.9899999999999996E-002    -2.8072014347172155E-017
  -2.9050000000000006E-002    -2.2099481701858096E-017
  -2.8200000000000003E-002    -4.5403414822782869E-018
  -2.7349999999999999E-002     2.0892860073841053E-017
  -2.6499999999999996E-002     4.6148123104680725E-017
  -2.5650000000000006E-002     6.0755706009457806E-017
  -2.4800000000000003E-002     5.5182901305538210E-017
  -2.3949999999999999E-002     2.4907809360951488E-017
  -2.3099999999999996E-002    -2.6010361435560157E-017
  -2.2250000000000006E-002    -8.3498272017429937E-017
  -2.1400000000000002E-002    -1.2575085888404501E-016
  -2.0549999999999999E-002    -1.2986441988953398E-016
  -1.9699999999999995E-002    -8.1562259962757729E-017
  -1.8850000000000006E-002     1.5453830472492342E-017
  -1.8000000000000002E-002     1.3526686107832580E-016
  -1.7149999999999999E-002     2.3447838199407630E-016
  -1.6299999999999995E-002     2.6641764712142104E-016
  -1.5450000000000005E-002     2.0066227332150552E-016
  -1.4600000000000002E-002     4.0005002161675426E-017
  -1.3749999999999998E-002    -1.7347583500555656E-016
  -1.2899999999999995E-002    -3.6798691676691709E-016
  -1.2050000000000005E-002    -4.6557154648815268E-016
  -1.1200000000000002E-002    -4.1164889124061659E-016
  -1.0349999999999998E-002    -1.9929414272851910E-016
  -9.5000000000000084E-003     1.2163842930572596E-016
  -8.6500000000000049E-003     4.5514844103441831E-016
  -7.8000000000000014E-003     6.8714733057698965E-016
  -6.9499999999999978E-003     7.2267032495934843E-016
  -6.1000000000000082E-003     5.2075979323642596E-016
  -5.2500000000000047E-003     1.1555244388780205E-016
  -4.4000000000000011E-003    -3.8490644460321226E-016
  -3.5499999999999976E-003    -8.2505183079331396E-016
  -2.7000000000000079E-003    -1.0487929535133373E-015
  -1.8500000000000044E-003    -9.5440163900235265E-016
  -1.0000000000000009E-003    -5.3862174899888980E-016
  -1.4999999999999736E-004     8.8936417780386484E-017
   6.9999999999999230E-004     7.3220328530168994E-016
   1.5499999999999958E-003     1.1719905819817890E-015
   2.3999999999999994E-003     1.2457430173231982E-015
   3.2500000000000029E-003     9.1285467379192794E-016
   4.0999999999999925E-003     2.7726851634140052E-016
   4.9499999999999961E-003    -4.4472005730335181E-016
   5.7999999999999996E-003    -1.0003300968518076E-015
   6.6499999999999893E-003    -1.1897938515629879E-015
   7.5000000000000067E-003    -9.3461852412700950E-016
   8.3499999999999963E-003    -3.0145569981052622E-016
   9.1999999999999860E-003     5.2024562419247930E-016
   1.0050000000000003E-002     1.2699802960095959E-015
   1.0899999999999993E-002     1.6748611574292529E-015
   1.1750000000000010E-002     1.5017347199630553E-015
   1.2600000000000000E-002     6.0456502301105958E-016
   1.3449999999999990E-002    -1.0222405501937771E-015
   1.4300000000000007E-002    -3.1804314523340856E-015
   1.5149999999999997E-002    -5.4106460465540414E-015
   1.5999999999999986E-002    -6.9799749291493614E-015
   1.6850000000000004E-002    -6.9619568830876045E-015
   1.7699999999999994E-002    -4.4414365102222021E-015
   1.8549999999999983E-002     1.1624771260832066E-015
   1.9400000000000001E-002     9.7145084563790792E-015
   2.0249999999999990E-002     2.0030849810039753E-014
   2.1100000000000008E-002     2.9733560989334915E-014
   2.1949999999999997E-002     3.5424039247175094E-014
   2.2799999999999987E-002     3.3259444082372074E-014
   2.3650000000000004E-002     1.9922790803962229E-014
   2.4499999999999994E-002    -6.1503872527232321E-015
   2.5349999999999984E-002    -4.3559184723010938E-014
   2.6200000000000001E-002    -8.7104361035167943E-014
   2.7049999999999991E-002    -1.2770658804513648E-013
   2.7900000000000008E-002    -1.5333377353600696E-013
   2.8749999999999998E-002    -1.5096689441512918E-013
   2.9599999999999987E-002    -1.0935043586571392E-013
   3.0450000000000005E-002    -2.2018565173622331E-014
   3.1299999999999994E-002     1.1003743521021409E-013
   3.2149999999999984E-002     2.7665591558281966E-013
   3.3000000000000002E-002     4.5814287348892020E-013
   3.3849999999999991E-002     6.2638269978622859E-013
   3.4700000000000009E-002     7.4729178085408902E-013
   3.5549999999999998E-002     7.8433133624038913E-013
   3.6399999999999988E-002     7.0278348813922679E-013
   3.7250000000000005E-002     4.7454886832948295E-013
   3.8099999999999995E-002     8.3293083015012589E-014
   3.8949999999999985E-002    -4.7023440300514971E-013
   3.9800000000000002E-002    -1.1630636225681013E-012
   4.0649999999999992E-002    -1.9456841639791446E-012
   4.1500000000000009E-002    -2.7394770277215780E-012
   4.2349999999999999E-002    -3.4372040978086389E-012
   4.3199999999999988E-002    -3.9078344264762917E-012
   4.4050000000000006E-002    -4.0068102795905411E-012
   4.4899999999999995E-002    -3.5920942510645519E-012
   4.5749999999999985E-002    -2.5454154384099068E-012
   4.6600000000000003E-002    -7.9655726733074046E-013
   4.7449999999999992E-002     1.6524655854264153E-012
   4.8299999999999982E-002     4.7075324946478301E-012
   4.9149999999999999E-002     8.1710936414675372E-012
   4.9999999999999989E-002     1.1742910567923532E-011
   5.0850000000000006E-002     1.5034693784144939E-011
   5.1699999999999996E-002     1.7598369144344850E-011
   5.2549999999999986E-002     1.8965483367243141E-011
   5.3400000000000003E-002     1.8693248378631886E-011
   5.4249999999999993E-002     1.6411932272570325E-011
   5.5099999999999982E-002     1.1867691777638997E-011
   5.5950000000000000E-002     4.9562508754565097E-012
   5.6799999999999989E-002    -4.2563299521913592E-012
   5.7650000000000007E-002    -1.5527406812191459E-011
   5.8499999999999996E-002    -2.8446351346680161E-011
   5.9349999999999986E-002    -4.2455840311554286E-011
   6.0200000000000004E-002    -5.6883173603375115E-011
   6.1049999999999993E-002    -7.0977425125836831E-011
   6.1899999999999983E-002    -8.3948443089476144E-011
   6.2750000000000000E-002    -9.5005357619991843E-011
   6.3599999999999990E-002    -1.0339243633623308E-010
   6.4450000000000007E-002    -1.0842255974889739E-010
   6.5299999999999997E-002    -1.0950867505180853E-010
   6.6149999999999987E-002    -1.0619557583524804E-010
   6.7000000000000004E-002    -9.8194717531697081E-011
   6.7849999999999994E-002    -8.5424224894222008E-011
   6.8699999999999983E-002    -6.8056747430574739E-011
   6.9550000000000001E-002    -4.6571245985999848E-011
   7.0399999999999990E-002    -2.1814110632538198E-011
   7.1249999999999980E-002     4.9337984446054283E-012
   7.2099999999999997E-002     3.1888574141733466E-011
   7.2949999999999987E-002     5.6694580617882897E-011
   7.3800000000000004E-002     7.6351764685689931E-011
   7.4649999999999994E-002     8.7143160227444668E-011
   7.5499999999999984E-002     8.4564365971428784E-011
   7.6350000000000001E-002     6.3254295088631749E-011
   7.7199999999999991E-002     1.6905870348482200E-011
   7.8049999999999981E-002    -6.1818645787410350E-011
   7.8899999999999998E-002    -1.8139505529343882E-010
   7.9749999999999988E-002    -3.5154512858548197E-010
   8.0600000000000005E-002    -5.8336659275354253E-010
   8.1449999999999995E-002    -8.8946616442107822E-010
   8.2299999999999984E-002    -1.2841460150531026E-009
   8.3150000000000002E-002    -1.7835855945597844E-009
   8.3999999999999991E-002    -2.4061157044128504E-009
   8.4849999999999981E-002    -3.1724995254959918E-009
   8.5699999999999998E-002    -4.1063899735201213E-009
   8.6549999999999988E-002    -5.2348311266414652E-009
   8.7400000000000005E-002    -6.5889139232968680E-009
   8.8249999999999995E-002    -8.2046273596734298E-009
   8.9099999999999985E-002    -1.0123733879081183E-008
   8.9950000000000002E-002    -1.2395003136979161E-008
   9.0799999999999992E-002    -1.5075496736820048E-008
   9.1649999999999981E-002    -1.8231862348059261E-008
   9.2499999999999999E-002    -2.1942117932041895E-008
   9.3349999999999989E-002    -2.6297231138634886E-008
   9.4200000000000006E-002    -3.1403122197723052E-008
   9.5049999999999996E-002    -3.7382727324173598E-008
   9.5899999999999985E-002    -4.4378337302565867E-008
   9.6750000000000003E-002    -5.2554257944805564E-008
   9.7599999999999992E-002    -6.2099299645228689E-008
   9.8449999999999982E-002    -7.3230747781121394E-008
   9.9299999999999999E-002    -8.6197565239583559E-008
  0.10014999999999999         -1.0128475975056725E-007
  0.10099999999999998         -1.1881787942111890E-007
  0.10185000000000000         -1.3916821714243702E-007
  0.10269999999999999         -1.6275831910570810E-007
  0.10355000000000000         -1.9006815367030389E-007
  0.10439999999999999         -2.2164254828784704E-007
  0.10524999999999998         -2.5809800787548567E-007
  0.10610000000000000         -3.0013116071260284E-007
  0.10694999999999999         -3.4852554154486621E-007
  0.10779999999999998         -4.0416296136645386E-007
  0.10865000000000000         -4.6803275833525653E-007
  0.10949999999999999         -5.4124197201854081E-007
  0.11035000000000000         -6.2502566346800208E-007
  0.11119999999999999         -7.2076330986136881E-007
  0.11204999999999998         -8.2998432813486946E-007
  0.11290000000000000         -9.5439062281338773E-007
  0.11374999999999999         -1.0958656118433808E-006
  0.11459999999999998         -1.2564866745940419E-006
  0.11545000000000000         -1.4385466218026121E-006
  0.11629999999999999         -1.6445686858017098E-006
  0.11715000000000000         -1.8773201528146329E-006
  0.11799999999999999         -2.1398245934041275E-006
  0.11884999999999998         -2.4353918634755889E-006
  0.11970000000000000         -2.7676171343102805E-006
  0.12054999999999999         -3.1404117568496980E-006
  0.12139999999999998         -3.5580158122943124E-006
  0.12225000000000000         -4.0250003753905701E-006
  0.12309999999999999         -4.5462915935541072E-006
  0.12395000000000000         -5.1271872108887347E-006
  0.12479999999999999         -5.7733571985654212E-006
  0.12564999999999998         -6.4908416018086490E-006
  0.12650000000000000         -7.2860820774334451E-006
  0.12734999999999999         -8.1659172292891006E-006
  0.12819999999999998         -9.1375323843286597E-006
  0.12905000000000000         -1.0208544055026253E-005
  0.12989999999999999         -1.1386919525258947E-005
  0.13074999999999998         -1.2680991339925280E-005
  0.13159999999999999         -1.4099408276973717E-005
  0.13245000000000001         -1.5651164613186038E-005
  0.13329999999999997         -1.7345547975738167E-005
  0.13414999999999999         -1.9192099883736958E-005
  0.13500000000000001         -2.1200524952590265E-005
  0.13584999999999997         -2.3380629867915423E-005
  0.13669999999999999         -2.5742388282894096E-005
  0.13755000000000001         -2.8295790235181500E-005
  0.13839999999999997         -3.1050705818436591E-005
  0.13924999999999998         -3.4016960161459252E-005
  0.14010000000000000         -3.7204087302393388E-005
  0.14094999999999996         -4.0621287779896528E-005
  0.14179999999999998         -4.4277272932744273E-005
  0.14265000000000000         -4.8180344020103091E-005
  0.14350000000000002         -5.2337891388899140E-005
  0.14434999999999998         -5.6756587985421023E-005
  0.14520000000000000         -6.1442330227284576E-005
  0.14605000000000001         -6.6399581677759208E-005
  0.14689999999999998         -7.1631978268865796E-005
  0.14774999999999999         -7.7141318378501648E-005
  0.14860000000000001         -8.2928140180844434E-005
  0.14944999999999997         -8.8991415323403614E-005
  0.15029999999999999         -9.5328030445582449E-005
  0.15115000000000001         -1.0193314916270507E-004
  0.15199999999999997         -1.0879946950325658E-004
  0.15284999999999999         -1.1591795050227116E-004
  0.15370000000000000         -1.2327641229158771E-004
  0.15454999999999997         -1.3086132193648565E-004
  0.15539999999999998         -1.3865576534428584E-004
  0.15625000000000000         -1.4663991565101245E-004
  0.15709999999999996         -1.5479196815456502E-004
  0.15794999999999998         -1.6308703565419216E-004
  0.15880000000000000         -1.7149799050958644E-004
  0.15965000000000001         -1.7999411024934356E-004
  0.16049999999999998         -1.8854273196248334E-004
  0.16134999999999999         -1.9710782426285989E-004
  0.16220000000000001         -2.0565116207827056E-004
  0.16304999999999997         -2.1413212394746814E-004
  0.16389999999999999         -2.2250797978175032E-004
  0.16475000000000001         -2.3073305902844216E-004
  0.16559999999999997         -2.3876102704533796E-004
  0.16644999999999999         -2.4654294466771687E-004
  0.16730000000000000         -2.5402867274632187E-004
  0.16814999999999997         -2.6116676725093164E-004
  0.16899999999999998         -2.6790615293191609E-004
  0.16985000000000000         -2.7419483843723035E-004
  0.17069999999999996         -2.7998099657749331E-004
  0.17154999999999998         -2.8521213054183778E-004
  0.17240000000000000         -2.8983692322081942E-004
  0.17325000000000002         -2.9380658081686967E-004
  0.17409999999999998         -2.9707468303575457E-004
  0.17494999999999999         -2.9959422607720484E-004
  0.17580000000000001         -3.0132096990352587E-004
  0.17664999999999997         -3.0221789331195156E-004
  0.17749999999999999         -3.0224641707843217E-004
  0.17835000000000001         -3.0137505769099716E-004
  0.17919999999999997         -2.9957594375350189E-004
  0.18004999999999999         -2.9682699209101484E-004
  0.18090000000000001         -2.9310981057328021E-004
  0.18174999999999997         -2.8841185384102764E-004
  0.18259999999999998         -2.8272808083584035E-004
  0.18345000000000000         -2.7605741056219987E-004
  0.18429999999999996         -2.6840441489638556E-004
  0.18514999999999998         -2.5978185782790495E-004
  0.18600000000000000         -2.5020856101368172E-004
  0.18684999999999996         -2.3970928351208716E-004
  0.18769999999999998         -2.2831517854247452E-004
  0.18855000000000000         -2.1606353039198918E-004
  0.18940000000000001         -2.0299928356740311E-004
  0.19024999999999997         -1.8917222004036880E-004
  0.19109999999999999         -1.7463777197520224E-004
  0.19195000000000001         -1.5945707175408434E-004
  0.19279999999999997         -1.4369840634297678E-004
  0.19364999999999999         -1.2743181243482252E-004
  0.19450000000000001         -1.1073325493204990E-004
  0.19534999999999997         -9.3680973663847313E-005
  0.19619999999999999         -7.6357131824996761E-005
  0.19705000000000000         -5.8846626303197427E-005
  0.19789999999999996         -4.1235210573254587E-005
  0.19874999999999998         -2.3611685587079774E-005
  0.19960000000000000         -6.0619436427963406E-006
  0.20044999999999996          1.1325995182497759E-005
  0.20129999999999998          2.8466659927003748E-005
  0.20215000000000000          4.5274633570405348E-005
  0.20300000000000001          6.1667421664681014E-005
  0.20384999999999998          7.7564731696633856E-005
  0.20469999999999999          9.2891383047903403E-005
  0.20555000000000001          1.0757445325089767E-004
  0.20639999999999997          1.2154447288824797E-004
  0.20724999999999999          1.3474136607734592E-004
  0.20810000000000001          1.4710471859463316E-004
  0.20894999999999997          1.5858613634663594E-004
  0.20979999999999999          1.6914028868594654E-004
  0.21065000000000000          1.7872922556057692E-004
  0.21149999999999997          1.8732044367331978E-004
  0.21234999999999998          1.9489009571708031E-004
  0.21320000000000000          2.0142092290853272E-004
  0.21404999999999996          2.0690348186221369E-004
  0.21489999999999998          2.1133417663174480E-004
  0.21575000000000000          2.1471736037836610E-004
  0.21659999999999996          2.1706481805823036E-004
  0.21744999999999998          2.1839248183359931E-004
  0.21829999999999999          2.1872373797608566E-004
  0.21915000000000001          2.1808770655822046E-004
  0.21999999999999997          2.1651825298158811E-004
  0.22084999999999999          2.1405446728240359E-004
  0.22170000000000001          2.1074059537626685E-004
  0.22254999999999997          2.0662430300053534E-004
  0.22339999999999999          2.0175744658592349E-004
  0.22425000000000000          1.9619532907584749E-004
  0.22509999999999997          1.8999548661188611E-004
  0.22594999999999998          1.8321780401040044E-004
  0.22680000000000000          1.7592374532796192E-004
  0.22764999999999996          1.6817548547876039E-004
  0.22849999999999998          1.6003558321930284E-004
  0.22935000000000000          1.5156653431202334E-004
  0.23019999999999996          1.4283025258486225E-004
  0.23104999999999998          1.3388748360003137E-004
  0.23190000000000000          1.2479774980251378E-004
  0.23275000000000001          1.1561852217580046E-004
  0.23359999999999997          1.0640542696734174E-004
  0.23444999999999999          9.7211552758101364E-005
  0.23530000000000001          8.8087323746007012E-005
  0.23614999999999997          7.9080025196275738E-005
  0.23699999999999999          7.0234832498443329E-005
  0.23785000000000001          6.1592747942749323E-005
  0.23869999999999997          5.3191655356010954E-005
  0.23954999999999999          4.5066169114424164E-005
  0.24040000000000000          3.7247148833696619E-005
  0.24124999999999996          2.9762888599112068E-005
  0.24209999999999998          2.2637247755144214E-005
  0.24295000000000000          1.5891458126338641E-005
  0.24379999999999996          9.5433387216515741E-006
  0.24464999999999998          3.6072296459628264E-006
  0.24550000000000000         -1.9049678553627257E-006
  0.24634999999999996         -6.9844607241214976E-006
  0.24719999999999998         -1.1625556701315097E-005
  0.24804999999999999         -1.5823801668573682E-005
  0.24890000000000001         -1.9578052720347830E-005
  0.24974999999999997         -2.2888254225342467E-005
  0.25059999999999999         -2.5756126134340889E-005
  0.25145000000000001         -2.8184652436934065E-005
  0.25229999999999997         -3.0178051455881566E-005
  0.25314999999999999         -3.1741697007988334E-005
  0.25400000000000000         -3.2881601180400362E-005
  0.25484999999999997         -3.3604433555217036E-005
  0.25569999999999998         -3.3917636431176674E-005
  0.25655000000000000         -3.3828750068934808E-005
  0.25739999999999996         -3.3346202318672180E-005
  0.25824999999999998         -3.2477834325318110E-005
  0.25910000000000000         -3.1232098069427113E-005
  0.25994999999999996         -2.9616941482823332E-005
  0.26079999999999998         -2.7640455072662099E-005
  0.26164999999999999         -2.5309903830087506E-005
  0.26249999999999996         -2.2632193280141518E-005
  0.26334999999999997         -1.9613622417851614E-005
  0.26419999999999999         -1.6260019523543267E-005
  0.26505000000000001         -1.2576754113745495E-005
  0.26589999999999997         -8.5689767650082856E-006
  0.26674999999999999         -4.2415825238198631E-006
  0.26760000000000000          4.0068191815039756E-007
  0.26844999999999997          5.3530781505480381E-006
  0.26929999999999998          1.0610697620915649E-005
  0.27015000000000000          1.6168613357593836E-005
  0.27099999999999996          2.2021663761367516E-005
  0.27184999999999998          2.8164580744856125E-005
  0.27270000000000000          3.4591537929608933E-005
  0.27354999999999996          4.1296439939704803E-005
  0.27439999999999998          4.8272539593599506E-005
  0.27524999999999999          5.5512563409782776E-005
  0.27609999999999996          6.3008261871550734E-005
  0.27694999999999997          7.0750484971716810E-005
  0.27779999999999999          7.8729010248597569E-005
  0.27865000000000001          8.6932216888216588E-005
  0.27949999999999997          9.5347196897019136E-005
  0.28034999999999999          1.0395959776797089E-004
  0.28120000000000001          1.1275348428077441E-004
  0.28204999999999997          1.2171144708521384E-004
  0.28289999999999998          1.3081437732236363E-004
  0.28375000000000000          1.4004160121456081E-004
  0.28459999999999996          1.4937080243501380E-004
  0.28544999999999998          1.5877804167519532E-004
  0.28630000000000000          1.6823779462426456E-004
  0.28714999999999996          1.7772295348153475E-004
  0.28799999999999998          1.8720489166362025E-004
  0.28885000000000000          1.9665354884475841E-004
  0.28969999999999996          2.0603758243815224E-004
  0.29054999999999997          2.1532437443421099E-004
  0.29139999999999999          2.2448022320037820E-004
  0.29224999999999995          2.3347049463699683E-004
  0.29309999999999997          2.4225982646008417E-004
  0.29394999999999999          2.5081225297442184E-004
  0.29480000000000001          2.5909136812576498E-004
  0.29564999999999997          2.6706066731955921E-004
  0.29649999999999999          2.7468376801531699E-004
  0.29735000000000000          2.8192445920804140E-004
  0.29819999999999997          2.8874745111149208E-004
  0.29904999999999998          2.9511805917399375E-004
  0.29990000000000000          3.0100293292907994E-004
  0.30074999999999996          3.0637002793217571E-004
  0.30159999999999998          3.1118891361943434E-004
  0.30245000000000000          3.1543105945849696E-004
  0.30329999999999996          3.1906992719699849E-004
  0.30414999999999998          3.2208135580411934E-004
  0.30499999999999999          3.2444338583804039E-004
  0.30584999999999996          3.2613688534728944E-004
  0.30669999999999997          3.2714529509076323E-004
  0.30754999999999999          3.2745562529754989E-004
  0.30840000000000001          3.2705787630253619E-004
  0.30924999999999997          3.2594526806969801E-004
  0.31009999999999999          3.2411491816872857E-004
  0.31095000000000000          3.2156731367350214E-004
  0.31179999999999997          3.1830700108706310E-004
  0.31264999999999998          3.1434197453690678E-004
  0.31350000000000000          3.0968391373528762E-004
  0.31434999999999996          3.0434817134126352E-004
  0.31519999999999998          2.9835275885344416E-004
  0.31605000000000000          2.9171936764419494E-004
  0.31689999999999996          2.8447271448915883E-004
  0.31774999999999998          2.7664041230174877E-004
  0.31859999999999999          2.6825238548084990E-004
  0.31944999999999996          2.5934135467120046E-004
  0.32029999999999997          2.4994296293844796E-004
  0.32114999999999999          2.4009489658659595E-004
  0.32199999999999995          2.2983710750007651E-004
  0.32284999999999997          2.1921141772400288E-004
  0.32369999999999999          2.0826051557063272E-004
  0.32455000000000001          1.9702940662252145E-004
  0.32539999999999997          1.8556296094640259E-004
  0.32624999999999998          1.7390689512598504E-004
  0.32710000000000000          1.6210678529768208E-004
  0.32794999999999996          1.5020785923631610E-004
  0.32879999999999998          1.3825530609084023E-004
  0.32965000000000000          1.2629324188990996E-004
  0.33049999999999996          1.1436443799745258E-004
  0.33134999999999998          1.0251053081603172E-004
  0.33220000000000000          9.0771049694652760E-005
  0.33304999999999996          7.9186088852637918E-005
  0.33389999999999997          6.7791877969441278E-005
  0.33474999999999999          5.6624512850054442E-005
  0.33559999999999995          4.5715609252125941E-005
  0.33644999999999997          3.5096899004551443E-005
  0.33729999999999999          2.4796858207965824E-005
  0.33815000000000001          1.4841025615979890E-005
  0.33899999999999997          5.2529256462636943E-006
  0.33984999999999999         -3.9482188352919938E-006
  0.34070000000000000         -1.2745131832941525E-005
  0.34154999999999996         -2.1122628655436720E-005
  0.34239999999999998         -2.9069822883608902E-005
  0.34325000000000000         -3.6577553219251644E-005