 -0.12000000000000000          0.0000000000000000
 -0.11914999999999999          0.0000000000000000
 -0.11830000000000000          0.0000000000000000
 -0.11745000000000000          0.0000000000000000
 -0.11660000000000000          0.0000000000000000
 -0.11574999999999999          0.0000000000000000
 -0.11490000000000000          0.0000000000000000
 -0.11405000000000000          0.0000000000000000
 -0.11320000000000000          0.0000000000000000
 -0.11234999999999999          0.0000000000000000
 -0.11150000000000000          0.0000000000000000
 -0.11065000000000000          1.0979633697025580E-030
 -0.10979999999999999          2.1473818940828262E-029
 -0.10894999999999999          1.6392894357370057E-028
 -0.10810000000000000          5.7862242343197197E-028
 -0.10725000000000000          1.6633145382791780E-028
 -0.10639999999999999         -7.8429233429173057E-027
 -0.10554999999999999         -3.7536299909261368E-026
 -0.10470000000000000         -7.6531291545332233E-026
 -0.10385000000000000          2.8642306312226750E-026
 -0.10299999999999999          6.7327147827214609E-025
 -0.10214999999999999          2.0757929419219752E-024
 -0.10130000000000000          2.6125907166344453E-024
 -0.10045000000000000         -3.3286228025544982E-024
  -9.9599999999999994E-002    -2.2876375463943964E-023
  -9.8750000000000004E-002    -4.9295748755800537E-023
  -9.7900000000000001E-002    -3.5785763309228014E-023
  -9.7049999999999997E-002     1.0557833174987621E-022
  -9.6199999999999994E-002     4.1027511904761985E-022
  -9.5349999999999990E-002     6.4990966930308076E-022
  -9.4500000000000001E-002     1.8163146471004516E-022
  -9.3649999999999997E-002    -1.7041056581265480E-021
  -9.2799999999999994E-002    -4.5923455373462738E-021
  -9.1950000000000004E-002    -5.4843186884725455E-021
  -9.1100000000000000E-002     8.4456697559859998E-022
  -9.0249999999999997E-002     1.7174373346673357E-020
  -8.9399999999999993E-002     3.5483583736450152E-020
  -8.8549999999999990E-002     3.2326455428028667E-020
  -8.7700000000000000E-002    -1.9737831298900224E-020
  -8.6849999999999997E-002    -1.1940542906578121E-019
  -8.5999999999999993E-002    -2.0105467823453699E-019
  -8.5150000000000003E-002    -1.4113095347812667E-019
  -8.4300000000000000E-002     1.5378625259123252E-019
  -8.3449999999999996E-002     6.0117945664785796E-019
  -8.2600000000000007E-002     8.6089578720765741E-019
  -8.1749999999999989E-002     4.7745552361050243E-019
  -8.0900000000000000E-002    -7.1981206379004893E-019
  -8.0049999999999996E-002    -2.2020420789013680E-018
  -7.9199999999999993E-002    -2.7671945170493174E-018
  -7.8350000000000003E-002    -1.3000034052579012E-018
  -7.7499999999999999E-002     2.0698309670761589E-018
  -7.6649999999999996E-002     5.4222534852465096E-018
  -7.5800000000000006E-002     6.0683126126320243E-018
  -7.4949999999999989E-002     2.8682960222077842E-018
  -7.4099999999999999E-002    -2.1102923918351375E-018
  -7.3249999999999996E-002    -4.9282259526573472E-018
  -7.2399999999999992E-002    -4.1348327219413396E-018
  -7.1550000000000002E-002    -4.2525213813324774E-018
  -7.0699999999999999E-002    -1.2792956191541652E-017
  -6.9849999999999995E-002    -2.9601488599662777E-017
  -6.9000000000000006E-002    -3.6776322434473429E-017
  -6.8149999999999988E-002    -3.8019103309680930E-018
  -6.7299999999999999E-002     8.4465774820231496E-017
  -6.6449999999999995E-002     1.9135700803595436E-016
  -6.5599999999999992E-002     2.1988720353507028E-016
  -6.4750000000000002E-002     6.5016819986802727E-017
  -6.3899999999999998E-002    -2.8343738258729782E-016
  -6.3049999999999995E-002    -6.5867865935557936E-016
  -6.2199999999999998E-002    -7.5270001852590570E-016
  -6.1350000000000002E-002    -3.0857264578923346E-016
  -6.0499999999999998E-002     6.2313609436744381E-016
  -5.9650000000000002E-002     1.5674195213550611E-015
  -5.8799999999999998E-002     1.8221696387873104E-015
  -5.7950000000000002E-002     9.3570477337600176E-016
  -5.7099999999999998E-002    -8.4006096444062298E-016
  -5.6249999999999994E-002    -2.5255621061110025E-015
  -5.5400000000000005E-002    -2.9872848202693355E-015
  -5.4550000000000001E-002    -1.7961231978838087E-015
  -5.3699999999999998E-002     3.0634122091291041E-016
  -5.2849999999999994E-002     1.8651764542972487E-015
  -5.2000000000000005E-002     1.9240464960819543E-015
  -5.1150000000000001E-002     1.0410309245934378E-015
  -5.0299999999999997E-002     1.0249500783633071E-015
  -4.9449999999999994E-002     3.1952432476906441E-015
  -4.8600000000000004E-002     6.3899306456938378E-015
  -4.7750000000000001E-002     6.7161101558739752E-015
  -4.6899999999999997E-002     1.5276965981349867E-016
  -4.6049999999999994E-002    -1.3214727810420040E-014
  -4.5200000000000004E-002    -2.6664317742165066E-014
  -4.4350000000000001E-002    -2.9180842542885563E-014
  -4.3499999999999997E-002    -1.2705535847502152E-014
  -4.2649999999999993E-002     2.0002298410516980E-014
  -4.1800000000000004E-002     5.3254342403143713E-014
  -4.0950000000000000E-002     6.5713118449063499E-014
  -4.0099999999999997E-002     4.4083832496729434E-014
  -3.9249999999999993E-002    -5.7520266065067980E-015
  -3.8400000000000004E-002    -5.9284751513408509E-014
  -3.7550000000000000E-002    -8.7468744537320417E-014
  -3.6699999999999997E-002    -7.5861542107977569E-014
  -3.5850000000000007E-002    -3.4787117987077383E-014
  -3.5000000000000003E-002     8.5760393233698479E-015
  -3.4150000000000000E-002     3.1892695541671420E-014
  -3.3299999999999996E-002     3.6576781220763525E-014
  -3.2450000000000007E-002     4.6773093737710846E-014
  -3.1600000000000003E-002     8.5371999680251552E-014
  -3.0750000000000000E-002     1.4383206952379362E-013
  -2.9899999999999996E-002     1.7244959037844369E-013
  -2.9050000000000006E-002     1.0697531274171536E-013
  -2.8200000000000003E-002    -7.9509298673877821E-014
  -2.7349999999999999E-002    -3.3495680013665836E-013
  -2.6499999999999996E-002    -5.3366572560674803E-013
  -2.5650000000000006E-002    -5.3735257965925192E-013
  -2.4800000000000003E-002    -2.8026430518079946E-013
  -2.3949999999999999E-002     1.7696995542087902E-013
  -2.3099999999999996E-002     6.6545945439686972E-013
  -2.2250000000000006E-002     9.9165476858752651E-013
  -2.1400000000000002E-002     1.0323956823829604E-012
  -2.0549999999999999E-002     7.7683345984706084E-013
  -1.9699999999999995E-002     2.9026305283500000E-013
  -1.8850000000000006E-002    -3.6104030820281800E-013
  -1.8000000000000002E-002    -1.1463965289853878E-012
  -1.7149999999999999E-002    -2.0159019024347094E-012
  -1.6299999999999995E-002    -2.7814827510438179E-012
  -1.5450000000000005E-002    -3.0404744820058664E-012
  -1.4600000000000002E-002    -2.2589560834907485E-012
  -1.3749999999999998E-002    -4.5951917218618800E-014
  -1.2899999999999995E-002     3.4906232757963716E-012
  -1.2050000000000005E-002     7.5161742694530976E-012
  -1.1200000000000002E-002     1.0558693348151885E-011
  -1.0349999999999998E-002     1.0953804859956853E-011
  -9.5000000000000084E-003     7.4883999375820159E-012
  -8.6500000000000049E-003    -3.1776524032165670E-014
  -7.8000000000000014E-003    -1.0526055581860416E-011
  -6.9499999999999978E-003    -2.1762705093027325E-011
  -6.1000000000000082E-003    -3.0756415021108878E-011
  -5.2500000000000047E-003    -3.4275152040725064E-011
  -4.4000000000000011E-003    -2.9380318639024665E-011
  -3.5499999999999976E-003    -1.4061375323612943E-011
  -2.7000000000000079E-003     1.1943254413198698E-011
  -1.8500000000000044E-003     4.6208636013241690E-011
  -1.0000000000000009E-003     8.2918201725846423E-011
  -1.4999999999999736E-004     1.1293058886442766E-010
   6.9999999999999230E-004     1.2505982667803769E-010
   1.5499999999999958E-003     1.0859102882457575E-010
   2.3999999999999994E-003     5.6504642959589019E-011
   3.2500000000000029E-003    -3.1490256593836069E-011
   4.0999999999999925E-003    -1.4699226017578256E-010
   4.9499999999999961E-003    -2.7251111807754824E-010
   5.7999999999999996E-003    -3.8266549738999282E-010
   6.6499999999999893E-003    -4.4675347417333219E-010
   7.5000000000000067E-003    -4.3256022614585719E-010
   8.3499999999999963E-003    -3.1150225448017171E-010
   9.1999999999999860E-003    -6.5226591135726632E-011
   1.0050000000000003E-002     3.0665630114798712E-010
   1.0899999999999993E-002     7.7882478008099215E-010
   1.1750000000000010E-002     1.2943075844806922E-009
   1.2600000000000000E-002     1.7622702119186854E-009
   1.3449999999999990E-002     2.0606805640667764E-009
   1.4300000000000007E-002     2.0436609435297443E-009
   1.5149999999999997E-002     1.5520072341016152E-009
   1.5999999999999986E-002     4.2465657588384538E-010
   1.6850000000000004E-002    -1.4910049914375808E-009
   1.7699999999999994E-002    -4.3314845909503073E-009
   1.8549999999999983E-002    -8.2130975262620730E-009
   1.9400000000000001E-002    -1.3232207104002691E-008
   2.0249999999999990E-002    -1.9470638158550764E-008
   2.1100000000000008E-002    -2.7006949648961670E-008
   2.1949999999999997E-002    -3.5933394882820197E-008
   2.2799999999999987E-002    -4.6376861990075627E-008
   2.3650000000000004E-002    -5.8520579081604008E-008
   2.4499999999999994E-002    -7.2622909142311900E-008
   2.5349999999999984E-002    -8.9030471735156212E-008
   2.6200000000000001E-002    -1.0818517250295512E-007
   2.7049999999999991E-002    -1.3062705294342384E-007
   2.7900000000000008E-002    -1.5699605574708939E-007
   2.8749999999999998E-002    -1.8803552287953402E-007
   2.9599999999999987E-002    -2.2459858334343875E-007
   3.0450000000000005E-002    -2.6765716129000071E-007
   3.1299999999999994E-002    -3.1831306419675474E-007
   3.2149999999999984E-002    -3.7781181138966191E-007
   3.3000000000000002E-002    -4.4756134588427357E-007
   3.3849999999999991E-002    -5.2915848906740490E-007
   3.4700000000000009E-002    -6.2442425644508109E-007
   3.5549999999999998E-002    -7.3544641108070995E-007
   3.6399999999999988E-002    -8.6462558095026169E-007
   3.7250000000000005E-002    -1.0147189617173156E-006
   3.8099999999999995E-002    -1.1888796017393280E-006
   3.8949999999999985E-002    -1.3906909431407770E-006
   3.9800000000000002E-002    -1.6242006372072638E-006
   4.0649999999999992E-002    -1.8939586981229878E-006
   4.1500000000000009E-002    -2.2050630526946709E-006
   4.2349999999999999E-002    -2.5632141956256797E-006
   4.3199999999999988E-002    -2.9747767625691473E-006
   4.4050000000000006E-002    -3.4468463937902040E-006
   4.4899999999999995E-002    -3.9873225158337646E-006
   4.5749999999999985E-002    -4.6049874389588366E-006
   4.6600000000000003E-002    -5.3095943977114906E-006
   4.7449999999999992E-002    -6.1119621992181524E-006
   4.8299999999999982E-002    -7.0240733661879163E-006
   4.9149999999999999E-002    -8.0591728015902318E-006
   4.9999999999999989E-002    -9.2318600455616204E-006
   5.0850000000000006E-002    -1.0558176284994197E-005
   5.1699999999999996E-002    -1.2055690081042079E-005
   5.2549999999999986E-002    -1.3743591806107658E-005
   5.3400000000000003E-002    -1.5642791732006548E-005
   5.4249999999999993E-002    -1.7776027246057963E-005
   5.5099999999999982E-002    -2.0167969146380218E-005
   5.5950000000000000E-002    -2.2845332429045526E-005
   5.6799999999999989E-002    -2.5836951099220863E-005
   5.7650000000000007E-002    -2.9173869305097592E-005
   5.8499999999999996E-002    -3.2889395987063218E-005
   5.9349999999999986E-002    -3.7019164602750957E-005
   6.0200000000000004E-002    -4.1601180647897781E-005
   6.1049999999999993E-002    -4.6675841247558853E-005
   6.1899999999999983E-002    -5.2285952285087671E-005
   6.2750000000000000E-002    -5.8476714403739461E-005
   6.3599999999999990E-002    -6.5295669556781212E-005
   6.4450000000000007E-002    -7.2792644128304152E-005
   6.5299999999999997E-002    -8.1019657268221909E-005
   6.6149999999999987E-002    -9.0030803764450860E-005
   6.7000000000000004E-002    -9.9882127206115301E-005
   6.7849999999999994E-002    -1.1063146612095983E-004
   6.8699999999999983E-002    -1.2233822735461129E-004
   6.9550000000000001E-002    -1.3506314061848505E-004
   7.0399999999999990E-002    -1.4886796243098577E-004
   7.1249999999999980E-002    -1.6381506962992549E-004
   7.2099999999999997E-002    -1.7996706859324546E-004
   7.2949999999999987E-002    -1.9738635634819598E-004
   7.3800000000000004E-002    -2.1613459110801075E-004
   7.4649999999999994E-002    -2.3627218793296790E-004
   7.5499999999999984E-002    -2.5785762215145086E-004
   7.6350000000000001E-002    -2.8094682245418675E-004
   7.7199999999999991E-002    -3.0559250451739518E-004
   7.8049999999999981E-002    -3.3184340437265923E-004
   7.8899999999999998E-002    -3.5974343332735923E-004
   7.9749999999999988E-002    -3.8933102602203612E-004
   8.0600000000000005E-002    -4.2063822693965634E-004
   8.1449999999999995E-002    -4.5368989943113484E-004
   8.2299999999999984E-002    -4.8850285361869584E-004
   8.3150000000000002E-002    -5.2508497490328450E-004
   8.3999999999999991E-002    -5.6343430078106349E-004
   8.4849999999999981E-002    -6.0353819932972995E-004
   8.5699999999999998E-002    -6.4537254912309808E-004
   8.6549999999999988E-002    -6.8890073589140217E-004
   8.7400000000000005E-002    -7.3407313385400385E-004
   8.8249999999999995E-002    -7.8082619702252545E-004
   8.9099999999999985E-002    -8.2908179039220889E-004
   8.9950000000000002E-002    -8.7874672258084359E-004
   9.0799999999999992E-002    -9.2971202489449463E-004
   9.1649999999999981E-002    -9.8185276194176518E-004
   9.2499999999999999E-002    -1.0350275966389425E-003
   9.3349999999999989E-002    -1.0890786764651010E-003
   9.4200000000000006E-002    -1.1438316373752330E-003
   9.5049999999999996E-002    -1.1990957978458890E-003
   9.5899999999999985E-002    -1.2546647154177478E-003
   9.6750000000000003E-002    -1.3103160020080517E-003
   9.7599999999999992E-002    -1.3658124506224993E-003
   9.8449999999999982E-002    -1.4209028809938067E-003
   9.9299999999999999E-002    -1.4753225447580358E-003
  0.10014999999999999         -1.5287945959662527E-003
  0.10099999999999998         -1.5810312254138622E-003
  0.10185000000000000         -1.6317353150188392E-003
  0.10269999999999999         -1.6806019607565799E-003
  0.10355000000000000         -1.7273202664652766E-003
  0.10439999999999999         -1.7715750913432683E-003
  0.10524999999999998         -1.8130494111965084E-003
  0.10610000000000000         -1.8514261413121711E-003
  0.10694999999999999         -1.8863909735959317E-003
  0.10779999999999998         -1.9176341174137301E-003
  0.10865000000000000         -1.9448534838416346E-003
  0.10949999999999999         -1.9677561600841844E-003
  0.11035000000000000         -1.9860613732645103E-003
  0.11119999999999999         -1.9995033504889904E-003
  0.11204999999999998         -2.0078326994388690E-003
  0.11290000000000000         -2.0108198763740940E-003
  0.11374999999999999         -2.0082564734891888E-003
  0.11459999999999998         -1.9999573678256858E-003
  0.11545000000000000         -1.9857635662214137E-003
  0.11629999999999999         -1.9655429259031079E-003
  0.11715000000000000         -1.9391927804664787E-003
  0.11799999999999999         -1.9066412192727581E-003
  0.11884999999999998         -1.8678474334069700E-003
  0.11970000000000000         -1.8228041769690520E-003
  0.12054999999999999         -1.7715372389122230E-003
  0.12139999999999998         -1.7141062526273207E-003
  0.12225000000000000         -1.6506048817794834E-003
  0.12309999999999999         -1.5811607172998823E-003
  0.12395000000000000         -1.5059347171854794E-003
  0.12479999999999999         -1.4251208611663849E-003
  0.12564999999999998         -1.3389447210611968E-003
  0.12650000000000000         -1.2476626393822954E-003
  0.12734999999999999         -1.1515600214954892E-003
  0.12819999999999998         -1.0509499905701225E-003
  0.12905000000000000         -9.4617121830038536E-004
  0.12989999999999999         -8.3758564684098015E-004
  0.13074999999999998         -7.2557652913957777E-004
  0.13159999999999999         -6.1054584219794202E-004
  0.13245000000000001         -4.9291165839859927E-004
  0.13329999999999997         -3.7310574222868529E-004
  0.13414999999999999         -2.5157057428085042E-004
  0.13500000000000001         -1.2875640131545702E-004
  0.13584999999999997         -5.1185620949951497E-006
  0.13669999999999999          1.1888542063506892E-004
  0.13755000000000001          2.4279842957317064E-004
  0.13839999999999997          3.6616640012306968E-004
  0.13924999999999998          4.8854117564625090E-004
  0.14010000000000000          6.0948292959062936E-004
  0.14094999999999996          7.2856247568838808E-004
  0.14179999999999998          8.4536362992847322E-004
  0.14265000000000000          9.5948509105121252E-004
  0.14350000000000002          1.0705424758937388E-003
  0.14434999999999998          1.1781699291436270E-003
  0.14520000000000000          1.2820217591798270E-003
  0.14605000000000001          1.3817739595135328E-003
  0.14689999999999998          1.4771253392934574E-003
  0.14774999999999999          1.5677980958427838E-003
  0.14860000000000001          1.6535392120569964E-003
  0.14944999999999997          1.7341207049768610E-003
  0.15029999999999999          1.8093400126692595E-003
  0.15115000000000001          1.8790200894784291E-003
  0.15199999999999997          1.9430101080802691E-003
  0.15284999999999999          2.0011843627456543E-003
  0.15370000000000000          2.0534431781427040E-003
  0.15454999999999997          2.0997115714938225E-003
  0.15539999999999998          2.1399393629147464E-003
  0.15625000000000000          2.1741006937380470E-003
  0.15709999999999996          2.2021926683266158E-003
  0.15794999999999998          2.2242366652779713E-003
  0.15880000000000000          2.2402752750889025E-003
  0.15965000000000001          2.2503731766842770E-003
  0.16049999999999998          2.2546152115744521E-003
  0.16134999999999999          2.2531054348746637E-003
  0.16220000000000001          2.2459664233486017E-003
  0.16304999999999997          2.2333390086246799E-003
  0.16389999999999999          2.2153801218174158E-003
  0.16475000000000001          2.1922627301698087E-003
  0.16559999999999997          2.1641744759636561E-003
  0.16644999999999999          2.1313163209336953E-003
  0.16730000000000000          2.0939023644213298E-003
  0.16814999999999997          2.0521579754258705E-003
  0.16899999999999998          2.0063193587546734E-003
  0.16985000000000000          1.9566322790145821E-003
  0.17069999999999996          1.9033512972394869E-003
  0.17154999999999998          1.8467379767381955E-003
  0.17240000000000000          1.7870604658562631E-003
  0.17325000000000002          1.7245924450829378E-003
  0.17409999999999998          1.6596117280988872E-003
  0.17494999999999999          1.5923994807654413E-003
  0.17580000000000001          1.5232388545554719E-003
  0.17664999999999997          1.4524143753936747E-003
  0.17749999999999999          1.3802101584304831E-003
  0.17835000000000001          1.3069091714489811E-003
  0.17919999999999997          1.2327923248915324E-003
  0.18004999999999999          1.1581372487744837E-003
  0.18090000000000001          1.0832173210948443E-003
  0.18174999999999997          1.0083010189275649E-003
  0.18259999999999998          9.3365028279937567E-004
  0.18345000000000000          8.5951984420800428E-004
  0.18429999999999996          7.8615627183235099E-004
  0.18514999999999998          7.1379725359300191E-004
  0.18600000000000000          6.4267073575300726E-004
  0.18684999999999996          5.7299398093783871E-004
  0.18769999999999998          5.0497290445655795E-004
  0.18855000000000000          4.3880128210804678E-004
  0.18940000000000001          3.7466032595332105E-004
  0.19024999999999997          3.1271835339061313E-004
  0.19109999999999999          2.5313041821790688E-004
  0.19195000000000001          1.9603790145004683E-004
  0.19279999999999997          1.4156807304567981E-004
  0.19364999999999999          8.9833836812982560E-005
  0.19450000000000001          4.0933672947174909E-005
  0.19534999999999997         -5.0481966308912888E-006
  0.19619999999999999         -4.8041696548763068E-005
  0.19705000000000000         -8.7990801263349659E-005
  0.19789999999999996         -1.2485348026775348E-004
  0.19874999999999998         -1.5860159813682324E-004
  0.19960000000000000         -1.8922052863181040E-004
  0.20044999999999996         -2.1670858288189038E-004
  0.20129999999999998         -2.4107643412593697E-004
  0.20215000000000000         -2.6234661151716107E-004
  0.20300000000000001         -2.8055309295678448E-004
  0.20384999999999998         -2.9574071414312995E-004
  0.20469999999999999         -3.0796471921588572E-004
  0.20555000000000001         -3.1728982980269265E-004
  0.20639999999999997         -3.2378966061762332E-004
  0.20724999999999999         -3.2754592490410453E-004
  0.20810000000000001         -3.2864787868929488E-004
  0.20894999999999997         -3.2719189555662382E-004
  0.20979999999999999         -3.2328071577726613E-004
  0.21065000000000000         -3.1702278142901847E-004
  0.21149999999999997         -3.0853147857287921E-004
  0.21234999999999998         -2.9792423623409210E-004
  0.21320000000000000         -2.8532197747131662E-004
  0.21404999999999996         -2.7084859675387241E-004
  0.21489999999999998         -2.5463034655756378E-004
  0.21575000000000000         -2.3679536270683122E-004
  0.21659999999999996         -2.1747286720658559E-004
  0.21744999999999998         -1.9679255131352085E-004
  0.21829999999999999         -1.7488396676077015E-004
  0.21915000000000001         -1.5187618723424198E-004
  0.21999999999999997         -1.2789744011098265E-004
  0.22084999999999999         -1.0307488415476105E-004
  0.22170000000000001         -7.7534092501129335E-005
  0.22254999999999997         -5.1398511641189870E-005
  0.22339999999999999         -2.4789040538608565E-005
  0.22425000000000000          2.1763240777937561E-006
  0.22509999999999997          2.9382771231699652E-005
  0.22594999999999998          5.6718934886276692E-005
  0.22680000000000000          8.4077240281227967E-005
  0.22764999999999996          1.1135427674366461E-004
  0.22849999999999998          1.3845110274912469E-004
  0.22935000000000000          1.6527341137304491E-004
  0.23019999999999996          1.9173156931978690E-004
  0.23104999999999998          2.1774063847184664E-004
  0.23190000000000000          2.4322041383383492E-004
  0.23275000000000001          2.6809556498091116E-004
  0.23359999999999997          2.9229579580257367E-004
  0.23444999999999999          3.1575591913154499E-004
  0.23530000000000001          3.3841606033325469E-004
  0.23614999999999997          3.6022150092577068E-004
  0.23699999999999999          3.8112280990509087E-004
  0.23785000000000001          4.0107558281916926E-004
  0.23869999999999997          4.2004032023907852E-004
  0.23954999999999999          4.3798230702247261E-004
  0.24040000000000000          4.5487156593040185E-004
  0.24124999999999996          4.7068260306382099E-004
  0.24209999999999998          4.8539433308376293E-004
  0.24295000000000000          4.9898947641225549E-004
  0.24379999999999996          5.1145450748006399E-004
  0.24464999999999998          5.2277929280408926E-004
  0.24550000000000000          5.3295696960261934E-004
  0.24634999999999996          5.4198399212752098E-004
  0.24719999999999998          5.4985991052811534E-004
  0.24804999999999999          5.5658690106773906E-004
  0.24890000000000001          5.6216954691023081E-004
  0.24974999999999997          5.6661437682039781E-004
  0.25059999999999999          5.6993004479155476E-004
  0.25145000000000001          5.7212685894297431E-004
  0.25229999999999997          5.7321674517824082E-004
  0.25314999999999999          5.7321282606217485E-004
  0.25400000000000000          5.7212917477761393E-004
  0.25484999999999997          5.6998070596876596E-004
  0.25569999999999998          5.6678307626550082E-004
  0.25655000000000000          5.6255292674899299E-004
  0.25739999999999996          5.5730788021712537E-004
  0.25824999999999998          5.5106623249129663E-004
  0.25910000000000000          5.4384705946234507E-004
  0.25994999999999996          5.3567023029252498E-004
  0.26079999999999998          5.2655670056218906E-004
  0.26164999999999999          5.1652860623008592E-004
  0.26249999999999996          5.0560912865312490E-004
  0.26334999999999997          4.9382278838595818E-004
  0.26419999999999999          4.8119515735816482E-004
  0.26505000000000001          4.6775327815018144E-004
  0.26589999999999997          4.5352579097811382E-004
  0.26674999999999999          4.3854305406019643E-004
  0.26760000000000000          4.2283736671658501E-004
  0.26844999999999997          4.0644298817484823E-004
  0.26929999999999998          3.8939612417114989E-004
  0.27015000000000000          3.7173512929606430E-004
  0.27099999999999996          3.5350061487614764E-004
  0.27184999999999998          3.3473571612784665E-004
  0.27270000000000000          3.1548585326404954E-004
  0.27354999999999996          2.9579882168160351E-004
  0.27439999999999998          2.7572445759675734E-004
  0.27524999999999999          2.5531468222718330E-004
  0.27609999999999996          2.3462330579787673E-004
  0.27694999999999997          2.1370601423878905E-004
  0.27779999999999999          1.9262013233360619E-004
  0.27865000000000001          1.7142440893947337E-004
  0.27949999999999997          1.5017870481462398E-004
  0.28034999999999999          1.2894363548644636E-004
  0.28120000000000001          1.0778020148155898E-004
  0.28204999999999997          8.6749529112400181E-005
  0.28289999999999998          6.5912614444944958E-005
  0.28375000000000000          4.5330049199963671E-005
  0.28459999999999996          2.5061688042502824E-005
  0.28544999999999998          5.1661635904882603E-006
  0.28630000000000000         -1.4299643159245672E-005
  0.28714999999999996         -3.3281095144116817E-005
  0.28799999999999998         -5.1726140556982671E-005
  0.28885000000000000         -6.9585586536729740E-005
  0.28969999999999996         -8.6813363088066839E-005
  0.29054999999999997         -1.0336687424364739E-004
  0.29139999999999999         -1.1920730191617693E-004
  0.29224999999999995         -1.3429986866334879E-004
  0.29309999999999997         -1.4861396305128490E-004
  0.29394999999999999         -1.6212325770460597E-004
  0.29480000000000001         -1.7480568086356352E-004
  0.29564999999999997         -1.8664353179974796E-004
  0.29649999999999999         -1.9762354407001467E-004
  0.29735000000000000         -2.0773699922584500E-004
  0.29819999999999997         -2.1697974558405626E-004
  0.29904999999999998         -2.2535220246572618E-004
  0.29990000000000000         -2.3285916636413666E-004
  0.30074999999999996         -2.3950969025333008E-004
  0.30159999999999998         -2.4531696599846609E-004
  0.30245000000000000         -2.5029798958700405E-004
  0.30329999999999996         -2.5447330449084396E-004
  0.30414999999999998         -2.5786665912206741E-004
  0.30499999999999999         -2.6050459706275731E-004
  0.30584999999999996         -2.6241614392141462E-004
  0.30669999999999997         -2.6363252612232060E-004
  0.30754999999999999         -2.6418702207414897E-004
  0.30840000000000001         -2.6411471843452566E-004
  0.30924999999999997         -2.6345222738260993E-004
  0.31009999999999999         -2.6223731813462782E-004
  0.31095000000000000         -2.6050847627758379E-004
  0.31179999999999997         -2.5830457735211539E-004
  0.31264999999999998         -2.5566470747612408E-004
  0.31350000000000000         -2.5262796083219528E-004
  0.31434999999999996         -2.4923321371815175E-004
  0.31519999999999998         -2.4551873422547053E-004
  0.31605000000000000         -2.4152173166437621E-004
  0.31689999999999996         -2.3727806706179256E-004
  0.31774999999999998         -2.3282224640294212E-004
  0.31859999999999999         -2.2818745372406936E-004
  0.31944999999999996         -2.2340557210453907E-004
  0.32029999999999997         -2.1850707741104079E-004
  0.32114999999999999         -2.1352064608666640E-004
  0.32199999999999995         -2.0847307220689623E-004
  0.32284999999999997         -2.0338918282802347E-004
  0.32369999999999999         -1.9829205502939866E-004
  0.32455000000000001         -1.9320315466056791E-004
  0.32539999999999997         -1.8814231681416388E-004
  0.32624999999999998         -1.8312753916316070E-004
  0.32710000000000000         -1.7817489787015040E-004
  0.32794999999999996         -1.7329843941009626E-004
  0.32879999999999998         -1.6851050712503437E-004
  0.32965000000000000         -1.6382174888781450E-004
  0.33049999999999996         -1.5924129077851489E-004
  0.33134999999999998         -1.5477672277521454E-004
  0.33220000000000000         -1.5043417636521116E-004
  0.33304999999999996         -1.4621848965888038E-004
  0.33389999999999997         -1.4213343600575821E-004
  0.33474999999999999         -1.3818182441279660E-004
  0.33559999999999995         -1.3436550651252111E-004
  0.33644999999999997         -1.3068533782401563E-004
  0.33729999999999999         -1.2714117105531794E-004
  0.33815000000000001         -1.2373196391153343E-004
  0.33899999999999997         -1.2045594970171588E-004
  0.33984999999999999         -1.1731076941273819E-004
  0.34070000000000000         -1.1429355125916162E-004
  0.34154999999999996         -1.1140096926904969E-004
  0.34239999999999998         -1.0862934347455844E-004
  0.34325000000000000         -1.0597472646905369E-004