 -0.12000000000000000          0.0000000000000000
 -0.11914999999999999          0.0000000000000000
 -0.11830000000000000          0.0000000000000000
 -0.11745000000000000          0.0000000000000000
 -0.11660000000000000          0.0000000000000000
 -0.11574999999999999          0.0000000000000000
 -0.11490000000000000          0.0000000000000000
 -0.11405000000000000          0.0000000000000000
 -0.11320000000000000         -2.4089187919014522E-033
 -0.11234999999999999         -3.4924043869457794E-032
 -0.11150000000000000         -2.6182768542927619E-031
 -0.11065000000000000         -1.3463134898633595E-030
 -0.10979999999999999         -5.3112242407945262E-030
 -0.10894999999999999         -1.7035039952666398E-029
 -0.10810000000000000         -4.5898474038761299E-029
 -0.10725000000000000         -1.0568988661385857E-028
 -0.10639999999999999         -2.0884142130546246E-028
 -0.10554999999999999         -3.4949122923912611E-028
 -0.10470000000000000         -4.7103761894971796E-028
 -0.10385000000000000         -4.2081156317083650E-028
 -0.10299999999999999          9.0510656926269991E-029
 -0.10214999999999999          1.4852884398261633E-027
 -0.10130000000000000          4.2103850962295686E-027
 -0.10045000000000000          8.4575628155940082E-027
  -9.9599999999999994E-002     1.3678026555080464E-026
  -9.8750000000000004E-002     1.7944143746197634E-026
  -9.7900000000000001E-002     1.7361867897192439E-026
  -9.7049999999999997E-002     5.9277734628649631E-027
  -9.6199999999999994E-002    -2.3608886913862680E-026
  -9.5349999999999990E-002    -7.7283951298989706E-026
  -9.4500000000000001E-002    -1.5549271593045354E-025
  -9.3649999999999997E-002    -2.4685675466050320E-025
  -9.2799999999999994E-002    -3.2168666447987360E-025
  -9.1950000000000004E-002    -3.2769986227159298E-025
  -9.1100000000000000E-002    -1.9196563843582146E-025
  -9.0249999999999997E-002     1.6628575403945447E-025
  -8.9399999999999993E-002     8.0813140932316776E-025
  -8.8549999999999990E-002     1.7318670652521570E-024
  -8.7700000000000000E-002     2.8192469271762273E-024
  -8.6849999999999997E-002     3.7840815211954725E-024
  -8.5999999999999993E-002     4.1452820119877358E-024
  -8.5150000000000003E-002     3.2535758494075960E-024
  -8.4300000000000000E-002     4.0217276646594652E-025
  -8.3449999999999996E-002    -4.9579965298611802E-024
  -8.2600000000000007E-002    -1.2901701192621951E-023
  -8.1749999999999989E-002    -2.2653568206051294E-023
  -8.0900000000000000E-002    -3.2244320189638276E-023
  -8.0049999999999996E-002    -3.8339184841973239E-023
  -7.9199999999999993E-002    -3.6409413461555780E-023
  -7.8350000000000003E-002    -2.1409509964543601E-023
  -7.7499999999999999E-002     1.0944537384011048E-023
  -7.6649999999999996E-002     6.2338764780239343E-023
  -7.5800000000000006E-002     1.2971048360777398E-022
  -7.4949999999999989E-002     2.0326320115856572E-022
  -7.4099999999999999E-002     2.6534031872083130E-022
  -7.3249999999999996E-002     2.9096502748673004E-022
  -7.2399999999999992E-002     2.5078679658624085E-022
  -7.1550000000000002E-002     1.1685900284604419E-022
  -7.0699999999999999E-002    -1.2891223608029302E-022
  -6.9849999999999995E-002    -4.8462198665920017E-022
  -6.9000000000000006E-002    -9.1840729192042449E-022
  -6.8149999999999988E-002    -1.3613698277742299E-021
  -6.7299999999999999E-002    -1.7065255795674910E-021
  -6.6449999999999995E-002    -1.8167681819880963E-021
  -6.5599999999999992E-002    -1.5438725346953516E-021
  -6.4750000000000002E-002    -7.5874168137908838E-022
  -6.3899999999999998E-002     6.0944719558889254E-022
  -6.3049999999999995E-002     2.5305074878765294E-021
  -6.2199999999999998E-002     4.8350337746684091E-021
  -6.1350000000000002E-002     7.1909184940327772E-021
  -6.0499999999999998E-002     9.1053760490175260E-021
  -5.9650000000000002E-002     9.9619054976012014E-021
  -5.8799999999999998E-002     9.0978398206817162E-021
  -5.7950000000000002E-002     5.9221257303637398E-021
  -5.7099999999999998E-002     6.4974670033141439E-023
  -5.6249999999999994E-002    -8.4580229984500556E-021
  -5.5400000000000005E-002    -1.9093526315736671E-020
  -5.4550000000000001E-002    -3.0643193132220444E-020
  -5.3699999999999998E-002    -4.1238330602599067E-020
  -5.2849999999999994E-002    -4.8431517215014435E-020
  -5.2000000000000005E-002    -4.9431479912519211E-020
  -5.1150000000000001E-002    -4.1491171018944085E-020
  -5.0299999999999997E-002    -2.2434546750626142E-020
  -4.9449999999999994E-002     8.7225708335401285E-021
  -4.8600000000000004E-002     5.1136088298546978E-020
  -4.7750000000000001E-002     1.0159156514619596E-019
  -4.6899999999999997E-002     1.5418885060405110E-019
  -4.6049999999999994E-002     2.0039304013301039E-019
  -4.5200000000000004E-002     2.2957389415540959E-019
  -4.4350000000000001E-002     2.3011025490254253E-019
  -4.3499999999999997E-002     1.9106125050326635E-019
  -4.2649999999999993E-002     1.0430395238876328E-019
  -4.1800000000000004E-002    -3.3078943187677172E-020
  -4.0950000000000000E-002    -2.1649161889837040E-019
  -4.0099999999999997E-002    -4.3202087146384568E-019
  -3.9249999999999993E-002    -6.5560093911184161E-019
  -3.8400000000000004E-002    -8.5359161567718883E-019
  -3.7550000000000000E-002    -9.8510542064915530E-019
  -3.6699999999999997E-002    -1.0062360287412254E-018
  -3.5850000000000007E-002    -8.7606739349044745E-019
  -3.5000000000000003E-002    -5.6403652376212562E-019
  -3.4150000000000000E-002    -5.7894150355701260E-020
  -3.3299999999999996E-002     6.2878712919288190E-019
  -3.2450000000000007E-002     1.4508097638926982E-018
  -3.1600000000000003E-002     2.3285904990609205E-018
  -3.0750000000000000E-002     3.1496774950136149E-018
  -2.9899999999999996E-002     3.7755050779639386E-018
  -2.9050000000000006E-002     4.0538530045464006E-018
  -2.8200000000000003E-002     3.8368037581362563E-018
  -2.7349999999999999E-002     3.0031708138224290E-018
  -2.6499999999999996E-002     1.4834771824507193E-018
  -2.5650000000000006E-002    -7.1535588698789377E-019
  -2.4800000000000003E-002    -3.4891597548030311E-018
  -2.3949999999999999E-002    -6.6235511443933497E-018
  -2.3099999999999996E-002    -9.7928718696794893E-018
  -2.2250000000000006E-002    -1.2574535664756334E-017
  -2.1400000000000002E-002    -1.4480933693143083E-017
  -2.0549999999999999E-002    -1.5009117870475525E-017
  -1.9699999999999995E-002    -1.3705841431328931E-017
  -1.8850000000000006E-002    -1.0242611859607372E-017
  -1.8000000000000002E-002    -4.4924161553107647E-018
  -1.7149999999999999E-002     3.4024842394072765E-018
  -1.6299999999999995E-002     1.2983733486262414E-017
  -1.5450000000000005E-002     2.3462549394535617E-017
  -1.4600000000000002E-002     3.3747332496411120E-017
  -1.3749999999999998E-002     4.2518035477573712E-017
  -1.2899999999999995E-002     4.8346447877109025E-017
  -1.2050000000000005E-002     4.9854236327496525E-017
  -1.1200000000000002E-002     4.5894018841512046E-017
  -1.0349999999999998E-002     3.5732458196719041E-017
  -9.5000000000000084E-003     1.9211609683860552E-017
  -8.6500000000000049E-003    -3.1357426764001940E-018
  -7.8000000000000014E-003    -3.0036891875408922E-017
  -6.9499999999999978E-003    -5.9509581091757812E-017
  -6.1000000000000082E-003    -8.8974895849614412E-017
  -5.2500000000000047E-003    -1.1544603403451869E-016
  -4.4000000000000011E-003    -1.3577505034951810E-016
  -3.5499999999999976E-003    -1.4693294893782637E-016
  -2.7000000000000079E-003    -1.4629481189174515E-016
  -1.8500000000000044E-003    -1.3190191673062414E-016
  -1.0000000000000009E-003    -1.0267881951681970E-016
  -1.4999999999999736E-004    -5.8590382446651358E-017
   6.9999999999999230E-004    -7.3421511366494089E-019
   1.5499999999999958E-003     6.8629108952704225E-017
   2.3999999999999994E-003     1.4609856255659506E-016
   3.2500000000000029E-003     2.2719882638172418E-016
   4.0999999999999925E-003     3.0648293927894876E-016
   4.9499999999999961E-003     3.7767101949706562E-016
   5.7999999999999996E-003     4.3383633052823012E-016
   6.6499999999999893E-003     4.6765275512196619E-016
   7.5000000000000067E-003     4.7172940874731963E-016
   8.3499999999999963E-003     4.3905345190011676E-016
   9.1999999999999860E-003     3.6355932109100041E-016
   1.0050000000000003E-002     2.4082575672552352E-016
   1.0899999999999993E-002     6.8883388130703172E-017
   1.1750000000000010E-002    -1.5090541444061164E-016
   1.2600000000000000E-002    -4.1296879681378213E-016
   1.3449999999999990E-002    -7.0674405390370815E-016
   1.4300000000000007E-002    -1.0161159027639087E-015
   1.5149999999999997E-002    -1.3192066887451994E-015
   1.5999999999999986E-002    -1.5886731341538974E-015
   1.6850000000000004E-002    -1.7926312203484480E-015
   1.7699999999999994E-002    -1.8963191064888118E-015
   1.8549999999999983E-002    -1.8645531983081053E-015
   1.9400000000000001E-002    -1.6649392669853861E-015
   2.0249999999999990E-002    -1.2717225809695943E-015
   2.1100000000000008E-002    -6.7004387930982710E-016
   2.1949999999999997E-002     1.3978373625340422E-016
   2.2799999999999987E-002     1.1384095150025273E-015
   2.3650000000000004E-002     2.2845468369221403E-015
   2.4499999999999994E-002     3.5135885134175244E-015
   2.5349999999999984E-002     4.7382524199317931E-015
   2.6200000000000001E-002     5.8516254878014991E-015
   2.7049999999999991E-002     6.7327844647238077E-015
   2.7900000000000008E-002     7.2549054850864404E-015
   2.8749999999999998E-002     7.2954863396569398E-015
   2.9599999999999987E-002     6.7480010901084808E-015
   3.0450000000000005E-002     5.5340850588943516E-015
   3.1299999999999994E-002     3.6151498795768341E-015
   3.2149999999999984E-002     1.0023607336169754E-015
   3.3000000000000002E-002    -2.2361418500416244E-015
   3.3849999999999991E-002    -5.9715740976560830E-015
   3.4700000000000009E-002    -1.0014990431721278E-014
   3.5549999999999998E-002    -1.4122298340914757E-014
   3.6399999999999988E-002    -1.8003583994723973E-014
   3.7250000000000005E-002    -2.1336619277899708E-014
   3.8099999999999995E-002    -2.3783882885681662E-014
   3.8949999999999985E-002    -2.5012553218221002E-014
   3.9800000000000002E-002    -2.4716489574776238E-014
   4.0649999999999992E-002    -2.2639682824118844E-014
   4.1500000000000009E-002    -1.8599705594613200E-014
   4.2349999999999999E-002    -1.2510695416163818E-014
   4.3199999999999988E-002    -4.4040242574419782E-015
   4.4050000000000006E-002     5.5542671678420189E-015
   4.4899999999999995E-002     1.7051409192301966E-014
   4.5749999999999985E-002     2.9622553176552434E-014
   4.6600000000000003E-002     4.2654164500325867E-014
   4.7449999999999992E-002     5.5397268680620463E-014
   4.8299999999999982E-002     6.6991710152514324E-014
   4.9149999999999999E-002     7.6501448106517572E-014
   4.9999999999999989E-002     8.2960517605582007E-014
   5.0850000000000006E-002     8.5427472263634282E-014
   5.1699999999999996E-002     8.3046307397978029E-014
   5.2549999999999986E-002     7.5110548578948171E-014
   5.3400000000000003E-002     6.1126109623780301E-014
   5.4249999999999993E-002     4.0870400475275011E-014
   5.5099999999999982E-002     1.4442943531389592E-014
   5.5950000000000000E-002    -1.7695189617229758E-014
   5.6799999999999989E-002    -5.4695460341533239E-014
   5.7650000000000007E-002    -9.5312374480733882E-014
   5.8499999999999996E-002    -1.3791052274382978E-013
   5.9349999999999986E-002    -1.8049001534085685E-013
   6.0200000000000004E-002    -2.2073124210919304E-013
   6.1049999999999993E-002    -2.5605890494317741E-013
   6.1899999999999983E-002    -2.8372663791374648E-013
   6.2750000000000000E-002    -3.0092067820841007E-013
   6.3599999999999990E-002    -3.0488381447635172E-013
   6.4450000000000007E-002    -2.9305645216738081E-013
   6.5299999999999997E-002    -2.6323368096408741E-013
   6.6149999999999987E-002    -2.1373231624042842E-013
   6.7000000000000004E-002    -1.4356233084844865E-013
   6.7849999999999994E-002    -5.2597116835294413E-014
   6.8699999999999983E-002     5.8270400866450062E-014
   6.9550000000000001E-002     1.8698941244535373E-013
   7.0399999999999990E-002     3.3025032132151824E-013
   7.1249999999999980E-002     4.8341830367427842E-013
   7.2099999999999997E-002     6.4052676834398382E-013
   7.2949999999999987E-002     7.9432668717313523E-013
   7.3800000000000004E-002     9.3640889835129335E-013
   7.4649999999999994E-002     1.0574007518481656E-012
   7.5499999999999984E-002     1.1472473046074811E-012
   7.6350000000000001E-002     1.1955679741355964E-012
   7.7199999999999991E-002     1.1921051122810339E-012
   7.8049999999999981E-002     1.1272408226200497E-012
   7.8899999999999998E-002     9.9258534852222816E-013
   7.9749999999999988E-002     7.8161477098789097E-013
   8.0600000000000005E-002     4.9033604521677727E-013
   8.1449999999999995E-002     1.1794931380828391E-013
   8.2299999999999984E-002    -3.3251296492433507E-013
   8.3150000000000002E-002    -8.5364800078511886E-013
   8.3999999999999991E-002    -1.4332370046823037E-012
   8.4849999999999981E-002    -2.0539780712291714E-012
   8.5699999999999998E-002    -2.6934221496367357E-012
   8.6549999999999988E-002    -3.3241600045810953E-012
   8.7400000000000005E-002    -3.9142826552161909E-012
   8.8249999999999995E-002    -4.4281389064545957E-012
   8.9099999999999985E-002    -4.8274179001253438E-012
   8.9950000000000002E-002    -5.0725153414073775E-012
   9.0799999999999992E-002    -5.1242087672364121E-012
   9.1649999999999981E-002    -4.9455605768833595E-012
   9.2499999999999999E-002    -4.5039953288342939E-012
   9.3349999999999989E-002    -3.7735304255168088E-012
   9.4200000000000006E-002    -2.7369296068325639E-012
   9.5049999999999996E-002    -1.3878757519022597E-012
   9.5899999999999985E-002     2.6725276282032582E-013
   9.6750000000000003E-002     2.2077256591487673E-012
   9.7599999999999992E-002     4.3975201993896511E-012
   9.8449999999999982E-002     6.7848131330781960E-012
   9.9299999999999999E-002     9.3022371372779688E-012
  0.10014999999999999          1.1867860586219030E-011
  0.10099999999999998          1.4387062520359946E-011
  0.10185000000000000          1.6755150608559469E-011
  0.10269999999999999          1.8860847950386096E-011
  0.10355000000000000          2.0590505320847621E-011
  0.10439999999999999          2.1832908404845423E-011
  0.10524999999999998          2.2484550619290420E-011
  0.10610000000000000          2.2455390798308562E-011
  0.10694999999999999          2.1674391809355703E-011
  0.10779999999999998          2.0095412834915909E-011
  0.10865000000000000          1.7702415274601900E-011
  0.10949999999999999          1.4514460498160625E-011
  0.11035000000000000          1.0590194597959216E-011
  0.11119999999999999          6.0315962423659951E-012
  0.11204999999999998          9.8664202373213032E-013
  0.11290000000000000         -4.3481868470488483E-012
  0.11374999999999999         -9.7264813463307960E-012
  0.11459999999999998         -1.4850475574189091E-011
  0.11545000000000000         -1.9370224023132051E-011
  0.11629999999999999         -2.2883075789174740E-011
  0.11715000000000000         -2.4932556151535479E-011
  0.11799999999999999         -2.5007355567339838E-011
  0.11884999999999998         -2.2537727401343516E-011
  0.11970000000000000         -1.6893987463306191E-011
  0.12054999999999999         -7.3800218067653528E-012
  0.12139999999999998          6.7702098507213205E-012
  0.12225000000000000          2.6401964150485311E-011
  0.12309999999999999          5.2448714148312577E-011
  0.12395000000000000          8.5945699469057745E-011
  0.12479999999999999          1.2804149978201813E-010
  0.12564999999999998          1.8002139572702184E-010
  0.12650000000000000          2.4332137102046956E-010
  0.12734999999999999          3.1955641038660960E-010
  0.12819999999999998          4.1054989106855095E-010
  0.12905000000000000          5.1837073886945010E-010
  0.12989999999999999          6.4536764752416746E-010
  0.13074999999999998          7.9421887628717009E-010
  0.13159999999999999          9.6799015243100579E-010
  0.13245000000000001          1.1701946050077856E-009
  0.13329999999999997          1.4048738862100364E-009
  0.13414999999999999          1.6766844510187687E-009
  0.13500000000000001          1.9909995050138416E-009
  0.13584999999999997          2.3540268594422603E-009
  0.13669999999999999          2.7729370249814472E-009
  0.13755000000000001          3.2560383642927262E-009
  0.13839999999999997          3.8128801543783148E-009
  0.13924999999999998          4.4545363062268563E-009
  0.14010000000000000          5.1937789655760946E-009
  0.14094999999999996          6.0453092605713970E-009
  0.14179999999999998          7.0260465792698640E-009
  0.14265000000000000          8.1554322199802628E-009
  0.14350000000000002          9.4557399469347675E-009
  0.14434999999999998          1.0952446765512987E-008
  0.14520000000000000          1.2674657831825418E-008
  0.14605000000000001          1.4655420104184412E-008
  0.14689999999999998          1.6932212899540798E-008
  0.14774999999999999          1.9547617034233532E-008
  0.14860000000000001          2.2549747350159290E-008
  0.14944999999999997          2.5992697904228899E-008
  0.15029999999999999          2.9937559421849931E-008
  0.15115000000000001          3.4452739609309720E-008
  0.15199999999999997          3.9614976510169486E-008
  0.15284999999999999          4.5509998354218016E-008
  0.15370000000000000          5.2233550527072272E-008
  0.15454999999999997          5.9892251466678469E-008
  0.15539999999999998          6.8604527057491649E-008
  0.15625000000000000          7.8501366299672845E-008
  0.15709999999999996          8.9728256894288502E-008
  0.15794999999999998          1.0244493228546368E-007
  0.15880000000000000          1.1682775233295857E-007
  0.15965000000000001          1.3307034947104387E-007
  0.16049999999999998          1.5138424536481959E-007
  0.16134999999999999          1.7200102812864726E-007
  0.16220000000000001          1.9517196230128977E-007
  0.16304999999999997          2.2117015259630252E-007
  0.16389999999999999          2.5028961740257447E-007
  0.16475000000000001          2.8284997677250769E-007
  0.16559999999999997          3.1919224528628060E-007
  0.16644999999999999          3.5968111907568227E-007
  0.16730000000000000          4.0470624591431665E-007
  0.16814999999999997          4.5468005846534904E-007
  0.16899999999999998          5.1003731969361066E-007
  0.16985000000000000          5.7123540187356850E-007
  0.17069999999999996          6.3875096422003600E-007
  0.17154999999999998          7.1308183935795621E-007
  0.17240000000000000          7.9474023394283167E-007
  0.17325000000000002          8.8424654474008615E-007
  0.17409999999999998          9.8213980109925887E-007
  0.17494999999999999          1.0889556767308721E-006
  0.17580000000000001          1.2052359842317624E-006
  0.17664999999999997          1.3315150076074715E-006
  0.17749999999999999          1.4683191938621591E-006
  0.17835000000000001          1.6161550610176566E-006
  0.17919999999999997          1.7754993899508815E-006
  0.18004999999999999          1.9467941423321977E-006
  0.18090000000000001          2.1304455104523572E-006
  0.18174999999999997          2.3267947410445097E-006
  0.18259999999999998          2.5361299055073521E-006
  0.18345000000000000          2.7586509608030930E-006
  0.18429999999999996          2.9944841957756876E-006
  0.18514999999999998          3.2436402320457186E-006
  0.18600000000000000          3.5060271903022300E-006
  0.18684999999999996          3.7814161457355142E-006
  0.18769999999999998          4.0694830659337772E-006
  0.18855000000000000          4.3696991744624406E-006
  0.18940000000000001          4.6813815301713763E-006
  0.19024999999999997          5.0036944414277268E-006
  0.19109999999999999          5.3356130902219642E-006
  0.19195000000000001          5.6759342547136025E-006
  0.19279999999999997          6.0232265453754688E-006
  0.19364999999999999          6.3758168878890576E-006
  0.19450000000000001          6.7318107257382251E-006
  0.19534999999999997          7.0891710278535202E-006
  0.19619999999999999          7.4455579848060742E-006
  0.19705000000000000          7.7984684729039891E-006
  0.19789999999999996          8.1450768130592760E-006
  0.19874999999999998          8.4824321983050221E-006
  0.19960000000000000          8.8073793864524995E-006
  0.20044999999999996          9.1164357831015486E-006
  0.20129999999999998          9.4061151030238760E-006
  0.20215000000000000          9.6725919461275671E-006
  0.20300000000000001          9.9120518181260138E-006
  0.20384999999999998          1.0120480642175464E-005
  0.20469999999999999          1.0293771237557924E-005
  0.20555000000000001          1.0427780337605078E-005
  0.20639999999999997          1.0518379407509828E-005
  0.20724999999999999          1.0561452935405254E-005
  0.20810000000000001          1.0552900353923251E-005
  0.20894999999999997          1.0488835121230604E-005
  0.20979999999999999          1.0365293328763160E-005
  0.21065000000000000          1.0178707283030129E-005
  0.21149999999999997          9.9257079258851091E-006
  0.21234999999999998          9.6031907866213673E-006
  0.21320000000000000          9.2084348161395646E-006
  0.21404999999999996          8.7390345666859670E-006
  0.21489999999999998          8.1930705724704336E-006
  0.21575000000000000          7.5692737392546133E-006
  0.21659999999999996          6.8666884880972881E-006
  0.21744999999999998          6.0851537971253039E-006
  0.21829999999999999          5.2249885466556549E-006
  0.21915000000000001          4.2870702316856343E-006
  0.21999999999999997          3.2732779770372395E-006
  0.22084999999999999          2.1858342645498778E-006
  0.22170000000000001          1.0278991646015209E-006
  0.22254999999999997         -1.9674867761066266E-007
  0.22339999999999999         -1.4836332753653596E-006
  0.22425000000000000         -2.8273861202448673E-006
  0.22509999999999997         -4.2221716095224557E-006
  0.22594999999999998         -5.6610972550568772E-006
  0.22680000000000000         -7.1368879398442231E-006
  0.22764999999999996         -8.6416158885618509E-006
  0.22849999999999998         -1.0166721441937774E-005
  0.22935000000000000         -1.1703177780932579E-005
  0.23019999999999996         -1.3241455192367258E-005
  0.23104999999999998         -1.4771708981612566E-005
  0.23190000000000000         -1.6283621347414397E-005
  0.23275000000000001         -1.7766956624174134E-005
  0.23359999999999997         -1.9210996723551229E-005
  0.23444999999999999         -2.0605102864238642E-005
  0.23530000000000001         -2.1938789165951722E-005
  0.23614999999999997         -2.3201643802827008E-005
  0.23699999999999999         -2.4383479079448062E-005
  0.23785000000000001         -2.5474550092143962E-005
  0.23869999999999997         -2.6465464928779383E-005
  0.23954999999999999         -2.7347498992144866E-005
  0.24040000000000000         -2.8112520840859070E-005
  0.24124999999999996         -2.8753143167909677E-005
  0.24209999999999998         -2.9262833798620560E-005
  0.24295000000000000         -2.9635881936839084E-005
  0.24379999999999996         -2.9867578815245330E-005
  0.24464999999999998         -2.9954212126984697E-005
  0.24550000000000000         -2.9893120080194309E-005
  0.24634999999999996         -2.9682717088315805E-005
  0.24719999999999998         -2.9322587747214194E-005
  0.24804999999999999         -2.8813511250131257E-005
  0.24890000000000001         -2.8157338329196058E-005
  0.24974999999999997         -2.7357246742061969E-005
  0.25059999999999999         -2.6417325762391564E-005
  0.25145000000000001         -2.5342954464804294E-005
  0.25229999999999997         -2.4140408651345973E-005
  0.25314999999999999         -2.2817131876909162E-005
  0.25400000000000000         -2.1381354780849942E-005
  0.25484999999999997         -1.9842429023627338E-005
  0.25569999999999998         -1.8210150103730281E-005
  0.25655000000000000         -1.6495004867563896E-005
  0.25739999999999996         -1.4708785653508097E-005
  0.25824999999999998         -1.2862691828029997E-005
  0.25910000000000000         -1.0969184390414905E-005
  0.25994999999999996         -9.0404714920220911E-006
  0.26079999999999998         -7.0888187109375106E-006
  0.26164999999999999         -5.1271623785085809E-006
  0.26249999999999996         -3.1680229968746682E-006
  0.26334999999999997         -1.2236035614207981E-006
  0.26419999999999999          6.9402988960597780E-007
  0.26505000000000001          2.5731079621018348E-006
  0.26589999999999997          4.4027659967998696E-006
  0.26674999999999999          6.1725303276757123E-006
  0.26760000000000000          7.8722246038246816E-006
  0.26844999999999997          9.4926861568331424E-006
  0.26929999999999998          1.1025947944224991E-005
  0.27015000000000000          1.2464488146796896E-005
  0.27099999999999996          1.3801596736604511E-005
  0.27184999999999998          1.5032184294038675E-005
  0.27270000000000000          1.6151442661581193E-005
  0.27354999999999996          1.7155812802965647E-005
  0.27439999999999998          1.8042768645283860E-005
  0.27524999999999999          1.8810453442503578E-005
  0.27609999999999996          1.9458487047494172E-005
  0.27694999999999997          1.9987052640939246E-005
  0.27779999999999999          2.0397285045489285E-005
  0.27865000000000001          2.0691358946463463E-005
  0.27949999999999997          2.0872020960182418E-005
  0.28034999999999999          2.0942956159993948E-005
  0.28120000000000001          2.0908455204253381E-005
  0.28204999999999997          2.0773498539907506E-005
  0.28289999999999998          2.0543450922140813E-005
  0.28375000000000000          2.0224257485134144E-005
  0.28459999999999996          1.9822302888441329E-005
  0.28544999999999998          1.9344302114011661E-005
  0.28630000000000000          1.8797123285629660E-005
  0.28714999999999996          1.8187938759565567E-005
  0.28799999999999998          1.7523821226855414E-005
  0.28885000000000000          1.6811979002075675E-005
  0.28969999999999996          1.6059520779267593E-005
  0.29054999999999997          1.5273471878086703E-005
  0.29139999999999999          1.4460727227032712E-005
  0.29224999999999995          1.3627941235771634E-005
  0.29309999999999997          1.2781543803757535E-005
  0.29394999999999999          1.1927653188998667E-005
  0.29480000000000001          1.1072078438510714E-005
  0.29564999999999997          1.0220237977027707E-005
  0.29649999999999999          9.3771995729227072E-006
  0.29735000000000000          8.5475464162263439E-006
  0.29819999999999997          7.7354798557556332E-006
  0.29904999999999998          6.9447309184972070E-006
  0.29990000000000000          6.1785838034339776E-006
  0.30074999999999996          5.4399092017052159E-006
  0.30159999999999998          4.7310956575646348E-006
  0.30245000000000000          4.0542073189060556E-006
  0.30329999999999996          3.4108425873621320E-006
  0.30414999999999998          2.8022983772795592E-006
  0.30499999999999999          2.2294791783682459E-006
  0.30584999999999996          1.6930030819527723E-006
  0.30669999999999997          1.1931728819624563E-006
  0.30754999999999999          7.3000609833857240E-007
  0.30840000000000001          3.0322577872825519E-007
  0.30924999999999997         -8.7637608286333732E-008
  0.31009999999999999         -4.4329423169314468E-007
  0.31095000000000000         -7.6463974141353304E-007
  0.31179999999999997         -1.0527737573525545E-006
  0.31264999999999998         -1.3088838470938964E-006
  0.31350000000000000         -1.5343749595702188E-006
  0.31434999999999996         -1.7306587222162062E-006
  0.31519999999999998         -1.8992080704662290E-006
  0.31605000000000000         -2.0415116192684431E-006
  0.31689999999999996         -2.1592111708390180E-006
  0.31774999999999998         -2.2538559121568416E-006
  0.31859999999999999         -2.3270552081737344E-006
  0.31944999999999996         -2.3803788683978921E-006
  0.32029999999999997         -2.4154091492714087E-006
  0.32114999999999999         -2.4336348467343486E-006
  0.32199999999999995         -2.4365921525211955E-006
  0.32284999999999997         -2.4257257883548842E-006
  0.32369999999999999         -2.4024806853003647E-006
  0.32455000000000001         -2.3682726409867486E-006
  0.32539999999999997         -2.3244453813718859E-006
  0.32624999999999998         -2.2723121591875865E-006
  0.32710000000000000         -2.2131400624884491E-006
  0.32794999999999996         -2.1481449759017068E-006
  0.32879999999999998         -2.0784768103077055E-006
  0.32965000000000000         -2.0052393329845935E-006
  0.33049999999999996         -1.9294751630846979E-006
  0.33134999999999998         -1.8521390940894085E-006
  0.33220000000000000         -1.7740914259424483E-006
  0.33304999999999996         -1.6961216880238220E-006
  0.33389999999999997         -1.6190055180862959E-006
  0.33474999999999999         -1.5433326482650921E-006
  0.33559999999999995         -1.4697344395453537E-006
  0.33644999999999997         -1.3987573282707668E-006
  0.33729999999999999         -1.3308601701775127E-006
  0.33815000000000001         -1.2664499170723789E-006
  0.33899999999999997         -1.2058974219129997E-006
  0.33984999999999999         -1.1494931160114487E-006
  0.34070000000000000         -1.0974443168436364E-006
  0.34154999999999996         -1.0498836732811049E-006
  0.34239999999999998         -1.0068650838717728E-006
  0.34325000000000000         -9.6836909796744603E-007