 -0.12000000000000000          0.0000000000000000
 -0.11914999999999999          0.0000000000000000
 -0.11830000000000000          0.0000000000000000
 -0.11745000000000000          0.0000000000000000
 -0.11660000000000000          0.0000000000000000
 -0.11574999999999999          0.0000000000000000
 -0.11490000000000000          4.7431691687461938E-027
 -0.11405000000000000          4.4346227292209237E-026
 -0.11320000000000000          2.0410187301985047E-025
 -0.11234999999999999          5.8877131800112027E-025
 -0.11150000000000000          1.0734691063037205E-024
 -0.11065000000000000          7.7871219621785070E-025
 -0.10979999999999999         -2.3594681844915319E-024
 -0.10894999999999999         -1.0839851632680839E-023
 -0.10810000000000000         -2.4216400813318922E-023
 -0.10725000000000000         -3.2758028261601824E-023
 -0.10639999999999999         -1.1311301355733337E-023
 -0.10554999999999999          7.8347887874242888E-023
 -0.10470000000000000          2.6521780216851236E-022
 -0.10385000000000000          5.2018130404267389E-022
 -0.10299999999999999          6.9195847281467433E-022
 -0.10214999999999999          4.6953579276844482E-022
 -0.10130000000000000         -5.5824264915036377E-022
 -0.10045000000000000         -2.6736528088541729E-021
  -9.9599999999999994E-002    -5.6158885462982308E-021
  -9.8750000000000004E-002    -8.0959497549960859E-021
  -9.7900000000000001E-002    -7.5333788745627339E-021
  -9.7049999999999997E-002    -4.5191001555191038E-022
  -9.6199999999999994E-002     1.6051012095378555E-020
  -9.5349999999999990E-002     4.1668681829018973E-020
  -9.4500000000000001E-002     6.9667333239731602E-020
  -9.3649999999999997E-002     8.4573006431007858E-020
  -9.2799999999999994E-002     6.3019564305579766E-020
  -9.1950000000000004E-002    -1.9909134743886507E-020
  -9.1100000000000000E-002    -1.7770521899728963E-019
  -9.0249999999999997E-002    -3.9445676365662289E-019
  -8.9399999999999993E-002    -6.0748319333714879E-019
  -8.8549999999999990E-002    -7.0022522473877633E-019
  -8.7700000000000000E-002    -5.1703542522526534E-019
  -8.6849999999999997E-002     9.0841860162737110E-020
  -8.5999999999999993E-002     1.1872943652683269E-018
  -8.5150000000000003E-002     2.6551114737765818E-018
  -8.4300000000000000E-002     4.1130257485409946E-018
  -8.3449999999999996E-002     4.8925371156001443E-018
  -8.2600000000000007E-002     4.1250200904183698E-018
  -8.1749999999999989E-002     9.7441790998390993E-019
  -8.0900000000000000E-002    -4.9882407794167224E-018
  -8.0049999999999996E-002    -1.3332559138787525E-017
  -7.9199999999999993E-002    -2.2371886936343327E-017
  -7.8350000000000003E-002    -2.9010753804130583E-017
  -7.7499999999999999E-002    -2.9039447957916956E-017
  -7.6649999999999996E-002    -1.8024442795853071E-017
  -7.5800000000000006E-002     7.1936583149279083E-018
  -7.4949999999999989E-002     4.6593551166404050E-017
  -7.4099999999999999E-002     9.5104020335942306E-017
  -7.3249999999999996E-002     1.4143281955829563E-016
  -7.2399999999999992E-002     1.6835232797440181E-016
  -7.1550000000000002E-002     1.5509631079839643E-016
  -7.0699999999999999E-002     8.2161863368843510E-017
  -6.9849999999999995E-002    -6.1802592613740248E-017
  -6.9000000000000006E-002    -2.7212730417760308E-016
  -6.8149999999999988E-002    -5.2116561370937391E-016
  -6.7299999999999999E-002    -7.5472664089062687E-016
  -6.6449999999999995E-002    -8.9447686569243889E-016
  -6.5599999999999992E-002    -8.4833889657571426E-016
  -6.4750000000000002E-002    -5.2957937095624569E-016
  -6.3899999999999998E-002     1.1673869358470607E-016
  -6.3049999999999995E-002     1.0837274873142765E-015
  -6.2199999999999998E-002     2.2752738057860223E-015
  -6.1350000000000002E-002     3.4892744493974010E-015
  -6.0499999999999998E-002     4.4200391358700498E-015
  -5.9650000000000002E-002     4.6871242362958629E-015
  -5.8799999999999998E-002     3.8944818748418277E-015
  -5.7950000000000002E-002     1.7183458884836886E-015
  -5.7099999999999998E-002    -1.9846937245849247E-015
  -5.6249999999999994E-002    -7.0656437567773899E-015
  -5.5400000000000005E-002    -1.2990081220177239E-014
  -5.4550000000000001E-002    -1.8791715898254016E-014
  -5.3699999999999998E-002    -2.3100365786576290E-014
  -5.2849999999999994E-002    -2.4267261523448753E-014
  -5.2000000000000005E-002    -2.0599069383787393E-014
  -5.1150000000000001E-002    -1.0694322895402889E-014
  -5.0299999999999997E-002     6.1466012494229978E-015
  -4.9449999999999994E-002     2.9492026869149562E-014
  -4.8600000000000004E-002     5.7407602687565480E-014
  -4.7750000000000001E-002     8.6237134451826198E-014
  -4.6899999999999997E-002     1.1063442831846218E-013
  -4.6049999999999994E-002     1.2393203759084259E-013
  -4.5200000000000004E-002     1.1889918341764521E-013
  -4.4350000000000001E-002     8.8885606171630015E-014
  -4.3499999999999997E-002     2.9275296151175275E-014
  -4.2649999999999993E-002    -6.0910411931013159E-014
  -4.1800000000000004E-002    -1.7750014318592940E-013
  -4.0950000000000000E-002    -3.1005397036954274E-013
  -4.0099999999999997E-002    -4.4146733480919097E-013
  -3.9249999999999993E-002    -5.4860095814433090E-013
  -3.8400000000000004E-002    -6.0415062772288426E-013
  -3.7550000000000000E-002    -5.7982105824233009E-013
  -3.6699999999999997E-002    -4.5066020501933896E-013
  -3.5850000000000007E-002    -2.0017756986609351E-013
  -3.5000000000000003E-002     1.7436724345920201E-013
  -3.4150000000000000E-002     6.5730239725700326E-013
  -3.3299999999999996E-002     1.2114134432148093E-012
  -3.2450000000000007E-002     1.7772213026561104E-012
  -3.1600000000000003E-002     2.2753857387686661E-012
  -3.0750000000000000E-002     2.6126343202817279E-012
  -2.9899999999999996E-002     2.6911782537656582E-012
  -2.9050000000000006E-002     2.4210718195032464E-012
  -2.8200000000000003E-002     1.7344267920004943E-012
  -2.7349999999999999E-002     5.9995967129454308E-013
  -2.6499999999999996E-002    -9.6400010424193686E-013
  -2.5650000000000006E-002    -2.8799974629489325E-012
  -2.4800000000000003E-002    -5.0072842343165523E-012
  -2.3949999999999999E-002    -7.1444465561391991E-012
  -2.3099999999999996E-002    -9.0396731150240158E-012
  -2.2250000000000006E-002    -1.0408742514566619E-011
  -2.1400000000000002E-002    -1.0959932234898871E-011
  -2.0549999999999999E-002    -1.0424216184632116E-011
  -1.9699999999999995E-002    -8.5883752512718034E-012
  -1.8850000000000006E-002    -5.3280745436970382E-012
  -1.8000000000000002E-002    -6.3771865163512308E-013
  -1.7149999999999999E-002     5.3462173435333850E-012
  -1.6299999999999995E-002     1.2331294600271215E-011
  -1.5450000000000005E-002     1.9867146128305871E-011
  -1.4600000000000002E-002     2.7357088779538798E-011
  -1.3749999999999998E-002     3.4084102174725622E-011
  -1.2899999999999995E-002     3.9250895066874631E-011
  -1.2050000000000005E-002     4.2032793788071403E-011
  -1.1200000000000002E-002     4.1641016171339319E-011
  -1.0349999999999998E-002     3.7393119639738148E-011
  -9.5000000000000084E-003     2.8786341126303499E-011
  -8.6500000000000049E-003     1.5569168983272776E-011
  -7.8000000000000014E-003    -2.1942361678806709E-012
  -6.9499999999999978E-003    -2.4072211034078087E-011
  -6.1000000000000082E-003    -4.9231609625857659E-011
  -5.2500000000000047E-003    -7.6426715561272999E-011
  -4.4000000000000011E-003    -1.0401526581734610E-010
  -3.5499999999999976E-003    -1.3000469708966390E-010
  -2.7000000000000079E-003    -1.5213023711894004E-010
  -1.8500000000000044E-003    -1.6796498824727168E-010
  -1.0000000000000009E-003    -1.7505989152473172E-010
  -1.4999999999999736E-004    -1.7110898029039788E-010
   6.9999999999999230E-004    -1.5413364788479773E-010
   1.5499999999999958E-003    -1.2267631630045997E-010
   2.3999999999999994E-003    -7.5992467091735283E-011
   3.2500000000000029E-003    -1.4227775852152394E-011
   4.0999999999999925E-003     6.1434285364395523E-011
   4.9499999999999961E-003     1.4866823301201172E-010
   5.7999999999999996E-003     2.4396087128852747E-010
   6.6499999999999893E-003     3.4263466566216463E-010
   7.5000000000000067E-003     4.3894983546145517E-010
   8.3499999999999963E-003     5.2628899625016771E-010
   9.1999999999999860E-003     5.9742325726191899E-010
   1.0050000000000003E-002     6.4485518534079546E-010
   1.0899999999999993E-002     6.6122479171371552E-010
   1.1750000000000010E-002     6.3976527179860692E-010
   1.2600000000000000E-002     5.7478734205171788E-010
   1.3449999999999990E-002     4.6217156343838403E-010
   1.4300000000000007E-002     2.9984926615242130E-010
   1.5149999999999997E-002     8.8249330427138588E-011
   1.5999999999999986E-002    -1.6930060673640382E-010
   1.6850000000000004E-002    -4.6623425644806650E-010
   1.7699999999999994E-002    -7.9247615220141893E-010
   1.8549999999999983E-002    -1.1342381988520936E-009
   1.9400000000000001E-002    -1.4738930660339940E-009
   2.0249999999999990E-002    -1.7899042124020867E-009
   2.1100000000000008E-002    -2.0568298818678091E-009
   2.1949999999999997E-002    -2.2453607482486614E-009
   2.2799999999999987E-002    -2.3224035783665606E-009
   2.3650000000000004E-002    -2.2511903957850955E-009
   2.4499999999999994E-002    -1.9913843456357227E-009
   2.5349999999999984E-002    -1.4991596275326640E-009
   2.6200000000000001E-002    -7.2724061141774382E-010
   2.7049999999999991E-002     3.7519381504168118E-010
   2.7900000000000008E-002     1.8627112624896957E-009
   2.8749999999999998E-002     3.7940691711693903E-009
   2.9599999999999987E-002     6.2328940613335627E-009
   3.0450000000000005E-002     9.2487086406989161E-009
   3.1299999999999994E-002     1.2918401571918376E-008
   3.2149999999999984E-002     1.7328097405185340E-008
   3.3000000000000002E-002     2.2575604373920699E-008
   3.3849999999999991E-002     2.8773366208994653E-008
   3.4700000000000009E-002     3.6052184388408893E-008
   3.5549999999999998E-002     4.4565355689524940E-008
   3.6399999999999988E-002     5.4493629036634058E-008
   3.7250000000000005E-002     6.6050781429040200E-008
   3.8099999999999995E-002     7.9489785321755133E-008
   3.8949999999999985E-002     9.5109747591298975E-008
   3.9800000000000002E-002     1.1326325976591870E-007
   4.0649999999999992E-002     1.3436492220911754E-007
   4.1500000000000009E-002     1.5889994053593442E-007
   4.2349999999999999E-002     1.8743380471433657E-007
   4.3199999999999988E-002     2.2062274555014528E-007
   4.4050000000000006E-002     2.5922490014300854E-007
   4.4899999999999995E-002     3.0411222564073449E-007
   4.5749999999999985E-002     3.5628393307965332E-007
   4.6600000000000003E-002     4.1688105964228061E-007
   4.7449999999999992E-002     4.8720141990288295E-007
   4.8299999999999982E-002     5.6871659635485811E-007
   4.9149999999999999E-002     6.6309129693298035E-007
   4.9999999999999989E-002     7.7220141082603746E-007
   5.0850000000000006E-002     8.9815844395465278E-007
   5.1699999999999996E-002     1.0433297124607980E-006
   5.2549999999999986E-002     1.2103670372116435E-006
   5.3400000000000003E-002     1.4022309557917095E-006
   5.4249999999999993E-002     1.6222214312720278E-006
   5.5099999999999982E-002     1.8740076773440000E-006
   5.5950000000000000E-002     2.1616609778440198E-006
   5.6799999999999989E-002     2.4896895042781069E-006
   5.7650000000000007E-002     2.8630728187947804E-006
   5.8499999999999996E-002     3.2872969906804395E-006
   5.9349999999999986E-002     3.7683943228177092E-006
   6.0200000000000004E-002     4.3129776868588827E-006
   6.1049999999999993E-002     4.9282816729783801E-006
   6.1899999999999983E-002     5.6221923217198176E-006
   6.2750000000000000E-002     6.4032868465542612E-006
   6.3599999999999990E-002     7.2808653564641911E-006
   6.4450000000000007E-002     8.2649736503780964E-006
   6.5299999999999997E-002     9.3664373589661275E-006
   6.6149999999999987E-002     1.0596870847686165E-005
   6.7000000000000004E-002     1.1968692662537390E-005
   6.7849999999999994E-002     1.3495135950571044E-005
   6.8699999999999983E-002     1.5190248624408769E-005
   6.9550000000000001E-002     1.7068857063831235E-005
   7.0399999999999990E-002     1.9146576348495875E-005
   7.1249999999999980E-002     2.1439750635493141E-005
   7.2099999999999997E-002     2.3965388936871718E-005
   7.2949999999999987E-002     2.6741150043248507E-005
   7.3800000000000004E-002     2.9785190419302112E-005
   7.4649999999999994E-002     3.3116122868663837E-005
   7.5499999999999984E-002     3.6752847756711656E-005
   7.6350000000000001E-002     4.0714437531876456E-005
   7.7199999999999991E-002     4.5019946645147528E-005
   7.8049999999999981E-002     4.9688253287624953E-005
   7.8899999999999998E-002     5.4737819809386468E-005
   7.9749999999999988E-002     6.0186450314931973E-005
   8.0600000000000005E-002     6.6051003844471408E-005
   8.1449999999999995E-002     7.2347207750360118E-005
   8.2299999999999984E-002     7.9089171218269083E-005
   8.3150000000000002E-002     8.6289169051388637E-005
   8.3999999999999991E-002     9.3957247176799477E-005
   8.4849999999999981E-002     1.0210082568612379E-004
   8.5699999999999998E-002     1.1072430681496268E-004
   8.6549999999999988E-002     1.1982860786156125E-004
   8.7400000000000005E-002     1.2941081428949894E-004
   8.8249999999999995E-002     1.3946363063434161E-004
   8.9099999999999985E-002     1.4997500619184944E-004
   8.9950000000000002E-002     1.6092770700102470E-004
   9.0799999999999992E-002     1.7229871173315455E-004
   9.1649999999999981E-002     1.8405902247001850E-004
   9.2499999999999999E-002     1.9617313377718183E-004
   9.3349999999999989E-002     2.0859858888589398E-004
   9.4200000000000006E-002     2.2128569830327907E-004
   9.5049999999999996E-002     2.3417733443365508E-004
   9.5899999999999985E-002     2.4720845823358666E-004
   9.6750000000000003E-002     2.6030612633850121E-004
   9.7599999999999992E-002     2.7338924291923434E-004
   9.8449999999999982E-002     2.8636863492937606E-004
   9.9299999999999999E-002     2.9914711583289800E-004
  0.10014999999999999          3.1161937512985677E-004
  0.10099999999999998          3.2367252063880084E-004
  0.10185000000000000          3.3518625029175402E-004
  0.10269999999999999          3.4603325088936802E-004
  0.10355000000000000          3.5607999396834755E-004
  0.10439999999999999          3.6518745736884527E-004
  0.10524999999999998          3.7321172284499737E-004
  0.10610000000000000          3.8000519735359168E-004
  0.10694999999999999          3.8541760800783027E-004
  0.10779999999999998          3.8929719784643811E-004
  0.10865000000000000          3.9149208177423366E-004
  0.10949999999999999          3.9185170087333292E-004
  0.11035000000000000          3.9022836184649971E-004
  0.11119999999999999          3.8647908938022892E-004
  0.11204999999999998          3.8046679488409755E-004
  0.11290000000000000          3.7206252562258868E-004
  0.11374999999999999          3.6114742556868113E-004
  0.11459999999999998          3.4761425869893618E-004
  0.11545000000000000          3.3136906245146032E-004
  0.11629999999999999          3.1233347914092277E-004
  0.11715000000000000          2.9044660324518273E-004
  0.11799999999999999          2.6566609167913478E-004
  0.11884999999999998          2.3797024018824229E-004
  0.11970000000000000          2.0735938534477980E-004
  0.12054999999999999          1.7385765351203431E-004
  0.12139999999999998          1.3751314029435943E-004
  0.12225000000000000          9.8400405482108888E-005
  0.12309999999999999          5.6619539108367995E-005
  0.12395000000000000          1.2298329209372799E-005
  0.12479999999999999         -3.4408837621523072E-005
  0.12564999999999998         -8.3320001138599152E-005
  0.12650000000000000         -1.3422633274546487E-004
  0.12734999999999999         -1.8689306770806226E-004
  0.12819999999999998         -2.4105948169635333E-004
  0.12905000000000000         -2.9644156660516382E-004
  0.12989999999999999         -3.5273234638624735E-004
  0.13074999999999998         -4.0960421036294434E-004
  0.13159999999999999         -4.6671136697741143E-004
  0.13245000000000001         -5.2369183983484626E-004
  0.13329999999999997         -5.8017056471264304E-004
  0.13414999999999999         -6.3576223140703373E-004
  0.13500000000000001         -6.9007464483292614E-004
  0.13584999999999997         -7.4271211025131315E-004
  0.13669999999999999         -7.9327883980976721E-004
  0.13755000000000001         -8.4138297029437404E-004
  0.13839999999999997         -8.8664007361661818E-004
  0.13924999999999998         -9.2867684366728081E-004
  0.14010000000000000         -9.6713540864992221E-004
  0.14094999999999996         -1.0016764945675431E-003
  0.14179999999999998         -1.0319837821108843E-003
  0.14265000000000000         -1.0577665316356488E-003
  0.14350000000000002         -1.0787635070320296E-003
  0.14434999999999998         -1.0947459518514573E-003
  0.14520000000000000         -1.1055200168106050E-003
  0.14605000000000001         -1.1109294474681861E-003
  0.14689999999999998         -1.1108579791019790E-003
  0.14774999999999999         -1.1052304611966837E-003
  0.14860000000000001         -1.0940141171576327E-003
  0.14944999999999997         -1.0772202017648800E-003
  0.15029999999999999         -1.0549033432191083E-003
  0.15115000000000001         -1.0271625704162575E-003
  0.15199999999999997         -9.9413978302784157E-004
  0.15284999999999999         -9.5601943546326962E-004
  0.15370000000000000         -9.1302636189893134E-004
  0.15454999999999997         -8.6542449560817576E-004
  0.15539999999999998         -8.1351520757329092E-004
  0.15625000000000000         -7.5763258880426874E-004
  0.15709999999999996         -6.9814207469365177E-004
  0.15794999999999998         -6.3543615115338079E-004
  0.15880000000000000         -5.6993179307265223E-004
  0.15965000000000001         -5.0206475458009858E-004
  0.16049999999999998         -4.3228703553203473E-004
  0.16134999999999999         -3.6106124034800027E-004
  0.16220000000000001         -2.8885757081492815E-004
  0.16304999999999997         -2.1614867721686323E-004
  0.16389999999999999         -1.4340548806797364E-004
  0.16475000000000001         -7.1092536208502136E-005
  0.16559999999999997          3.3562569763922459E-007
  0.16644999999999999          7.0438933033962543E-005
  0.16730000000000000          1.3879577370797075E-004
  0.16814999999999997          2.0500581988124541E-004
  0.16899999999999998          2.6869404326605587E-004
  0.16985000000000000          3.2951302484257431E-004
  0.17069999999999996          3.8714587829040550E-004
  0.17154999999999998          4.4130845247843597E-004
  0.17240000000000000          4.9175095039493300E-004
  0.17325000000000002          5.3825970208984408E-004
  0.17409999999999998          5.8065776860007198E-004
  0.17494999999999999          6.1880543029615650E-004
  0.17580000000000001          6.5260021073181495E-004
  0.17664999999999997          6.8197755229722364E-004
  0.17749999999999999          7.0690904910459163E-004
  0.17835000000000001          7.2740185951527376E-004
  0.17919999999999997          7.4349733333579134E-004
  0.18004999999999999          7.5526950960166505E-004
  0.18090000000000001          7.6282288915300635E-004
  0.18174999999999997          7.6629036666368800E-004
  0.18259999999999998          7.6583069781587150E-004
  0.18345000000000000          7.6162624586386665E-004
  0.18429999999999996          7.5387979639114254E-004
  0.18514999999999998          7.4281213838137290E-004
  0.18600000000000000          7.2865885557890316E-004
  0.18684999999999996          7.1166757718278033E-004
  0.18769999999999998          6.9209498793058064E-004
  0.18855000000000000          6.7020424484670897E-004
  0.18940000000000001          6.4626182583481912E-004
  0.19024999999999997          6.2053513871401583E-004
  0.19109999999999999          5.9328993371233606E-004
  0.19195000000000001          5.6478807362689103E-004
  0.19279999999999997          5.3528520274875510E-004
  0.19364999999999999          5.0502879815644396E-004
  0.19450000000000001          4.7425652205778578E-004
  0.19534999999999997          4.4319462789903409E-004
  0.19619999999999999          4.1205649033708273E-004
  0.19705000000000000          3.8104174177273415E-004
  0.19789999999999996          3.5033521660443449E-004
  0.19874999999999998          3.2010638911214616E-004
  0.19960000000000000          2.9050882415471927E-004
  0.20044999999999996          2.6168006334774320E-004
  0.20129999999999998          2.3374137061643547E-004
  0.20215000000000000          2.0679812431237659E-004
  0.20300000000000001          1.8093983204436247E-004
  0.20384999999999998          1.5624080774202220E-004
  0.20469999999999999          1.3276053405728223E-004
  0.20555000000000001          1.1054443741479502E-004
  0.20639999999999997          8.9624674727434550E-005
  0.20724999999999999          7.0020764041381578E-005
  0.20810000000000001          5.1740804136439568E-005
  0.20894999999999997          3.4782313495100471E-005
  0.20979999999999999          1.9133169705448575E-005
  0.21065000000000000          4.7724231452218284E-006
  0.21149999999999997         -8.3283927531591872E-006
  0.21234999999999998         -2.0204442393451640E-005
  0.21320000000000000         -3.0896672820597207E-005
  0.21404999999999996         -4.0450931767696766E-005
  0.21489999999999998         -4.8916936112055057E-005
  0.21575000000000000         -5.6347615727680357E-005
  0.21659999999999996         -6.2798222711089538E-005
  0.21744999999999998         -6.8325797085007394E-005
  0.21829999999999999         -7.2988310790362914E-005
  0.21915000000000001         -7.6844126202235346E-005
  0.21999999999999997         -7.9951477614157866E-005
  0.22084999999999999         -8.2368081032418292E-005
  0.22170000000000001         -8.4150439810300266E-005
  0.22254999999999997         -8.5353783549928412E-005
  0.22339999999999999         -8.6031586899926773E-005
  0.22425000000000000         -8.6235377100245185E-005
  0.22509999999999997         -8.6014537465906125E-005
  0.22594999999999998         -8.5416126205327137E-005
  0.22680000000000000         -8.4484659030057658E-005
  0.22764999999999996         -8.3262225836783590E-005
  0.22849999999999998         -8.1788293147991623E-005
  0.22935000000000000         -8.0099646500947049E-005
  0.23019999999999996         -7.8230447692524262E-005
  0.23104999999999998         -7.6212218075812313E-005
  0.23190000000000000         -7.4073846427617266E-005
  0.23275000000000001         -7.1841686837314459E-005
  0.23359999999999997         -6.9539574401533647E-005
  0.23444999999999999         -6.7189010070708099E-005
  0.23530000000000001         -6.4809176796334390E-005
  0.23614999999999997         -6.2417056591518400E-005
  0.23699999999999999         -6.0027629188248241E-005
  0.23785000000000001         -5.7653900007252737E-005
  0.23869999999999997         -5.5307125692935197E-005
  0.23954999999999999         -5.2996844785654556E-005
  0.24040000000000000         -5.0731085709463418E-005
  0.24124999999999996         -4.8516436243553896E-005
  0.24209999999999998         -4.6358218334710939E-005
  0.24295000000000000         -4.4260571489197301E-005
  0.24379999999999996         -4.2226608712035731E-005
  0.24464999999999998         -4.0258551047289287E-005
  0.24550000000000000         -3.8357811959055390E-005
  0.24634999999999996         -3.6525131907958528E-005
  0.24719999999999998         -3.4760701467432296E-005
  0.24804999999999999         -3.3064255632157099E-005
  0.24890000000000001         -3.1435147623768109E-005
  0.24974999999999997         -2.9872468708555988E-005
  0.25059999999999999         -2.8375130720497474E-005
  0.25145000000000001         -2.6941897206271715E-005
  0.25229999999999997         -2.5571473653291786E-005
  0.25314999999999999         -2.4262579856308530E-005
  0.25400000000000000         -2.3013984175835766E-005
  0.25484999999999997         -2.1824512328885916E-005
  0.25569999999999998         -2.0693077770459696E-005
  0.25655000000000000         -1.9618711766065887E-005
  0.25739999999999996         -1.8600515065698075E-005
  0.25824999999999998         -1.7637667801463685E-005
  0.25910000000000000         -1.6729395452246400E-005
  0.25994999999999996         -1.5874946739250561E-005
  0.26079999999999998         -1.5073549181355742E-005
  0.26164999999999999         -1.4324419988267382E-005
  0.26249999999999996         -1.3626669683726674E-005
  0.26334999999999997         -1.2979352094813238E-005
  0.26419999999999999         -1.2381415647024186E-005
  0.26505000000000001         -1.1831670107172636E-005
  0.26589999999999997         -1.1328799898102855E-005
  0.26674999999999999         -1.0871319403766329E-005
  0.26760000000000000         -1.0457581081611312E-005
  0.26844999999999997         -1.0085732478646824E-005
  0.26929999999999998         -9.7537302501835729E-006
  0.27015000000000000         -9.4593291764893726E-006
  0.27099999999999996         -9.2000730674426044E-006
  0.27184999999999998         -8.9733342360332615E-006
  0.27270000000000000         -8.7763010971790672E-006
  0.27354999999999996         -8.6060525813104438E-006
  0.27439999999999998         -8.4595526181693830E-006
  0.27524999999999999         -8.3337342494724661E-006
  0.27609999999999996         -8.2255157169159798E-006
  0.27694999999999997         -8.1318405217560529E-006
  0.27779999999999999         -8.0497356609497166E-006
  0.27865000000000001         -7.9763362006365590E-006
  0.27949999999999997         -7.9089165278666825E-006
  0.28034999999999999         -7.8449141286958262E-006
  0.28120000000000001         -7.7819695629562381E-006
  0.28204999999999997         -7.7179124756076825E-006
  0.28289999999999998         -7.6508300979684304E-006
  0.28375000000000000         -7.5790391654393190E-006
  0.28459999999999996         -7.5011104886576296E-006
  0.28544999999999998         -7.4158796203148199E-006
  0.28630000000000000         -7.3224455375766142E-006
  0.28714999999999996         -7.2201520061726521E-006
  0.28799999999999998         -7.1085853909463888E-006
  0.28885000000000000         -6.9875595753638941E-006
  0.28969999999999996         -6.8571041415948421E-006
  0.29054999999999997         -6.7174300238782593E-006
  0.29139999999999999         -6.5689095747541508E-006
  0.29224999999999995         -6.4120551586689825E-006
  0.29309999999999997         -6.2475079213412799E-006
  0.29394999999999999         -6.0759864665499367E-006
  0.29480000000000001         -5.8982699147853087E-006
  0.29564999999999997         -5.7151681460780247E-006
  0.29649999999999999         -5.5274944507579496E-006
  0.29735000000000000         -5.3360277913057195E-006
  0.29819999999999997         -5.1415093776813807E-006
  0.29904999999999998         -4.9446096071759303E-006
  0.29990000000000000         -4.7459329275420607E-006
  0.30074999999999996         -4.5460214730137995E-006
  0.30159999999999998         -4.3453603950822439E-006
  0.30245000000000000         -4.1443882200483483E-006
  0.30329999999999996         -3.9435250282980202E-006
  0.30414999999999998         -3.7431800650254669E-006
  0.30499999999999999         -3.5437766093754563E-006
  0.30584999999999996         -3.3457613753911153E-006
  0.30669999999999997         -3.1496035606718255E-006
  0.30754999999999999         -2.9558117476610517E-006
  0.30840000000000001         -2.7649204317281719E-006
  0.30924999999999997         -2.5774996572099043E-006
  0.31009999999999999         -2.3941606948676961E-006
  0.31095000000000000         -2.2155439170536212E-006
  0.31179999999999997         -2.0423398139148987E-006
  0.31264999999999998         -1.8752898132628488E-006
  0.31350000000000000         -1.7151769479274465E-006
  0.31434999999999996         -1.5628379525840554E-006
  0.31519999999999998         -1.4191447226709720E-006
  0.31605000000000000         -1.2849888112485546E-006
  0.31689999999999996         -1.1612729079932180E-006
  0.31774999999999998         -1.0488678605141866E-006
  0.31859999999999999         -9.4860448512682442E-007
  0.31944999999999996         -8.6122887524469240E-007
  0.32029999999999997         -7.8740446154413032E-007
  0.32114999999999999         -7.2766441610946008E-007
  0.32199999999999995         -6.8241323581771752E-007
  0.32284999999999997         -6.5191212616072260E-007
  0.32369999999999999         -6.3626128636866952E-007
  0.32455000000000001         -6.3540662183735969E-007
  0.32539999999999997         -6.4912500381012764E-007
  0.32624999999999998         -6.7700948678048044E-007
  0.32710000000000000         -7.1848718060318207E-007
  0.32794999999999996         -7.7279480948426997E-007
  0.32879999999999998         -8.3899406505220952E-007
  0.32965000000000000         -9.1597785293490437E-007
  0.33049999999999996         -1.0024855165033046E-006
  0.33134999999999998         -1.0971150157648466E-006
  0.33220000000000000         -1.1983664151602619E-006
  0.33304999999999996         -1.3046495969773935E-006
  0.33389999999999997         -1.4143286595639542E-006
  0.33474999999999999         -1.5257448232384285E-006
  0.33559999999999995         -1.6372419295000181E-006
  0.33644999999999997         -1.7472032445645025E-006
  0.33729999999999999         -1.8540615047469461E-006
  0.33815000000000001         -1.9563332287861161E-006
  0.33899999999999997         -2.0526363876245538E-006
  0.33984999999999999         -2.1417034527345355E-006
  0.34070000000000000         -2.2224092609648851E-006
  0.34154999999999996         -2.2937795266094733E-006
  0.34239999999999998         -2.3550067612062768E-006
  0.34325000000000000         -2.4054540616024410E-006