 -0.12000000000000000          0.0000000000000000
 -0.11914999999999999          0.0000000000000000
 -0.11830000000000000          0.0000000000000000
 -0.11745000000000000          0.0000000000000000
 -0.11660000000000000          0.0000000000000000
 -0.11574999999999999          0.0000000000000000
 -0.11490000000000000          0.0000000000000000
 -0.11405000000000000          0.0000000000000000
 -0.11320000000000000          0.0000000000000000
 -0.11234999999999999          0.0000000000000000
 -0.11150000000000000          0.0000000000000000
 -0.11065000000000000          0.0000000000000000
 -0.10979999999999999          0.0000000000000000
 -0.10894999999999999          0.0000000000000000
 -0.10810000000000000          0.0000000000000000
 -0.10725000000000000          0.0000000000000000
 -0.10639999999999999          0.0000000000000000
 -0.10554999999999999          0.0000000000000000
 -0.10470000000000000          0.0000000000000000
 -0.10385000000000000          0.0000000000000000
 -0.10299999999999999          0.0000000000000000
 -0.10214999999999999          0.0000000000000000
 -0.10130000000000000          0.0000000000000000
 -0.10045000000000000          0.0000000000000000
  -9.9599999999999994E-002     0.0000000000000000
  -9.8750000000000004E-002     0.0000000000000000
  -9.7900000000000001E-002     0.0000000000000000
  -9.7049999999999997E-002     0.0000000000000000
  -9.6199999999999994E-002     0.0000000000000000
  -9.5349999999999990E-002     0.0000000000000000
  -9.4500000000000001E-002     0.0000000000000000
  -9.3649999999999997E-002     0.0000000000000000
  -9.2799999999999994E-002     0.0000000000000000
  -9.1950000000000004E-002     0.0000000000000000
  -9.1100000000000000E-002     0.0000000000000000
  -9.0249999999999997E-002     6.9557674445043921E-041
  -8.9399999999999993E-002     1.9299008242769309E-040
  -8.8549999999999990E-002     1.5930648279166430E-040
  -8.7700000000000000E-002    -3.6878090418256012E-040
  -8.6849999999999997E-002    -1.4056422062903975E-039
  -8.5999999999999993E-002    -1.7265232472290045E-039
  -8.5150000000000003E-002    -3.1978495319199283E-040
  -8.4300000000000000E-002    -6.9573007754912388E-039
  -8.3449999999999996E-002    -9.5254504742553277E-039
  -8.2600000000000007E-002    -1.0904439942005996E-039
  -8.1749999999999989E-002     2.8353423894934547E-038
  -8.0900000000000000E-002     8.5638730966021453E-038
  -8.0049999999999996E-002     1.6765584865855613E-037
  -7.9199999999999993E-002     2.0871852391904151E-037
  -7.8350000000000003E-002     1.3018934668322556E-037
  -7.7499999999999999E-002    -1.8708620796706380E-037
  -7.6649999999999996E-002    -8.1263630687546339E-037
  -7.5800000000000006E-002    -1.6425006350840649E-036
  -7.4949999999999989E-002    -2.3273970843887112E-036
  -7.4099999999999999E-002    -2.1801261515638663E-036
  -7.3249999999999996E-002    -2.6805653972919593E-037
  -7.2399999999999992E-002     4.2336556334331910E-036
  -7.1550000000000002E-002     1.1348836426476509E-035
  -7.0699999999999999E-002     1.9362886816774856E-035
  -6.9849999999999995E-002     2.4003647814021288E-035
  -6.9000000000000006E-002     1.8391320466846940E-035
  -6.8149999999999988E-002    -5.4019286220244156E-036
  -6.7299999999999999E-002    -5.2511516473352949E-035
  -6.6449999999999995E-002    -1.1921019647125021E-034
  -6.5599999999999992E-002    -1.8603504065390680E-034
  -6.4750000000000002E-002    -2.1335273490113132E-034
  -6.3899999999999998E-002    -1.4423064603205541E-034
  -6.3049999999999995E-002     8.0127149960383695E-035
  -6.2199999999999998E-002     4.8921825132592975E-034
  -6.1350000000000002E-002     1.0387919839706667E-033
  -6.0499999999999998E-002     1.5647185261016092E-033
  -5.9650000000000002E-002     1.7579028731791659E-033
  -5.8799999999999998E-002     1.1921518964266705E-033
  -5.7950000000000002E-002    -5.6193409405437600E-034
  -5.7099999999999998E-002    -3.7180645350757801E-033
  -5.6249999999999994E-002    -7.9666840550558213E-033
  -5.5400000000000005E-002    -1.2152600541645081E-032
  -5.4550000000000001E-002    -1.4083022035332455E-032
  -5.3699999999999998E-002    -1.0674625981992656E-032
  -5.2849999999999994E-002     1.3325318977553655E-033
  -5.2000000000000005E-002     2.3937821468473016E-032
  -5.1150000000000001E-002     5.5769290613969880E-032
  -5.0299999999999997E-002     8.9709722017800260E-032
  -4.9449999999999994E-002     1.1115045431319337E-031
  -4.8600000000000004E-002     9.8245271865721030E-032
  -4.7750000000000001E-002     2.5796946955864608E-032
  -4.6899999999999997E-002    -1.2585966726255080E-031
  -4.6049999999999994E-002    -3.5673980314890729E-031
  -4.5200000000000004E-002    -6.2981050419908372E-031
  -4.4350000000000001E-002    -8.5542936131498518E-031
  -4.3499999999999997E-002    -8.8624786336598999E-031
  -4.2649999999999993E-002    -5.3378389542102198E-031
  -4.1800000000000004E-002     3.8240646896223462E-031
  -4.0950000000000000E-002     1.9473476152707418E-030
  -4.0099999999999997E-002     4.0315234621396117E-030
  -3.9249999999999993E-002     6.1654825295365681E-030
  -3.8400000000000004E-002     7.4568178835747606E-030
  -3.7550000000000000E-002     6.6189995279245727E-030
  -3.6699999999999997E-002     2.1894943119268781E-030
  -3.5850000000000007E-002    -7.0032908373396561E-030
  -3.5000000000000003E-002    -2.1120405867304171E-029
  -3.4150000000000000E-002    -3.8435136899254910E-029
  -3.3299999999999996E-002    -5.4527271961340763E-029
  -3.2450000000000007E-002    -6.1919965594694321E-029
  -3.1600000000000003E-002    -5.0631054794052301E-029
  -3.0750000000000000E-002    -1.0103159576732288E-029
  -2.9899999999999996E-002     6.7209972231767743E-029
  -2.9050000000000006E-002     1.8074186614283734E-028
  -2.8200000000000003E-002     3.1598962479659410E-028
  -2.7349999999999999E-002     4.3956620946689801E-028
  -2.6499999999999996E-002     4.9750031463698690E-028
  -2.5650000000000006E-002     4.1960950151089088E-028
  -2.4800000000000003E-002     1.3254704371891458E-028
  -2.3949999999999999E-002    -4.1712084184163755E-028
  -2.3099999999999996E-002    -1.2309316380640503E-027
  -2.2250000000000006E-002    -2.2224110121340067E-027
  -2.1400000000000002E-002    -3.1859447438222974E-027
  -2.0549999999999999E-002    -3.7838329677577334E-027
  -1.9699999999999995E-002    -3.5670993147001192E-027
  -1.8850000000000006E-002    -2.0446099447662848E-027
  -1.8000000000000002E-002     1.1909980199780151E-027
  -1.7149999999999999E-002     6.2841436302641646E-027
  -1.6299999999999995E-002     1.2905401147012554E-026
  -1.5450000000000005E-002     2.0052184678528447E-026
  -1.4600000000000002E-002     2.5925922362902095E-026
  -1.3749999999999998E-002     2.7965810485773006E-026
  -1.2899999999999995E-002     2.3120435164728495E-026
  -1.2050000000000005E-002     8.4179454073835638E-027
  -1.1200000000000002E-002    -1.8152570932487907E-026
  -1.0349999999999998E-002    -5.6513247101834591E-026
  -9.5000000000000084E-003    -1.0328892660445883E-025
  -8.6500000000000049E-003    -1.5079487732635313E-025
  -7.8000000000000014E-003    -1.8659534465843824E-025
  -6.9499999999999978E-003    -1.9406013171070725E-025
  -6.1000000000000082E-003    -1.5431860111165846E-025
  -5.2500000000000047E-003    -4.9867869982025224E-026
  -4.4000000000000011E-003     1.3018599852373029E-025
  -3.5499999999999976E-003     3.8369031124660717E-025
  -2.7000000000000079E-003     6.8876607081790923E-025
  -1.8500000000000044E-003     9.9839042861571720E-025
  -1.0000000000000009E-003     1.2382121215056721E-024
  -1.4999999999999736E-004     1.3098043854557806E-024
   6.9999999999999230E-004     1.1013917622140015E-024
   1.5499999999999958E-003     5.0736692967894786E-025
   2.3999999999999994E-003    -5.4346617268223228E-025
   3.2500000000000029E-003    -2.0530269782633222E-024
   4.0999999999999925E-003    -3.9171288060675393E-024
   4.9499999999999961E-003    -5.8940860984106532E-024
   5.7999999999999996E-003    -7.5885742418199026E-024
   6.6499999999999893E-003    -8.4619616029286045E-024
   7.5000000000000067E-003    -7.8799085085428513E-024
   8.3499999999999963E-003    -5.2050857935887024E-024
   9.1999999999999860E-003     6.3236887837382727E-026
   1.0050000000000003E-002     8.1102981760870631E-024
   1.0899999999999993E-002     1.8607314918369593E-023
   1.1750000000000010E-002     3.0526540411418077E-023
   1.2600000000000000E-002     4.2015974340791980E-023
   1.3449999999999990E-002     5.0388854853873637E-023
   1.4300000000000007E-002     5.2284773268963380E-023
   1.5149999999999997E-002     4.4049868510811159E-023
   1.5999999999999986E-002     2.2359940744096018E-023
   1.6850000000000004E-002    -1.4928929229161839E-023
   1.7699999999999994E-002    -6.7771653085194788E-023
   1.8549999999999983E-002    -1.3290099806449920E-022
   1.9400000000000001E-002    -2.0296961968606714E-022
   2.0249999999999990E-002    -2.6612188056588777E-022
   2.1100000000000008E-002    -3.0627812108495376E-022
   2.1949999999999997E-002    -3.0439758203854111E-022
   2.2799999999999987E-002    -2.4090915373543711E-022
   2.3650000000000004E-002    -9.9350012885069172E-023
   2.4499999999999994E-002     1.2896960104623913E-022
   2.5349999999999984E-002     4.3973938107745002E-022
   2.6200000000000001E-002     8.1063640495029099E-022
   2.7049999999999991E-002     1.1975976734908441E-021
   2.7900000000000008E-002     1.5336579401842885E-021
   2.8749999999999998E-002     1.7316821555382146E-021
   2.9599999999999987E-002     1.6921331241949191E-021
   3.0450000000000005E-002     1.3165295351322755E-021
   3.1299999999999994E-002     5.2643555568299045E-022
   3.2149999999999984E-002    -7.1329054363088238E-022
   3.3000000000000002E-002    -2.3695861666918196E-021
   3.3849999999999991E-002    -4.3185752080578124E-021
   3.4700000000000009E-002    -6.3303891666333232E-021
   3.5549999999999998E-002    -8.0672127440951743E-021
   3.6399999999999988E-002    -9.1002013910329127E-021
   3.7250000000000005E-002    -8.9496703096324613E-021
   3.8099999999999995E-002    -7.1504208477832933E-021
   3.8949999999999985E-002    -3.3402557907582335E-021
   3.9800000000000002E-002     2.6351970897090638E-021
   4.0649999999999992E-002     1.0613698849487400E-020
   4.1500000000000009E-002     2.0021320339330882E-020
   4.2349999999999999E-002     2.9812822971007710E-020
   4.3199999999999988E-002     3.8470989756185818E-020
   4.4050000000000006E-002     4.4086642645058933E-020
   4.4899999999999995E-002     4.4534938866660656E-020
   4.5749999999999985E-002     3.7752595021888811E-020
   4.6600000000000003E-002     2.2105095101655038E-020
   4.7449999999999992E-002    -3.1858821285482680E-021
   4.8299999999999982E-002    -3.7604990759140999E-020
   4.9149999999999999E-002    -7.8964439654432049E-020
   4.9999999999999989E-002    -1.2316599505715567E-019
   5.0850000000000006E-002    -1.6419004149829113E-019
   5.1699999999999996E-002    -1.9438929644960690E-019
   5.2549999999999986E-002    -2.0514084591707755E-019
   5.3400000000000003E-002    -1.8787011574308669E-019
   5.4249999999999993E-002    -1.3540537628219411E-019
   5.5099999999999982E-002    -4.3556855765126148E-020
   5.5950000000000000E-002     8.7253873925794656E-020
   5.6799999999999989E-002     2.5054937226294487E-019
   5.7650000000000007E-002     4.3281476943095955E-019
   5.8499999999999996E-002     6.1326973385954532E-019
   5.9349999999999986E-002     7.6465630250845313E-019
   6.0200000000000004E-002     8.5522909340248470E-019
   6.1049999999999993E-002     8.5200934245765169E-019
   6.1899999999999983E-002     7.2519500511986793E-019
   6.2750000000000000E-002     4.5341908779769231E-019
   6.3599999999999990E-002     2.9340486858260443E-020
   6.4450000000000007E-002    -5.3513909746448983E-019
   6.5299999999999997E-002    -1.2048762997523804E-018
   6.6149999999999987E-002    -1.9196028947280659E-018
   6.7000000000000004E-002    -2.5949977721650162E-018
   6.7849999999999994E-002    -3.1273608745164460E-018
   6.8699999999999983E-002    -3.4022061714326211E-018
   6.9550000000000001E-002    -3.3066381447836245E-018
   7.0399999999999990E-002    -2.7448262692204501E-018
   7.1249999999999980E-002    -1.6553151083275658E-018
   7.2099999999999997E-002    -2.8343788343459768E-020
   7.2949999999999987E-002     2.0790811550218788E-018
   7.3800000000000004E-002     4.5328675772862094E-018
   7.4649999999999994E-002     7.1187517325122213E-018
   7.5499999999999984E-002     9.5485737495221986E-018
   7.6350000000000001E-002     1.1477349297628282E-017
   7.7199999999999991E-002     1.2531535611564085E-017
   7.8049999999999981E-002     1.2347596370203193E-017
   7.8899999999999998E-002     1.0618522741847414E-017
   7.9749999999999988E-002     7.1444764737488560E-018
   8.0600000000000005E-002     1.8824277870522417E-018
   8.1449999999999995E-002    -5.0112875101080611E-018
   8.2299999999999984E-002    -1.3151999168046929E-017
   8.3150000000000002E-002    -2.1917574515543083E-017
   8.3999999999999991E-002    -3.0464335696925751E-017
   8.4849999999999981E-002    -3.7771440994734639E-017
   8.5699999999999998E-002    -4.2714599608189588E-017
   8.6549999999999988E-002    -4.4166916356040019E-017
   8.7400000000000005E-002    -4.1121251988907317E-017
   8.8249999999999995E-002    -3.2825208002877795E-017
   8.9099999999999985E-002    -1.8916748386943650E-017
   8.9950000000000002E-002     4.5363247164490510E-019
   9.0799999999999992E-002     2.4529408474327531E-017
   9.1649999999999981E-002     5.1898130255898029E-017
   9.2499999999999999E-002     8.0498211003487639E-017
   9.3349999999999989E-002     1.0769197605171459E-016
   9.4200000000000006E-002     1.3040976286714087E-016
   9.5049999999999996E-002     1.4536363603217982E-016
   9.5899999999999985E-002     1.4932260523861943E-016
   9.6750000000000003E-002     1.3943409134450892E-016
   9.7599999999999992E-002     1.1356978776660824E-016
   9.8449999999999982E-002     7.0668581300817082E-017
   9.9299999999999999E-002     1.1045228250516776E-017
  0.10014999999999999         -6.3368399857377337E-017
  0.10099999999999998         -1.4888152684874522E-016
  0.10185000000000000         -2.4003103933005227E-016
  0.10269999999999999         -3.2971870707322477E-016
  0.10355000000000000         -4.0951287252114472E-016
  0.10439999999999999         -4.7011700292124697E-016
  0.10524999999999998         -5.0199550297269541E-016
  0.10610000000000000         -4.9613295921350715E-016
  0.10694999999999999         -4.4489012572113285E-016
  0.10779999999999998         -3.4290654624646222E-016
  0.10865000000000000         -1.8798817198330363E-016
  0.10949999999999999          1.8089647106673451E-017
  0.11035000000000000          2.6894035517290897E-016
  0.11119999999999999          5.5316208567653098E-016
  0.11204999999999998          8.5424551060830430E-016
  0.11290000000000000          1.1508582957143057E-015
  0.11374999999999999          1.4175564121121764E-015
  0.11459999999999998          1.6259507116316564E-015
  0.11545000000000000          1.7463318483687228E-015
  0.11629999999999999          1.7497217852932526E-015
  0.11715000000000000          1.6102841148304736E-015
  0.11799999999999999          1.3079857011541185E-015
  0.11884999999999998          8.3136150717091690E-016
  0.11970000000000000          1.8019443819978738E-016
  0.12054999999999999         -6.3210736874183343E-016
  0.12139999999999998         -1.5766807282370147E-015
  0.12225000000000000         -2.6081744238902028E-015
  0.12309999999999999         -3.6647593989061277E-015
  0.12395000000000000         -4.6693948585024255E-015
  0.12479999999999999         -5.5325179734924172E-015
  0.12564999999999998         -6.1562396833268782E-015
  0.12650000000000000         -6.4400424116063945E-015
  0.12734999999999999         -6.2878527072482561E-015
  0.12819999999999998         -5.6162282475768422E-015
  0.12905000000000000         -4.3632720426183769E-015
  0.12989999999999999         -2.4977445090740116E-015
  0.13074999999999998         -2.7731186633385554E-017
  0.13159999999999999          2.9918629280109724E-015
  0.13245000000000001          6.4537808506541530E-015
  0.13329999999999997          1.0195622262367620E-014
  0.13414999999999999          1.4000524694631303E-014
  0.13500000000000001          1.7601926620193800E-014
  0.13584999999999997          2.0692833042646684E-014
  0.13669999999999999          2.2939769670981353E-014
  0.13755000000000001          2.4001301304037098E-014
  0.13839999999999997          2.3550657788760445E-014
  0.13924999999999998          2.1301642260542139E-014
  0.14010000000000000          1.7036644363430754E-014
  0.14094999999999996          1.0635220982639279E-014
  0.14179999999999998          2.1014145285311910E-015
  0.14265000000000000         -8.4122607080245635E-015
  0.14350000000000002         -2.0586332224062960E-014
  0.14434999999999998         -3.3923612398275672E-014
  0.14520000000000000         -4.7748234920366278E-014
  0.14605000000000001         -6.1216319659049214E-014
  0.14689999999999998         -7.3339635555635203E-014
  0.14774999999999999         -8.3023037216122605E-014
  0.14860000000000001         -8.9115830358822883E-014
  0.14944999999999997         -9.0476174827605036E-014
  0.15029999999999999         -8.6046896377626971E-014
  0.15115000000000001         -7.4939931932277838E-014
  0.15199999999999997         -5.6525671380451866E-014
  0.15284999999999999         -3.0522511732731131E-014
  0.15370000000000000          2.9189146544188591E-015
  0.15454999999999997          4.3142978092759434E-014
  0.15539999999999998          8.8934308839005007E-014
  0.15625000000000000          1.3848766334616562E-013
  0.15709999999999996          1.8940864414010153E-013
  0.15794999999999998          2.3875072819615453E-013
  0.15880000000000000          2.8309279828503594E-013
  0.15965000000000001          3.1865988041108155E-013
  0.16049999999999998          3.4148707092620497E-013
  0.16134999999999999          3.4762494431622246E-013
  0.16220000000000001          3.3338117256834877E-013
  0.16304999999999997          2.9559055943158405E-013
  0.16389999999999999          2.3190224412343578E-013
  0.16475000000000001          1.4107051965612832E-013
  0.16559999999999997          2.3232783312333058E-014
  0.16644999999999999         -1.1984380657568704E-013
  0.16730000000000000         -2.8456649428600381E-013
  0.16814999999999997         -4.6539187661451870E-013
  0.16899999999999998         -6.5479067673677451E-013
  0.16985000000000000         -8.4331939497024614E-013
  0.17069999999999996         -1.0198133561984250E-012
  0.17154999999999998         -1.1717098700078608E-012
  0.17240000000000000         -1.2855055225941295E-012
  0.17325000000000002         -1.3473451185906121E-012
  0.17409999999999998         -1.3437307353375600E-012
  0.17494999999999999         -1.2623328936033937E-012
  0.17580000000000001         -1.0928764886962664E-012
  0.17664999999999997         -8.2806536486265732E-013
  0.17749999999999999         -4.6450408905646960E-013
  0.17835000000000001         -3.5662809130994975E-015
  0.17919999999999997          5.4784392857475276E-013
  0.18004999999999999          1.1766943377196051E-012
  0.18090000000000001          1.8634481425063562E-012
  0.18174999999999997          2.5819625488128148E-012
  0.18259999999999998          3.2997111981687019E-012
  0.18345000000000000          3.9783691324811435E-012
  0.18429999999999996          4.5747897359227826E-012
  0.18514999999999998          5.0423821907842336E-012
  0.18600000000000000          5.3328843496490075E-012
  0.18684999999999996          5.3985033953749400E-012
  0.18769999999999998          5.1943766855315182E-012
  0.18855000000000000          4.6812779721834416E-012
  0.18940000000000001          3.8284755359992517E-012
  0.19024999999999997          2.6166292212173369E-012
  0.19109999999999999          1.0405858662932119E-012
  0.19195000000000001         -8.8806848086072348E-013
  0.19279999999999997         -3.1388620360486803E-012
  0.19364999999999999         -5.6608580216924834E-012
  0.19450000000000001         -8.3817995975509438E-012
  0.19534999999999997         -1.1208128077882513E-011
  0.19619999999999999         -1.4026003690626356E-011
  0.19705000000000000         -1.6703425332333098E-011
  0.19789999999999996         -1.9093518904481139E-011
  0.19874999999999998         -2.1039009648395736E-011
  0.19960000000000000         -2.2377861089350109E-011
  0.20044999999999996         -2.2949995816191417E-011
  0.20129999999999998         -2.2604948746599138E-011
  0.20215000000000000         -2.1210278108174085E-011
  0.20300000000000001         -1.8660452373597554E-011
  0.20384999999999998         -1.4885945445845715E-011
  0.20469999999999999         -9.8621480083010802E-012
  0.20555000000000001         -3.6177362319495043E-012
  0.20639999999999997          3.7579300620220208E-012
  0.20724999999999999          1.2108796544281541E-011
  0.20810000000000001          2.1207920277928687E-011
  0.20894999999999997          3.0755478496757035E-011
  0.20979999999999999          4.0379354875818925E-011
  0.21065000000000000          4.9638596429576967E-011
  0.21149999999999997          5.8029994522326890E-011
  0.21234999999999998          6.4997903700116720E-011
  0.21320000000000000          6.9947388472260243E-011
  0.21404999999999996          7.2260614517514303E-011
  0.21489999999999998          7.1316349200290487E-011
  0.21575000000000000          6.6512260336921337E-011
  0.21659999999999996          5.7289670935620870E-011
  0.21744999999999998          4.3160234316489916E-011
  0.21829999999999999          2.3734084619357000E-011
  0.21915000000000001         -1.2512872577158152E-012
  0.21999999999999997         -3.1901911599957122E-011
  0.22084999999999999         -6.8138722353158593E-011
  0.22170000000000001         -1.0966997913211691E-010
  0.22254999999999997         -1.5596522765208214E-010
  0.22339999999999999         -2.0623125566210191E-010
  0.22425000000000000         -2.5939014285306988E-010
  0.22509999999999997         -3.1405956737826428E-010
  0.22594999999999998         -3.6853517515951233E-010
  0.22680000000000000         -4.2077424720463917E-010
  0.22764999999999996         -4.6838027152026424E-010
  0.22849999999999998         -5.0858680017333705E-010
  0.22935000000000000         -5.3823970723360543E-010
  0.23019999999999996         -5.5377505379965838E-010
  0.23104999999999998         -5.5119112510838525E-010
  0.23190000000000000         -5.2601158505313855E-010
  0.23275000000000001         -4.7323684665717562E-010
  0.23359999999999997         -3.8728022871341705E-010
  0.23444999999999999         -2.6188501790964403E-010
  0.23530000000000001         -9.0017968837539117E-011
  0.23614999999999997          1.3626453781041972E-010
  0.23699999999999999          4.2598311044132977E-010
  0.23785000000000001          7.8943936920837420E-010
  0.23869999999999997          1.2384633363559965E-009
  0.23954999999999999          1.7867088581827891E-009
  0.24040000000000000          2.4500049991236687E-009
  0.24124999999999996          3.2467665886120342E-009
  0.24209999999999998          4.1984749079779136E-009
  0.24295000000000000          5.3302306735032414E-009
  0.24379999999999996          6.6713922467591129E-009
  0.24464999999999998          8.2563038051449332E-009
  0.24550000000000000          1.0125121634872355E-008
  0.24634999999999996          1.2324746122996274E-008
  0.24719999999999998          1.4909877157834210E-008
  0.24804999999999999          1.7944190205296043E-008
  0.24890000000000001          2.1501662045589422E-008
  0.24974999999999997          2.5668040716013039E-008
  0.25059999999999999          3.0542487825380935E-008
  0.25145000000000001          3.6239399577999258E-008
  0.25229999999999997          4.2890417601817491E-008
  0.25314999999999999          5.0646655364504028E-008
  0.25400000000000000          5.9681156621047853E-008
  0.25484999999999997          7.0191574952695596E-008
  0.25569999999999998          8.2403132959411484E-008
  0.25655000000000000          9.6571860082129924E-008
  0.25739999999999996          1.1298808221963179E-007
  0.25824999999999998          1.3198027410400131E-007
  0.25910000000000000          1.5391919599468112E-007
  0.25994999999999996          1.7922232762625885E-007
  0.26079999999999998          2.0835871352110376E-007
  0.26164999999999999          2.4185403374548781E-007
  0.26249999999999996          2.8029611385449041E-007
  0.26334999999999997          3.2434070329492720E-007
  0.26419999999999999          3.7471757970429642E-007
  0.26505000000000001          4.3223688044660026E-007
  0.26589999999999997          4.9779570106062394E-007
  0.26674999999999999          5.7238486164410169E-007
  0.26760000000000000          6.5709594532813266E-007
  0.26844999999999997          7.5312813161276737E-007
  0.26929999999999998          8.6179526196591975E-007
  0.27015000000000000          9.8453271161471767E-007
  0.27099999999999996          1.1229038556208129E-006
  0.27184999999999998          1.2786063223972044E-006
  0.27270000000000000          1.4534779223377308E-006
  0.27354999999999996          1.6495008112981871E-006
  0.27439999999999998          1.8688064781257071E-006
  0.27524999999999999          2.1136784721214319E-006
  0.27609999999999996          2.3865535595656934E-006
  0.27694999999999997          2.6900223119835228E-006
  0.27779999999999999          3.0268276229732184E-006
  0.27865000000000001          3.3998595887948530E-006
  0.27949999999999997          3.8121506715157825E-006
  0.28034999999999999          4.2668660284411506E-006
  0.28120000000000001          4.7672921245802666E-006
  0.28204999999999997          5.3168216412409255E-006
  0.28289999999999998          5.9189359184504947E-006
  0.28375000000000000          6.5771814152155101E-006
  0.28459999999999996          7.2951445114032572E-006
  0.28544999999999998          8.0764212212194782E-006
  0.28630000000000000          8.9245813806875102E-006
  0.28714999999999996          9.8431316532652503E-006
  0.28799999999999998          1.0835469472622131E-005
  0.28885000000000000          1.1904833106410820E-005
  0.28969999999999996          1.3054253657736921E-005
  0.29054999999999997          1.4286491565345490E-005
  0.29139999999999999          1.5603977224228759E-005
  0.29224999999999995          1.7008740889213170E-005
  0.29309999999999997          1.8502349391672969E-005
  0.29394999999999999          2.0085823235244119E-005
  0.29480000000000001          2.1759563078720978E-005
  0.29564999999999997          2.3523272586555722E-005
  0.29649999999999999          2.5375875993515010E-005
  0.29735000000000000          2.7315440297713245E-005
  0.29819999999999997          2.9339080687296913E-005
  0.29904999999999998          3.1442889611228509E-005
  0.29990000000000000          3.3621863726044553E-005
  0.30074999999999996          3.5869814119354876E-005
  0.30159999999999998          3.8179308461725240E-005
  0.30245000000000000          4.0541604460170546E-005
  0.30329999999999996          4.2946599653435256E-005
  0.30414999999999998          4.5382770621543391E-005
  0.30499999999999999          4.7837155125798894E-005
  0.30584999999999996          5.0295316492422309E-005
  0.30669999999999997          5.2741344057277936E-005
  0.30754999999999999          5.5157851806351366E-005
  0.30840000000000001          5.7525998437168347E-005
  0.30924999999999997          5.9825530952238912E-005
  0.31009999999999999          6.2034854269260483E-005
  0.31095000000000000          6.4131093569116905E-005
  0.31179999999999997          6.6090214982744388E-005
  0.31264999999999998          6.7887118688223023E-005
  0.31350000000000000          6.9495832119237784E-005
  0.31434999999999996          7.0889625322569026E-005
  0.31519999999999998          7.2041223571255595E-005
  0.31605000000000000          7.2923014318526324E-005
  0.31689999999999996          7.3507282364752727E-005
  0.31774999999999998          7.3766452137966727E-005
  0.31859999999999999          7.3673366422649260E-005
  0.31944999999999996          7.3201557135643344E-005
  0.32029999999999997          7.2325562300785073E-005
  0.32114999999999999          7.1021197403420524E-005
  0.32199999999999995          6.9265899287195487E-005
  0.32284999999999997          6.7039062132197261E-005
  0.32369999999999999          6.4322326318751885E-005
  0.32455000000000001          6.1099929211630593E-005
  0.32539999999999997          5.7359003579837616E-005
  0.32624999999999998          5.3089885464748012E-005
  0.32710000000000000          4.8286400182787378E-005
  0.32794999999999996          4.2946139354589959E-005
  0.32879999999999998          3.7070705447188474E-005
  0.32965000000000000          3.0665940369950981E-005
  0.33049999999999996          2.3742117534935835E-005
  0.33134999999999998          1.6314085728463784E-005
  0.33220000000000000          8.4013757516450626E-006
  0.33304999999999996          2.8272076404774322E-008
  0.33389999999999997         -8.7761576537837540E-006
  0.33474999999999999         -1.7978086047169034E-005
  0.33559999999999995         -2.7538999856183125E-005
  0.33644999999999997         -3.7415824537651914E-005
  0.33729999999999999         -4.7561119130012693E-005
  0.33815000000000001         -5.7923307813204864E-005
  0.33899999999999997         -6.8446967193262507E-005
  0.33984999999999999         -7.9073145267656635E-005
  0.34070000000000000         -8.9739753127251266E-005
  0.34154999999999996         -1.0038198857937443E-004
  0.34239999999999998         -1.1093284583079374E-004
  0.34325000000000000         -1.2132361357104838E-004
  0.34409999999999996         -1.3148443165457926E-004
  0.34494999999999998         -1.4134488292068747E-004