 -0.12000000000000000          0.0000000000000000     
 -0.11889999999999999          0.0000000000000000     
 -0.11780000000000000          0.0000000000000000     
 -0.11670000000000000          0.0000000000000000     
 -0.11559999999999999          0.0000000000000000     
 -0.11449999999999999          0.0000000000000000     
 -0.11340000000000000          3.7333362550224288E-015
 -0.11230000000000000         -9.2299443844759237E-015
 -0.11119999999999999         -3.4273240034866578E-014
 -0.11009999999999999          8.6530222819913155E-014
 -0.10900000000000000          2.1492857949119426E-013
 -0.10790000000000000         -4.4038641548553581E-013
 -0.10679999999999999         -1.1180384959855183E-012
 -0.10569999999999999          1.4642384527085994E-012
 -0.10460000000000000          4.8125622410799540E-012
 -0.10349999999999999         -2.9287199835442701E-012
 -0.10239999999999999         -1.6795813004288895E-011
 -0.10130000000000000          5.2945815049929013E-013
 -0.10020000000000000          4.7572903949522072E-011
  -9.9099999999999994E-002     2.2220647197257470E-011
  -9.7999999999999990E-002    -1.1150809442472820E-010
  -9.6899999999999986E-002    -1.1076679851118598E-010
  -9.5799999999999996E-002     2.1720610032804899E-010
  -9.4699999999999993E-002     3.7973182931416716E-010
  -9.3599999999999989E-002    -3.0847466248040689E-010
  -9.2499999999999999E-002    -1.0682397189043513E-009
  -9.1399999999999995E-002     4.3759905421492107E-011
  -9.0299999999999991E-002     2.4134523268770636E-009
  -8.9200000000000002E-002     1.5590152502298338E-009
  -8.8099999999999984E-002    -3.9368801552086552E-009
  -8.6999999999999994E-002    -5.9398539420385532E-009
  -8.5899999999999990E-002     3.3768485785401481E-009
  -8.4799999999999986E-002     1.3442154944698359E-008
  -8.3699999999999997E-002     3.1238691633461713E-009
  -8.2599999999999993E-002    -2.1568938635141421E-008
  -8.1499999999999989E-002    -1.9278894924923407E-008
  -8.0399999999999999E-002     2.4961011035884439E-008
  -7.9299999999999995E-002     4.8645425465565495E-008
  -7.8199999999999992E-002    -1.2655643644166048E-008
  -7.7100000000000002E-002    -9.2711751165097667E-008
  -7.5999999999999984E-002    -4.0518557398172561E-008
  -7.4899999999999994E-002     1.3080835969958571E-007
  -7.3799999999999991E-002     1.6309498107602849E-007
  -7.2699999999999987E-002    -9.4740023826034303E-008
  -7.1599999999999997E-002    -3.3117041198238439E-007
  -7.0499999999999993E-002    -9.7097192508499575E-008
  -6.9399999999999989E-002     4.3069712774013169E-007
  -6.8300000000000000E-002     4.4948066602046310E-007
  -6.7199999999999996E-002    -3.1692138691141736E-007
  -6.6099999999999992E-002    -8.6648066144334734E-007
  -6.5000000000000002E-002    -1.2583909381191916E-007
  -6.3899999999999985E-002     1.1687217238431913E-006
  -6.2799999999999995E-002     9.8343161880620755E-007
  -6.1699999999999991E-002    -9.9594228686328279E-007
  -6.0599999999999994E-002    -2.1118619315529941E-006
  -5.9499999999999990E-002    -1.2706841800991242E-007
  -5.8399999999999994E-002     2.8147644570708508E-006
  -5.7299999999999990E-002     2.2112790247774683E-006
  -5.6199999999999986E-002    -2.1249873043416301E-006
  -5.5099999999999996E-002    -4.3690233724191785E-006
  -5.3999999999999992E-002    -3.4610653187883145E-007
  -5.2899999999999989E-002     5.2531381697917823E-006
  -5.1799999999999985E-002     4.0065133362077177E-006
  -5.0699999999999995E-002    -3.7736961076006992E-006
  -4.9599999999999991E-002    -7.4458189374126960E-006
  -4.8499999999999988E-002    -4.4205216909176670E-007
  -4.7399999999999998E-002     8.6320333139155991E-006
  -4.6299999999999994E-002     6.3837496782070957E-006
  -4.5199999999999990E-002    -5.6463936743966769E-006
  -4.4099999999999986E-002    -1.0993993782903999E-005
  -4.2999999999999997E-002    -1.1293822126390296E-006
  -4.1899999999999993E-002     1.0811995707626920E-005
  -4.0799999999999989E-002     7.6706573963747360E-006
  -3.9699999999999985E-002    -6.3284151110565290E-006
  -3.8599999999999995E-002    -1.0660846783139277E-005
  -3.7499999999999992E-002     1.1901873904207605E-006
  -3.6399999999999988E-002     1.1240875210205559E-005
  -3.5299999999999984E-002     3.9883279896457680E-006
  -3.4199999999999994E-002    -9.3065273176762275E-006
  -3.3099999999999991E-002    -7.8633756857016124E-006
  -3.1999999999999987E-002     5.1636002353916410E-006
  -3.0899999999999997E-002     7.0389969550888054E-006
  -2.9799999999999993E-002    -6.2854087445884943E-006
  -2.8699999999999989E-002    -1.0068808478536084E-005
  -2.7599999999999986E-002     8.7888956841197796E-006
  -2.6499999999999996E-002     2.3184644305729307E-005
  -2.5399999999999992E-002     3.1961553759174421E-006
  -2.4299999999999988E-002    -3.0487657568301074E-005
  -2.3199999999999985E-002    -2.6596466341288760E-005
  -2.2099999999999995E-002     1.8648861441761255E-005
  -2.0999999999999991E-002     4.3048064981121570E-005
  -1.9899999999999987E-002     3.5928253510064678E-006
  -1.8799999999999983E-002    -5.0590726459631696E-005
  -1.7699999999999994E-002    -3.7569487176369876E-005
  -1.6599999999999990E-002     3.6774876207346097E-005
  -1.5499999999999986E-002     7.3747025453485548E-005
  -1.4399999999999996E-002     1.5940036973915994E-005
  -1.3299999999999992E-002    -6.5972461015917361E-005
  -1.2199999999999989E-002    -6.6226559283677489E-005
  -1.1099999999999985E-002     9.5320592663483694E-006
  -9.9999999999999950E-003     5.5764863645890728E-005
  -8.8999999999999913E-003     1.8330918464926071E-005
  -7.7999999999999875E-003    -3.5724144254345447E-005
  -6.6999999999999837E-003    -2.5436307623749599E-005
  -5.5999999999999939E-003     2.2865848222863860E-005
  -4.4999999999999901E-003     3.3115626138169318E-005
  -3.3999999999999864E-003     1.0727428616519319E-006
  -2.2999999999999826E-003    -6.9279340095818043E-006
  -1.1999999999999927E-003     1.5781541151227430E-005
  -9.9999999999988987E-005    -3.9485139495809563E-006
   1.0000000000000148E-003    -8.2806080172304064E-005
   2.1000000000000185E-003    -1.0932200530078262E-004
   3.2000000000000084E-003     5.0670669224928133E-006
   4.3000000000000121E-003     1.4733253919985145E-004
   5.4000000000000159E-003     1.2714452168438584E-004
   6.5000000000000058E-003    -5.4725373047403991E-005
   7.6000000000000234E-003    -1.5991626423783600E-004
   8.7000000000000133E-003    -3.5719247534871101E-005
   9.8000000000000032E-003     1.4503173588309437E-004
   1.0900000000000021E-002     1.2196703028166667E-004
   1.2000000000000011E-002    -1.1010889284079894E-004
   1.3100000000000001E-002    -2.5603867834433913E-004
   1.4200000000000018E-002    -1.1488703603390604E-004
   1.5300000000000008E-002     1.1888679000549018E-004
   1.6400000000000026E-002     1.7497105000074953E-004
   1.7500000000000016E-002     5.5731630709487945E-005
   1.8600000000000005E-002    -2.4253729861811735E-005
   1.9700000000000023E-002     1.2548987342597684E-006
   2.0800000000000013E-002     1.5317653378588147E-005
   2.1900000000000003E-002    -5.3117244533495978E-005
   2.3000000000000020E-002    -9.0513611212372780E-005
   2.4100000000000010E-002    -1.9197746951249428E-005
   2.5200000000000000E-002     2.9380276828305796E-005
   2.6300000000000018E-002    -7.3974973929580301E-005
   2.7400000000000008E-002    -1.0216105147264898E-004
   2.8500000000000025E-002     2.0304543795646168E-005
   2.9600000000000015E-002     2.2061927302274853E-004
   3.0700000000000005E-002     2.0307283557485789E-004
   3.1800000000000023E-002    -1.3041068996244576E-005
   3.2900000000000013E-002    -1.1548914335435256E-004
   3.4000000000000002E-002    -8.0604353570379317E-005
   3.5100000000000020E-002     1.4126587484497577E-004
   3.6200000000000010E-002     1.4254346024245024E-004
   3.7300000000000028E-002    -2.7437314201961271E-005
   3.8400000000000017E-002    -1.9247121235821396E-004
   3.9500000000000007E-002    -1.8323355470784009E-004
   4.0600000000000025E-002     2.3137992684496567E-005
   4.1700000000000015E-002     5.0347612705081701E-004
   4.2800000000000005E-002     7.4934778967872262E-004
   4.3900000000000022E-002    -4.2988609493477270E-005
   4.5000000000000012E-002    -1.1025343555957079E-003
   4.6100000000000002E-002    -2.8151538572274148E-004
   4.7200000000000020E-002     1.0249076876789331E-003
   4.8300000000000010E-002     8.8633870473131537E-004
   4.9400000000000027E-002     3.2770237885415554E-004
   5.0500000000000017E-002    -1.4748435933142900E-003
   5.1600000000000007E-002    -9.9994975607842207E-004
   5.2700000000000025E-002     9.2271430185064673E-004
   5.3800000000000014E-002     1.3512083096429706E-003
   5.4900000000000004E-002     3.5367827513255179E-004
   5.6000000000000022E-002    -1.6120253130793571E-003
   5.7100000000000012E-002    -8.2586117787286639E-004
   5.8200000000000002E-002     1.2002027360722423E-003
   5.9300000000000019E-002     1.8566234211903065E-004
   6.0400000000000009E-002    -2.1098935394547880E-004
   6.1500000000000027E-002    -1.0305181058356538E-004
   6.2600000000000017E-002     3.4614923060871661E-004
   6.3700000000000007E-002     6.1870506033301353E-004
   6.4800000000000024E-002    -7.7631138265132904E-004
   6.5900000000000014E-002    -2.4952760431915522E-003
   6.7000000000000004E-002     7.1697013481752947E-006
   6.8100000000000022E-002     2.6107751764357090E-003
   6.9200000000000012E-002     1.6389004886150360E-003
   7.0300000000000029E-002    -1.8516058335080743E-003
   7.1400000000000019E-002    -4.4907610863447189E-003
   7.2500000000000009E-002    -7.2755286237224936E-004
   7.3600000000000027E-002     4.3130507692694664E-003
   7.4700000000000016E-002     3.3053203951567411E-003
   7.5800000000000006E-002    -1.2657528277486563E-003
   7.6900000000000024E-002    -4.0713408961892128E-003
   7.8000000000000014E-002    -2.8625770937651396E-003
   7.9100000000000004E-002     5.3125171689316630E-004
   8.0200000000000021E-002     1.9984010141342878E-003
   8.1300000000000011E-002     2.4498915299773216E-003
   8.2400000000000029E-002     1.1726256925612688E-003
   8.3500000000000019E-002    -8.7816023733466864E-004
   8.4600000000000009E-002    -2.8791932854801416E-003
   8.5700000000000026E-002    -3.1141149811446667E-003
   8.6800000000000016E-002     7.9301669029518962E-004
   8.7900000000000006E-002     5.0089973956346512E-003
   8.9000000000000024E-002     4.4003031216561794E-003
   9.0100000000000013E-002    -1.6837575240060687E-003
   9.1200000000000003E-002    -7.2074593044817448E-003
   9.2300000000000021E-002    -4.3723485432565212E-003
   9.3400000000000011E-002     3.6644332576543093E-003
   9.4500000000000028E-002     8.3084078505635262E-003
   9.5600000000000018E-002     5.2225473336875439E-003
   9.6700000000000008E-002    -4.1346065700054169E-003
   9.7800000000000026E-002    -7.9218652099370956E-003
   9.8900000000000016E-002    -3.7705199792981148E-003
  0.10000000000000001          3.3641667105257511E-003
  0.10110000000000002          6.8764616735279560E-003
  0.10220000000000001          5.0643160939216614E-003
  0.10330000000000003          7.3014889494515955E-005
  0.10440000000000002         -6.2128123827278614E-003
  0.10550000000000001         -8.4286844357848167E-003
  0.10660000000000003          5.8193714357912540E-004
  0.10770000000000002          8.8607799261808395E-003
  0.10880000000000001          8.6900992318987846E-003
  0.10990000000000003         -1.7089705215767026E-003
  0.11100000000000002         -1.0366776958107948E-002
  0.11210000000000001         -7.9856021329760551E-003
  0.11320000000000002          1.5072427922859788E-003
  0.11430000000000001          9.3856407329440117E-003
  0.11540000000000003          8.0382321029901505E-003
  0.11650000000000002          7.7330827480182052E-005
  0.11760000000000001         -6.8727987818419933E-003
  0.11870000000000003         -8.4693422541022301E-003
  0.11980000000000002         -3.3652230631560087E-003
  0.12090000000000001          3.7887899670749903E-003
  0.12200000000000003          7.9978704452514648E-003
  0.12310000000000001          6.3398424535989761E-003
  0.12420000000000003         -1.6088865231722593E-003
  0.12530000000000002         -9.6236746758222580E-003
  0.12640000000000001         -9.7386827692389488E-003
  0.12750000000000003          3.6973436363041401E-004
  0.12860000000000002          1.1445976793766022E-002
  0.12970000000000001          1.1013574898242950E-002
  0.13080000000000003         -1.4121575513854623E-003
  0.13190000000000002         -1.1153778992593288E-002
  0.13300000000000001         -9.6890181303024292E-003
  0.13410000000000000         -4.5455763029167429E-005
  0.13520000000000004          7.6385624706745148E-003
  0.13630000000000003          8.0003049224615097E-003
  0.13740000000000002          3.0630009714514017E-003
  0.13850000000000001         -3.3294009044766426E-003
  0.13960000000000000         -7.5943041592836380E-003
  0.14070000000000005         -6.5006278455257416E-003
  0.14180000000000004          6.8810832453891635E-004
  0.14290000000000003          8.3457222208380699E-003
  0.14400000000000002          8.8980896398425102E-003
  0.14510000000000001          2.6496828650124371E-004
  0.14620000000000000         -8.5698580369353294E-003
  0.14730000000000004         -8.7705533951520920E-003
  0.14840000000000003         -1.2519273441284895E-003
  0.14950000000000002          6.2104519456624985E-003
  0.15060000000000001          7.6543167233467102E-003
  0.15170000000000000          3.6415141075849533E-003
  0.15280000000000005         -2.0440653897821903E-003
  0.15390000000000004         -6.5547912381589413E-003
  0.15500000000000003         -6.5565980039536953E-003
  0.15610000000000002         -1.0060522472485900E-003
  0.15720000000000001          7.4804159812629223E-003
  0.15830000000000000          9.7909783944487572E-003
  0.15940000000000004          1.6336751868948340E-003
  0.16050000000000003         -9.1543411836028099E-003
  0.16160000000000002         -1.0787848383188248E-002
  0.16270000000000001         -1.2788366293534636E-003
  0.16380000000000000          8.5653653368353844E-003
  0.16490000000000005          9.0108886361122131E-003
  0.16600000000000004          1.8634056905284524E-003
  0.16710000000000003         -4.4961608946323395E-003
  0.16820000000000002         -5.5705131962895393E-003
  0.16930000000000001         -3.8506984710693359E-003
  0.17040000000000000         -1.1610239744186401E-003
  0.17150000000000004          3.5443520173430443E-003
  0.17260000000000003          7.7532017603516579E-003
  0.17370000000000002          4.7793104313313961E-003
  0.17480000000000001         -5.5248620919883251E-003
  0.17590000000000000         -1.1808784678578377E-002
  0.17700000000000005         -4.4371923431754112E-003
  0.17810000000000004          9.4128409400582314E-003
  0.17920000000000003          1.2748791836202145E-002
  0.18030000000000002          1.0904730297625065E-003
  0.18140000000000001         -1.0881658643484116E-002
  0.18250000000000000         -8.9912302792072296E-003
  0.18360000000000004          2.2240285761654377E-003
  0.18470000000000003          7.4678510427474976E-003
  0.18580000000000002          2.4671100545674562E-003
  0.18690000000000001         -2.2850059904158115E-003
  0.18800000000000000         -4.1134530329145491E-004
  0.18910000000000005          1.3913648435845971E-003
  0.19020000000000004         -2.2745081223547459E-003
  0.19130000000000003         -5.1781595684587955E-003
  0.19240000000000002          1.7595251847524196E-004
  0.19350000000000001          8.1844879314303398E-003
  0.19460000000000005          5.9722689911723137E-003
  0.19570000000000004         -5.9677474200725555E-003
  0.19680000000000003         -1.1658982373774052E-002
  0.19790000000000002         -1.2125066714361310E-003
  0.19900000000000001          1.1763101443648338E-002
  0.20010000000000000          8.7240608409047127E-003
  0.20120000000000005         -5.6241629645228386E-003
  0.20230000000000004         -1.1024037376046181E-002
  0.20340000000000003         -1.2018806301057339E-003
  0.20450000000000002          8.8052889332175255E-003
  0.20560000000000000          4.3650157749652863E-003
  0.20670000000000005         -6.0155619867146015E-003
  0.20780000000000004         -5.6536286137998104E-003
  0.20890000000000003          4.4844071380794048E-003
