 -0.12000000000000000          0.0000000000000000     
 -0.11889999999999999          0.0000000000000000     
 -0.11780000000000000          0.0000000000000000     
 -0.11670000000000000          0.0000000000000000     
 -0.11559999999999999          0.0000000000000000     
 -0.11449999999999999          0.0000000000000000     
 -0.11340000000000000          2.0533333888023789E-018
 -0.11230000000000000          1.2251536454669638E-018
 -0.11119999999999999         -2.0092491702876410E-017
 -0.11009999999999999         -2.0840848620498034E-017
 -0.10900000000000000          7.5648082385363036E-017
 -0.10790000000000000          7.0868771772374551E-017
 -0.10679999999999999         -1.9141100987797929E-016
 -0.10569999999999999          2.9956355148030758E-016
 -0.10460000000000000          1.6836027082694051E-015
 -0.10349999999999999         -1.5620697857226477E-015
 -0.10239999999999999         -1.2462664262396801E-014
 -0.10130000000000000         -9.2464318807942286E-015
 -0.10020000000000000          3.8092155840198372E-014
  -9.9099999999999994E-002     8.5302133466611668E-014
  -9.7999999999999990E-002     2.5351700346485945E-015
  -9.6899999999999986E-002    -2.2073820906982206E-013
  -9.5799999999999996E-002    -3.0220305966867367E-013
  -9.4699999999999993E-002     2.5191169815289363E-014
  -9.3599999999999989E-002     5.1166091762783195E-013
  -9.2499999999999999E-002     6.7821480853255678E-013
  -9.1399999999999995E-002     6.5971344056017789E-013
  -9.0299999999999991E-002     6.6506446617237147E-013
  -8.9200000000000002E-002    -8.1036766923572867E-013
  -8.8099999999999984E-002    -5.5713272537061265E-012
  -8.6999999999999994E-002    -9.6427709567192821E-012
  -8.5899999999999990E-002    -2.2771185978487374E-012
  -8.4799999999999986E-002     2.0021808863623924E-011
  -8.3699999999999997E-002     3.7833257360286865E-011
  -8.2599999999999993E-002     2.1393305529859852E-011
  -8.1499999999999989E-002    -3.0387983795954199E-011
  -8.0399999999999999E-002    -7.6609739385613551E-011
  -7.9299999999999995E-002    -7.8853389096078530E-011
  -7.8199999999999992E-002    -4.3702094026931704E-011
  -7.7100000000000002E-002     1.4185433210023302E-011
  -7.5999999999999984E-002     1.3021587974559878E-010
  -7.4899999999999994E-002     3.1957378410218951E-010
  -7.3799999999999991E-002     4.1642722603540960E-010
  -7.2699999999999987E-002     1.2392875614608556E-010
  -7.1599999999999997E-002    -5.9405447228044750E-010
  -7.0499999999999993E-002    -1.2226473167231688E-009
  -6.9399999999999989E-002    -1.0753075097014175E-009
  -6.8300000000000000E-002    -8.2699916359452175E-011
  -6.7199999999999996E-002     1.0535946559642184E-009
  -6.6099999999999992E-002     1.7162944399018443E-009
  -6.5000000000000002E-002     2.0552695101372365E-009
  -6.3899999999999985E-002     2.2871222693510163E-009
  -6.2799999999999995E-002     1.5559249444407897E-009
  -6.1699999999999991E-002    -1.4017542682154271E-009
  -6.0599999999999994E-002    -5.8784350720486600E-009
  -5.9499999999999990E-002    -8.5155447138163254E-009
  -5.8399999999999994E-002    -6.4707692537524508E-009
  -5.7299999999999990E-002    -9.9477182047280621E-010
  -5.6199999999999986E-002     3.9836316467756205E-009
  -5.5099999999999996E-002     7.2912769155664137E-009
  -5.3999999999999992E-002     1.2107817859430270E-008
  -5.2899999999999989E-002     1.9839525577936001E-008
  -5.1799999999999985E-002     2.4082027039185050E-008
  -5.0699999999999995E-002     1.5000743758264434E-008
  -4.9599999999999991E-002    -8.9683727111378175E-009
  -4.8499999999999988E-002    -3.7253375495538421E-008
  -4.7399999999999998E-002    -5.7518139584544770E-008
  -4.6299999999999994E-002    -6.6478158089466888E-008
  -4.5199999999999990E-002    -6.5362542045477312E-008
  -4.4099999999999986E-002    -4.6994621527574054E-008
  -4.2999999999999997E-002     2.8167745913521003E-009
  -4.1899999999999993E-002     8.5035814834100165E-008
  -4.0799999999999989E-002     1.7364034476941015E-007
  -3.9699999999999985E-002     2.3028046314266248E-007
  -3.8599999999999995E-002     2.3204417232136620E-007
  -3.7499999999999992E-002     1.7786881301162794E-007
  -3.6399999999999988E-002     6.9101339761346026E-008
  -3.5299999999999984E-002    -1.0199753575079740E-007
  -3.4199999999999994E-002    -3.3289700240857201E-007
  -3.3099999999999991E-002    -5.8454094187254668E-007
  -3.1999999999999987E-002    -7.8551443039032165E-007
  -3.0899999999999997E-002    -8.6215499095487758E-007
  -2.9799999999999993E-002    -7.5639627539203502E-007
  -2.8699999999999989E-002    -4.2018797330456437E-007
  -2.7599999999999986E-002     1.8087867204030772E-007
  -2.6499999999999996E-002     1.0371312555434997E-006
  -2.5399999999999992E-002     2.0757759102707496E-006
  -2.4299999999999988E-002     3.1938600386638427E-006
  -2.3199999999999985E-002     4.3135282794537488E-006
  -2.2099999999999995E-002     5.3915755415800959E-006
  -2.0999999999999991E-002     6.3824127209954895E-006
  -1.9899999999999987E-002     7.2358320721832570E-006
  -1.8799999999999983E-002     7.9719229688635096E-006
  -1.7699999999999994E-002     8.7519038061145693E-006
  -1.6599999999999990E-002     9.8392683867132291E-006
  -1.5499999999999986E-002     1.1480584362288937E-005
  -1.4399999999999996E-002     1.3847308764525224E-005
  -1.3299999999999992E-002     1.7095828297897242E-005
  -1.2199999999999989E-002     2.1431458662846126E-005
  -1.1099999999999985E-002     2.7055852115154266E-005
  -9.9999999999999950E-003     3.4060522011714056E-005
  -8.8999999999999913E-003     4.2434654460521415E-005
  -7.7999999999999875E-003     5.2215134928701445E-005
  -6.6999999999999837E-003     6.3611136283725500E-005
  -5.5999999999999939E-003     7.6968215580563992E-005
  -4.4999999999999901E-003     9.2659262008965015E-005
  -3.3999999999999864E-003     1.1107492900919169E-004
  -2.2999999999999826E-003     1.3271480565890670E-004
  -1.1999999999999927E-003     1.5822579734958708E-004
  -9.9999999999988987E-005     1.8832845671568066E-004
   1.0000000000000148E-003     2.2375101980287582E-004
   2.1000000000000185E-003     2.6526348665356636E-004
   3.2000000000000084E-003     3.1372116063721478E-004
   4.3000000000000121E-003     3.7000211887061596E-004
   5.4000000000000159E-003     4.3492123950272799E-004
   6.5000000000000058E-003     5.0930428551509976E-004
   7.6000000000000234E-003     5.9418665478006005E-004
   8.7000000000000133E-003     6.9085852010175586E-004
   9.8000000000000032E-003     8.0064288340508938E-004
   1.0900000000000021E-002     9.2468847287818789E-004
   1.2000000000000011E-002     1.0640583932399750E-003
   1.3100000000000001E-002     1.2200254714116454E-003
   1.4200000000000018E-002     1.3941627694293857E-003
   1.5300000000000008E-002     1.5880657592788339E-003
   1.6400000000000026E-002     1.8030107021331787E-003
   1.7500000000000016E-002     2.0399081986397505E-003
   1.8600000000000005E-002     2.2995008621364832E-003
   1.9700000000000023E-002     2.5824084877967834E-003
   2.0800000000000013E-002     2.8890010435134172E-003
   2.1900000000000003E-002     3.2192226499319077E-003
   2.3000000000000020E-002     3.5725941415876150E-003
   2.4100000000000010E-002     3.9483448490500450E-003
   2.5200000000000000E-002     4.3453276157379150E-003
   2.6300000000000018E-002     4.7618425451219082E-003
   2.7400000000000008E-002     5.1955431699752808E-003
   2.8500000000000025E-002     5.6434362195432186E-003
   2.9600000000000015E-002     6.1017936095595360E-003
   3.0700000000000005E-002     6.5658446401357651E-003
   3.1800000000000023E-002     7.0296376943588257E-003
   3.2900000000000013E-002     7.4862604960799217E-003
   3.4000000000000002E-002     7.9280044883489609E-003
   3.5100000000000020E-002     8.3463368937373161E-003
   3.6200000000000010E-002     8.7317293509840965E-003
   3.7300000000000028E-002     9.0737165883183479E-003
   3.8400000000000017E-002     9.3616135418415070E-003
   3.9500000000000007E-002     9.5840590074658394E-003
   4.0600000000000025E-002     9.7285760566592216E-003
   4.1700000000000015E-002     9.7824027761816978E-003
   4.2800000000000005E-002     9.7328396514058113E-003
   4.3900000000000022E-002     9.5668528228998184E-003
   4.5000000000000012E-002     9.2712948098778725E-003
   4.6100000000000002E-002     8.8336458429694176E-003
   4.7200000000000020E-002     8.2421898841857910E-003
   4.8300000000000010E-002     7.4859214946627617E-003
   4.9400000000000027E-002     6.5560615621507168E-003
   5.0500000000000017E-002     5.4462347179651260E-003
   5.1600000000000007E-002     4.1509293951094151E-003
   5.2700000000000025E-002     2.6669381186366081E-003
   5.3800000000000014E-002     9.9463574588298798E-004
   5.4900000000000004E-002    -8.6229864973574877E-004
   5.6000000000000022E-002    -2.8978132177144289E-003
   5.7100000000000012E-002    -5.1023210398852825E-003
   5.8200000000000002E-002    -7.4609336443245411E-003
   5.9300000000000019E-002    -9.9550914019346237E-003
   6.0400000000000009E-002    -1.2564560398459435E-002
   6.1500000000000027E-002    -1.5266215428709984E-002
   6.2600000000000017E-002    -1.8031125888228416E-002
   6.3700000000000007E-002    -2.0824288949370384E-002
   6.4800000000000024E-002    -2.3608379065990448E-002
   6.5900000000000014E-002    -2.6346091181039810E-002
   6.7000000000000004E-002    -2.8999367728829384E-002
   6.8100000000000022E-002    -3.1527180224657059E-002
   6.9200000000000012E-002    -3.3884368836879730E-002
   7.0300000000000029E-002    -3.6024354398250580E-002
   7.1400000000000019E-002    -3.7904132157564163E-002
   7.2500000000000009E-002    -3.9484091103076935E-002
   7.3600000000000027E-002    -4.0724780410528183E-002
   7.4700000000000016E-002    -4.1590079665184021E-002
   7.5800000000000006E-002    -4.2049244046211243E-002
   7.6900000000000024E-002    -4.2073611170053482E-002
   7.8000000000000014E-002    -4.1636921465396881E-002
   7.9100000000000004E-002    -4.0720868855714798E-002
   8.0200000000000021E-002    -3.9317794144153595E-002
   8.1300000000000011E-002    -3.7430204451084137E-002
   8.2400000000000029E-002    -3.5066392272710800E-002
   8.3500000000000019E-002    -3.2234989106655121E-002
   8.4600000000000009E-002    -2.8950003907084465E-002
   8.5700000000000026E-002    -2.5239862501621246E-002
   8.6800000000000016E-002    -2.1146649494767189E-002
   8.7900000000000006E-002    -1.6718937084078789E-002
   8.9000000000000024E-002    -1.2005763128399849E-002
   9.0100000000000013E-002    -7.0576509460806847E-003
   9.1200000000000003E-002    -1.9315996905788779E-003
   9.2300000000000021E-002     3.3070128411054611E-003
   9.3400000000000011E-002     8.5885794833302498E-003
   9.4500000000000028E-002     1.3842470943927765E-002
   9.5600000000000018E-002     1.8998028710484505E-002
   9.6700000000000008E-002     2.3987133055925369E-002
   9.7800000000000026E-002     2.8746148571372032E-002
   9.8900000000000016E-002     3.3216141164302826E-002
  0.10000000000000001          3.7337809801101685E-002
  0.10110000000000002          4.1050843894481659E-002
  0.10220000000000001          4.4302284717559814E-002
  0.10330000000000003          4.7055125236511230E-002
  0.10440000000000002          4.9286682158708572E-002
  0.10550000000000001          5.0977468490600586E-002
  0.10660000000000003          5.2107445895671844E-002
  0.10770000000000002          5.2661754190921783E-002
  0.10880000000000001          5.2639141678810120E-002
  0.10990000000000003          5.2057553082704544E-002
  0.11100000000000002          5.0945457071065903E-002
  0.11210000000000001          4.9331221729516983E-002
  0.11320000000000002          4.7243155539035797E-002
  0.11430000000000001          4.4713281095027924E-002
  0.11540000000000003          4.1786227375268936E-002
  0.11650000000000002          3.8520738482475281E-002
  0.11760000000000001          3.4977380186319351E-002
  0.11870000000000003          3.1210497021675110E-002
  0.11980000000000002          2.7272341772913933E-002
  0.12090000000000001          2.3218978196382523E-002
  0.12200000000000003          1.9106192514300346E-002
  0.12310000000000001          1.4987092465162277E-002
  0.12420000000000003          1.0918106883764267E-002
  0.12530000000000002          6.9559286348521709E-003
  0.12640000000000001          3.1468051020056009E-003
  0.12750000000000003         -4.7711527440696955E-004
  0.12860000000000002         -3.8905295077711344E-003
  0.12970000000000001         -7.0629818364977837E-003
  0.13080000000000003         -9.9579030647873878E-003
  0.13190000000000002         -1.2546628713607788E-002
  0.13300000000000001         -1.4821019023656845E-002
  0.13410000000000000         -1.6786878928542137E-002
  0.13520000000000004         -1.8446633592247963E-002
  0.13630000000000003         -1.9795201718807220E-002
  0.13740000000000002         -2.0831020548939705E-002
  0.13850000000000001         -2.1565673872828484E-002
  0.13960000000000000         -2.2019641473889351E-002
  0.14070000000000005         -2.2211801260709763E-002
  0.14180000000000004         -2.2158639505505562E-002
  0.14290000000000003         -2.1881541237235069E-002
  0.14400000000000002         -2.1407755091786385E-002
  0.14510000000000001         -2.0762197673320770E-002
  0.14620000000000000         -1.9963048398494720E-002
  0.14730000000000004         -1.9029723480343819E-002
  0.14840000000000003         -1.7991203814744949E-002
  0.14950000000000002         -1.6879579052329063E-002
  0.15060000000000001         -1.5716493129730225E-002
  0.15170000000000000         -1.4512696303427219E-002
  0.15280000000000005         -1.3282191008329391E-002
  0.15390000000000004         -1.2049946933984756E-002
  0.15500000000000003         -1.0840012691915035E-002
  0.15610000000000002         -9.6612125635147095E-003
  0.15720000000000001         -8.5133789107203484E-003
  0.15830000000000000         -7.4053006246685982E-003
  0.15940000000000004         -6.3573662191629410E-003
  0.16050000000000003         -5.3832959383726120E-003
  0.16160000000000002         -4.4786832295358181E-003
  0.16270000000000001         -3.6334695760160685E-003
  0.16380000000000000         -2.8497790917754173E-003
  0.16490000000000005         -2.1409338805824518E-003
  0.16600000000000004         -1.5133635606616735E-003
  0.16710000000000003         -9.5827906625345349E-004
  0.16820000000000002         -4.6456512063741684E-004
  0.16930000000000001         -3.1407522328663617E-005
  0.17040000000000000          3.3844844438135624E-004
  0.17150000000000004          6.5168028231710196E-004
  0.17260000000000003          9.2018919531255960E-004
  0.17370000000000002          1.1453219922259450E-003
  0.17480000000000001          1.3182652182877064E-003
  0.17590000000000000          1.4392681187018752E-003
  0.17700000000000005          1.5269360737875104E-003
  0.17810000000000004          1.6007708618417382E-003
  0.17920000000000003          1.6588795697316527E-003
  0.18030000000000002          1.6840789467096329E-003
  0.18140000000000001          1.6715576639398932E-003
  0.18250000000000000          1.6392455436289310E-003
  0.18360000000000004          1.6070640413090587E-003
  0.18470000000000003          1.5750178135931492E-003
  0.18580000000000002          1.5301117673516273E-003
  0.18690000000000001          1.4694192213937640E-003
  0.18800000000000000          1.4041333924978971E-003
  0.18910000000000005          1.3413327978923917E-003
  0.19020000000000004          1.2748225126415491E-003
  0.19130000000000003          1.1996584944427013E-003
  0.19240000000000002          1.1256044963374734E-003
  0.19350000000000001          1.0653516510501504E-003
  0.19460000000000005          1.0140255326405168E-003
  0.19570000000000004          9.5382344443351030E-004
  0.19680000000000003          8.7991601321846247E-004
  0.19790000000000002          8.0936378799378872E-004
  0.19900000000000001          7.5826433021575212E-004
  0.20010000000000000          7.1961106732487679E-004
  0.20120000000000005          6.7462847800925374E-004
  0.20230000000000004          6.2007107771933079E-004
  0.20340000000000003          5.7115859817713499E-004
  0.20450000000000002          5.3703953744843602E-004
  0.20560000000000000          5.0697242841124535E-004
  0.20670000000000005          4.6817335532978177E-004
  0.20780000000000004          4.2661518091335893E-004
  0.20890000000000003          3.9807110442779958E-004
