 -0.12000000000000000          0.0000000000000000     
 -0.11889999999999999          0.0000000000000000     
 -0.11780000000000000          0.0000000000000000     
 -0.11670000000000000          0.0000000000000000     
 -0.11559999999999999          0.0000000000000000     
 -0.11449999999999999          0.0000000000000000     
 -0.11340000000000000          3.7333332904071134E-015
 -0.11230000000000000         -9.2299079620591917E-015
 -0.11119999999999999         -3.4273317961897726E-014
 -0.11009999999999999          8.6530080518378016E-014
 -0.10900000000000000          2.1492899961953610E-013
 -0.10790000000000000         -4.4038598180466682E-013
 -0.10679999999999999         -1.1180390380866045E-012
 -0.10569999999999999          1.4642357422031682E-012
 -0.10460000000000000          4.8125609400373470E-012
 -0.10349999999999999         -2.9287160804164492E-012
 -0.10239999999999999         -1.6795792187607184E-011
 -0.10130000000000000          5.2946302940906631E-013
 -0.10020000000000000          4.7572789457772657E-011
  -9.9099999999999994E-002     2.2220759954283409E-011
  -9.7999999999999990E-002    -1.1150796258574402E-010
  -9.6899999999999986E-002    -1.1076684014454941E-010
  -9.5799999999999996E-002     2.1720579501671722E-010
  -9.4699999999999993E-002     3.7973219013665016E-010
  -9.3599999999999989E-002    -3.0847574494785590E-010
  -9.2499999999999999E-002    -1.0682393858374439E-009
  -9.1399999999999995E-002     4.3762281992654195E-011
  -9.0299999999999991E-002     2.4134521048324586E-009
  -8.9200000000000002E-002     1.5590122526276673E-009
  -8.8099999999999984E-002    -3.9368761584057665E-009
  -8.6999999999999994E-002    -5.9398646001795896E-009
  -8.5899999999999990E-002     3.3768656759747273E-009
  -8.4799999999999986E-002     1.3442159385590458E-008
  -8.3699999999999997E-002     3.1238347464324079E-009
  -8.2599999999999993E-002    -2.1568885344436239E-008
  -8.1499999999999989E-002    -1.9278898477637085E-008
  -8.0399999999999999E-002     2.4960929323469827E-008
  -7.9299999999999995E-002     4.8645389938428707E-008
  -7.8199999999999992E-002    -1.2655438474951097E-008
  -7.7100000000000002E-002    -9.2711793797661812E-008
  -7.5999999999999984E-002    -4.0518528976463131E-008
  -7.4899999999999994E-002     1.3080796179565368E-007
  -7.3799999999999991E-002     1.6309502370859263E-007
  -7.2699999999999987E-002    -9.4739803557786217E-008
  -7.1599999999999997E-002    -3.3117029829554667E-007
  -7.0499999999999993E-002    -9.7096695128584543E-008
  -6.9399999999999989E-002     4.3069621824542992E-007
  -6.8300000000000000E-002     4.4948021127311222E-007
  -6.7199999999999996E-002    -3.1692164270680223E-007
  -6.6099999999999992E-002    -8.6647918351445696E-007
  -6.5000000000000002E-002    -1.2583851116687583E-007
  -6.3899999999999985E-002     1.1687204732879763E-006
  -6.2799999999999995E-002     9.8343116405885667E-007
  -6.1699999999999991E-002    -9.9594251423695823E-007
  -6.0599999999999994E-002    -2.1118605673109414E-006
  -5.9499999999999990E-002    -1.2706949803487078E-007
  -5.8399999999999994E-002     2.8147671855549561E-006
  -5.7299999999999990E-002     2.2112726583145559E-006
  -5.6199999999999986E-002    -2.1249950350465951E-006
  -5.5099999999999996E-002    -4.3690051825251430E-006
  -5.3999999999999992E-002    -3.4609738008839486E-007
  -5.2899999999999989E-002     5.2531127039401326E-006
  -5.1799999999999985E-002     4.0064946915663313E-006
  -5.0699999999999995E-002    -3.7736328977189260E-006
  -4.9599999999999991E-002    -7.4458148446865380E-006
  -4.8499999999999988E-002    -4.4201502191754116E-007
  -4.7399999999999998E-002     8.6318987086997367E-006
  -4.6299999999999994E-002     6.3837060224614106E-006
  -4.5199999999999990E-002    -5.6463800319761503E-006
  -4.4099999999999986E-002    -1.0993868272635154E-005
  -4.2999999999999997E-002    -1.1291975852145697E-006
  -4.1899999999999993E-002     1.0812032087414991E-005
  -4.0799999999999989E-002     7.6703154263668694E-006
  -3.9699999999999985E-002    -6.3284933276008815E-006
  -3.8599999999999995E-002    -1.0660890438884962E-005
  -3.7499999999999992E-002     1.1899935543624451E-006
  -3.6399999999999988E-002     1.1241110769333318E-005
  -3.5299999999999984E-002     3.9893170651339460E-006
  -3.4199999999999994E-002    -9.3067010311642662E-006
  -3.3099999999999991E-002    -7.8640268839080818E-006
  -3.1999999999999987E-002     5.1633446673804428E-006
  -3.0899999999999997E-002     7.0391674853453878E-006
  -2.9799999999999993E-002    -6.2836543293087743E-006
  -2.8699999999999989E-002    -1.0074096280732192E-005
  -2.7599999999999986E-002     8.7880307546583936E-006
  -2.6499999999999996E-002     2.3193862944026478E-005
  -2.5399999999999992E-002     3.1957995361153735E-006
  -2.4299999999999988E-002    -3.0496137696900405E-005
  -2.3199999999999985E-002    -2.6598419935908169E-005
  -2.2099999999999995E-002     1.8654227460501716E-005
  -2.0999999999999991E-002     4.3034295231336728E-005
  -1.9899999999999987E-002     3.6514236398943467E-006
  -1.8799999999999983E-002    -5.0599737733136863E-005
  -1.7699999999999994E-002    -3.7637459172401577E-005
  -1.6599999999999990E-002     3.6719902709592134E-005
  -1.5499999999999986E-002     7.3847200837917626E-005
  -1.4399999999999996E-002     1.5932955648167990E-005
  -1.3299999999999992E-002    -6.6031410824507475E-005
  -1.2199999999999989E-002    -6.6205531766172498E-005
  -1.1099999999999985E-002     9.8060590971726924E-006
  -9.9999999999999950E-003     5.5803207942517474E-005
  -8.8999999999999913E-003     1.7767270037438720E-005
  -7.7999999999999875E-003    -3.5593973734648898E-005
  -6.6999999999999837E-003    -2.5181625460390933E-005
  -5.5999999999999939E-003     2.3638665879843757E-005
  -4.4999999999999901E-003     3.2031908631324768E-005
  -3.3999999999999864E-003     4.2077547846020025E-007
  -2.2999999999999826E-003    -6.3192496781994123E-006
  -1.1999999999999927E-003     1.7002865206450224E-005
  -9.9999999999988987E-005    -3.8639891499769874E-006
   1.0000000000000148E-003    -8.3793100202456117E-005
   2.1000000000000185E-003    -1.0944543464574963E-004
   3.2000000000000084E-003     4.3722052396333311E-006
   4.3000000000000121E-003     1.5007818001322448E-004
   5.4000000000000159E-003     1.2481608428061008E-004
   6.5000000000000058E-003    -5.5400043493136764E-005
   7.6000000000000234E-003    -1.5855015954002738E-004
   8.7000000000000133E-003    -3.1735758966533467E-005
   9.8000000000000032E-003     1.4453339099418372E-004
   1.0900000000000021E-002     1.1252872354816645E-004
   1.2000000000000011E-002    -1.1454398190835491E-004
   1.3100000000000001E-002    -2.4445110466331244E-004
   1.4200000000000018E-002    -1.0616697545628995E-004
   1.5300000000000008E-002     1.0353125253459439E-004
   1.6400000000000026E-002     1.6937092004809529E-004
   1.7500000000000016E-002     6.3545601733494550E-005
   1.8600000000000005E-002     4.3063114389951807E-006
   1.9700000000000023E-002    -1.8110844393959269E-005
   2.0800000000000013E-002    -9.3626294983550906E-006
   2.1900000000000003E-002    -4.6113116695778444E-005
   2.3000000000000020E-002    -8.8093045633286238E-005
   2.4100000000000010E-002     2.3741211407468654E-005
   2.5200000000000000E-002     4.3124975491082296E-005
   2.6300000000000018E-002    -9.9048535048495978E-005
   2.7400000000000008E-002    -1.6339618014171720E-004
   2.8500000000000025E-002    -4.8131823859876022E-005
   2.9600000000000015E-002     2.7956071426160634E-004
   3.0700000000000005E-002     4.3052446562796831E-004
   3.1800000000000023E-002     6.5499487391207367E-005
   3.2900000000000013E-002    -4.0283129783347249E-004
   3.4000000000000002E-002    -2.6322144549340010E-004
   3.5100000000000020E-002     2.5125936372205615E-004
   3.6200000000000010E-002     3.4904919448308647E-004
   3.7300000000000028E-002     7.2370785346720368E-006
   3.8400000000000017E-002    -2.5885843206197023E-004
   3.9500000000000007E-002    -2.8909282991662621E-004
   4.0600000000000025E-002     1.4391572040040046E-004
   4.1700000000000015E-002     5.7786889374256134E-004
   4.2800000000000005E-002     1.9208260346204042E-004
   4.3900000000000022E-002    -2.2945068485569209E-004
   4.5000000000000012E-002    -1.9119550415780395E-004
   4.6100000000000002E-002     2.2920887568034232E-004
   4.7200000000000020E-002     2.7497267001308501E-004
   4.8300000000000010E-002     4.1089978185482323E-004
   4.9400000000000027E-002    -4.3456704588606954E-005
   5.0500000000000017E-002    -6.0695630963891745E-004
   5.1600000000000007E-002    -6.3576351385563612E-004
   5.2700000000000025E-002     6.7903252784162760E-004
   5.3800000000000014E-002     7.6027127215638757E-004
   5.4900000000000004E-002     8.0700154649093747E-004
   5.6000000000000022E-002    -1.0641335975378752E-003
   5.7100000000000012E-002    -1.7029575537890196E-003
   5.8200000000000002E-002     7.1071961428970098E-004
   5.9300000000000019E-002     1.3899086043238640E-003
   6.0400000000000009E-002     4.1449311538599432E-004
   6.1500000000000027E-002    -3.4950114786624908E-004
   6.2600000000000017E-002    -1.0152317117899656E-003
   6.3700000000000007E-002    -1.0700434213504195E-003
   6.4800000000000024E-002     1.5829014591872692E-004
   6.5900000000000014E-002     9.5459523436147720E-005
   6.7000000000000004E-002     6.2212493503466249E-004
   6.8100000000000022E-002     9.0545695275068283E-004
   6.9200000000000012E-002    -5.6359829613938928E-004
   7.0300000000000029E-002    -1.4498794917017221E-003
   7.1400000000000019E-002    -1.4751226408407092E-003
   7.2500000000000009E-002    -1.2323806913627777E-005
   7.3600000000000027E-002     1.6499218763783574E-003
   7.4700000000000016E-002     2.8007475193589926E-003
   7.5800000000000006E-002    -3.6350090522319078E-004
   7.6900000000000024E-002    -3.5732460673898458E-003
   7.8000000000000014E-002    -4.0040304884314537E-003
   7.9100000000000004E-002     5.2056089043617249E-004
   8.0200000000000021E-002     4.1438383050262928E-003
   8.1300000000000011E-002     3.9792219176888466E-003
   8.2400000000000029E-002    -8.4025436080992222E-004
   8.3500000000000019E-002    -4.7125574201345444E-003
   8.4600000000000009E-002    -3.7212742026895285E-003
   8.5700000000000026E-002     7.5475580524653196E-004
   8.6800000000000016E-002     4.0955804288387299E-003
   8.7900000000000006E-002     3.7211219314485788E-003
   8.9000000000000024E-002     9.0386631200090051E-004
   9.0100000000000013E-002    -2.3795801680535078E-003
   9.1200000000000003E-002    -3.8496814668178558E-003
   9.2300000000000021E-002    -2.8093995060771704E-003
   9.3400000000000011E-002     1.0896845487877727E-003
   9.4500000000000028E-002     6.6984533332288265E-003
   9.5600000000000018E-002     6.1260554939508438E-003
   9.6700000000000008E-002    -2.0333726424723864E-003
   9.7800000000000026E-002    -8.7545327842235565E-003
   9.8900000000000016E-002    -6.0214134864509106E-003
  0.10000000000000001          3.3668417017906904E-003
  0.10110000000000002          9.2497300356626511E-003
  0.10220000000000001          5.8160889893770218E-003
  0.10330000000000003         -2.4171678815037012E-003
  0.10440000000000002         -7.3510324582457542E-003
  0.10550000000000001         -4.7814813442528248E-003
  0.10660000000000003         -1.0860366746783257E-003
  0.10770000000000002          7.2697116993367672E-003
  0.10880000000000001          9.4287442043423653E-003
  0.10990000000000003          1.9621218089014292E-003
  0.11100000000000002         -8.9270463213324547E-003
  0.11210000000000001         -1.1956648901104927E-002
  0.11320000000000002         -2.6997278910130262E-003
  0.11430000000000001          8.5146697238087654E-003
  0.11540000000000003          1.1357657611370087E-002
  0.11650000000000002          4.0577515028417110E-003
  0.11760000000000001         -6.1493660323321819E-003
  0.11870000000000003         -9.9115073680877686E-003
  0.11980000000000002         -4.9088047817349434E-003
  0.12090000000000001          3.7512974813580513E-003
  0.12200000000000003          7.0310574956238270E-003
  0.12310000000000001          5.0383466295897961E-003
  0.12420000000000003         -1.9583017565310001E-003
  0.12530000000000002         -6.3460301607847214E-003
  0.12640000000000001         -5.5640214122831821E-003
  0.12750000000000003         -5.2030733786523342E-004
  0.12860000000000002          4.8285159282386303E-003
  0.12970000000000001          7.6810852624475956E-003
  0.13080000000000003          2.9074312187731266E-003
  0.13190000000000002         -5.0121811218559742E-003
  0.13300000000000001         -9.9974051117897034E-003
  0.13410000000000000         -5.6761647574603558E-003
  0.13520000000000004          4.8940088599920273E-003
  0.13630000000000003          1.1173156090080738E-002
  0.13740000000000002          6.5567195415496826E-003
  0.13850000000000001         -4.5148441568017006E-003
  0.13960000000000000         -1.0357224382460117E-002
  0.14070000000000005         -5.6630731560289860E-003
  0.14180000000000004          3.9103180170059204E-003
  0.14290000000000003          8.1050805747509003E-003
  0.14400000000000002          4.0220580995082855E-003
  0.14510000000000001         -2.2441241890192032E-003
  0.14620000000000000         -4.8557859845459461E-003
  0.14730000000000004         -3.5582506097853184E-003
  0.14840000000000003         -1.1501589324325323E-003
  0.14950000000000002          2.1892474032938480E-003
  0.15060000000000001          5.4990393109619617E-003
  0.15170000000000000          5.6483005173504353E-003
  0.15280000000000005         -6.3738494645804167E-004
  0.15390000000000004         -8.5732806473970413E-003
  0.15500000000000003         -8.2909967750310898E-003
  0.15610000000000002          1.8704399699345231E-003
  0.15720000000000001          1.1118418537080288E-002
  0.15830000000000000          8.1525668501853943E-003
  0.15940000000000004         -4.4299480505287647E-003
  0.16050000000000003         -1.1793727055191994E-002
  0.16160000000000002         -5.3410739637911320E-003
  0.16270000000000001          5.5956975556910038E-003
  0.16380000000000000          8.7324939668178558E-003
  0.16490000000000005          2.6699244044721127E-003
  0.16600000000000004         -2.9772398993372917E-003
  0.16710000000000003         -2.7668534312397242E-003
  0.16820000000000002         -1.1309843976050615E-003
  0.16930000000000001         -2.7398110833019018E-003
  0.17040000000000000         -3.1452530529350042E-003
  0.17150000000000004          2.7559481095522642E-003
  0.17260000000000003          8.7453313171863556E-003
  0.17370000000000002          4.4095213524997234E-003
  0.17480000000000001         -7.6022366993129253E-003
  0.17590000000000000         -1.1627246625721455E-002
  0.17700000000000005         -4.5925599988549948E-004
  0.17810000000000004          1.2343741022050381E-002
  0.17920000000000003          9.8690353333950043E-003
  0.18030000000000002         -4.8587392084300518E-003
  0.18140000000000001         -1.2583806179463863E-002
  0.18250000000000000         -4.3388246558606625E-003
  0.18360000000000004          7.0897238329052925E-003
  0.18470000000000003          6.5457816235721111E-003
  0.18580000000000002         -2.2596095222979784E-003
  0.18690000000000001         -3.9281933568418026E-003
  0.18800000000000000          2.7753794565796852E-003
  0.18910000000000005          4.7121788375079632E-003
  0.19020000000000004         -3.3709609415382147E-003
  0.19130000000000003         -8.8967299088835716E-003
  0.19240000000000002         -5.6145072448998690E-004
  0.19350000000000001          1.1135713197290897E-002
  0.19460000000000005          7.4477004818618298E-003
  0.19570000000000004         -7.0605073124170303E-003
  0.19680000000000003         -1.3824184425175190E-002
  0.19790000000000002         -1.4105269219726324E-003
  0.19900000000000001          1.2746756896376610E-002
  0.20010000000000000          9.3866521492600441E-003
  0.20120000000000005         -5.8827698230743408E-003
  0.20230000000000004         -1.0596153326332569E-002
  0.20340000000000003         -4.8275821609422565E-004
  0.20450000000000002          8.1933578476309776E-003
  0.20560000000000000          2.2153162863105536E-003
  0.20670000000000005         -6.7336098290979862E-003
  0.20780000000000004         -3.1987102702260017E-003
  0.20890000000000003          6.9749890826642513E-003
