 -0.12000000000000000          0.0000000000000000
 -0.11889999999999999          0.0000000000000000
 -0.11780000000000000          0.0000000000000000
 -0.11670000000000000          0.0000000000000000
 -0.11559999999999999          0.0000000000000000
 -0.11449999999999999          0.0000000000000000
 -0.11340000000000000          0.0000000000000000
 -0.11230000000000000          0.0000000000000000
 -0.11119999999999999          0.0000000000000000
 -0.11009999999999999          2.4000243043723909E-024
 -0.10900000000000000         -1.4065601354813240E-023
 -0.10790000000000000         -2.0158546838852304E-023
 -0.10679999999999999          2.3609311899202873E-022
 -0.10569999999999999          1.4395363514768624E-022
 -0.10460000000000000         -2.2927538167668016E-021
 -0.10349999999999999         -1.7718426825148928E-021
 -0.10239999999999999          1.5905067592260830E-020
 -0.10130000000000000          2.0831343345907520E-020
 -0.10020000000000000         -7.9272446876061666E-020
  -9.9099999999999994E-002    -1.7510800937106424E-019
  -9.7999999999999990E-002     2.4450885050517539E-019
  -9.6899999999999986E-002     1.0396053501451674E-018
  -9.5799999999999996E-002    -4.3665520368178932E-020
  -9.4699999999999993E-002    -4.2844874482465074E-018
  -9.3599999999999989E-002    -4.3870268249301120E-018
  -9.2499999999999999E-002     1.0761616460592440E-017
  -9.1399999999999995E-002     2.7231455781541839E-017
  -9.0299999999999991E-002    -3.8409858774297698E-018
  -8.9200000000000002E-002    -8.9253747623982248E-017
  -8.8099999999999984E-002    -9.5308848674213319E-017
  -8.6999999999999994E-002     1.3636464150674766E-016
  -8.5899999999999990E-002     4.2458881733837411E-016
  -8.4799999999999986E-002     1.7978695174968192E-016
  -8.3699999999999997E-002    -8.1178118299503007E-016
  -8.2599999999999993E-002    -1.4590206043926367E-015
  -8.1499999999999989E-002    -9.5570098781437167E-017
  -8.0399999999999999E-002     2.9471609309624554E-015
  -7.9299999999999995E-002     4.1579661534587448E-015
  -7.8199999999999992E-002     1.5542489452321915E-016
  -7.7100000000000002E-002    -7.2640402062050004E-015
  -7.5999999999999984E-002    -1.1160693307304004E-014
  -7.4899999999999994E-002    -5.5982342954321185E-015
  -7.3799999999999991E-002     9.6390621450326980E-015
  -7.2699999999999987E-002     2.9311097413152812E-014
  -7.1599999999999997E-002     4.0210724154684727E-014
  -7.0499999999999993E-002     1.6085613066150681E-014
  -6.9399999999999989E-002    -6.4578320447226945E-014
  -6.8300000000000000E-002    -1.6458466805136657E-013
  -6.7199999999999996E-002    -1.5898694578735106E-013
  -6.6099999999999992E-002     6.9542089372199439E-014
  -6.5000000000000002E-002     4.3670790724967268E-013
  -6.3899999999999985E-002     5.9355791766010912E-013
  -6.2799999999999995E-002     1.9792662246578135E-013
  -6.1699999999999991E-002    -6.5364722098490424E-013
  -6.0599999999999994E-002    -1.3335564206726214E-012
  -5.9499999999999990E-002    -1.1716839521183631E-012
  -5.8399999999999994E-002    -7.9708409198107205E-014
  -5.7299999999999990E-002     1.3725808684084129E-012
  -5.6199999999999986E-002     2.4587777560508561E-012
  -5.5099999999999996E-002     2.6846090454835103E-012
  -5.3999999999999992E-002     1.6823726656581273E-012
  -5.2899999999999989E-002    -8.1627456530175557E-013
  -5.1799999999999985E-002    -4.3534780815035479E-012
  -5.0699999999999995E-002    -7.1745409092882628E-012
  -4.9599999999999991E-002    -7.0335425851608679E-012
  -4.8499999999999988E-002    -3.1000865936825495E-012
  -4.7399999999999998E-002     3.2307292691796663E-012
  -4.6299999999999994E-002     9.8256333624924252E-012
  -4.5199999999999990E-002     1.5510911999250254E-011
  -4.4099999999999986E-002     1.9168092460497554E-011
  -4.2999999999999997E-002     1.7401266191874321E-011
  -4.1899999999999993E-002     5.4186104388176393E-012
  -4.0799999999999989E-002    -1.7505823179941871E-011
  -3.9699999999999985E-002    -4.3707131663905940E-011
  -3.8599999999999995E-002    -6.0405833113286178E-011
  -3.7499999999999992E-002    -5.8461256668973505E-011
  -3.6399999999999988E-002    -3.7237414540758351E-011
  -3.5299999999999984E-002    -1.0054746748741628E-012
  -3.4199999999999994E-002     4.6557029065308342E-011
  -3.3099999999999991E-002     1.0134657002502934E-010
  -3.1999999999999987E-002     1.5312331957950676E-010
  -3.0899999999999997E-002     1.8410388491485463E-010
  -2.9799999999999993E-002     1.7434081955869374E-010
  -2.8699999999999989E-002     1.0730449168105949E-010
  -2.7599999999999986E-002    -2.7166106170151139E-011
  -2.6499999999999996E-002    -2.2586178760608533E-010
  -2.5399999999999992E-002    -4.5923612135290170E-010
  -2.4299999999999988E-002    -6.6683941701839444E-010
  -2.3199999999999985E-002    -7.7470868609097465E-010
  -2.2099999999999995E-002    -7.2147354757134963E-010
  -2.0999999999999991E-002    -4.6297984890308896E-010
  -1.9899999999999987E-002     4.8680438152759464E-011
  -1.8799999999999983E-002     8.7559065553577398E-010
  -1.7699999999999994E-002     2.0656978350075406E-009
  -1.6599999999999990E-002     3.6150360482878341E-009
  -1.5499999999999986E-002     5.4777973268471669E-009
  -1.4399999999999996E-002     7.6281425620550181E-009
  -1.3299999999999992E-002     1.0106922410102470E-008
  -1.2199999999999989E-002     1.3000429177623118E-008
  -1.1099999999999985E-002     1.6389726908982993E-008
  -9.9999999999999950E-003     2.0351487606262708E-008
  -8.8999999999999913E-003     2.5020742810966112E-008
  -7.7999999999999875E-003     3.0640290304972950E-008
  -6.6999999999999837E-003     3.7540790032153382E-008
  -5.5999999999999939E-003     4.6092562655530855E-008
  -4.4999999999999901E-003     5.6698276296174299E-008
  -3.3999999999999864E-003     6.9819840575746639E-008
  -2.2999999999999826E-003     8.5982506448090135E-008
  -1.1999999999999927E-003     1.0575488573749681E-007
  -9.9999999999988987E-005     1.2977076835340995E-007
   1.0000000000000148E-003     1.5879972181664925E-007
   2.1000000000000185E-003     1.9377586113478174E-007
   3.2000000000000084E-003     2.3574835950057604E-007
   4.3000000000000121E-003     2.8586410394382256E-007
   5.4000000000000159E-003     3.4549356087154592E-007
   6.5000000000000058E-003     4.1640046788415930E-007
   7.6000000000000234E-003     5.0071002988261171E-007
   8.7000000000000133E-003     6.0067270624131197E-007
   9.8000000000000032E-003     7.1852662131277611E-007
   1.0900000000000021E-002     8.5670745875177090E-007
   1.2000000000000011E-002     1.0182352525589522E-006
   1.3100000000000001E-002     1.2068175010426785E-006
   1.4200000000000018E-002     1.4265594927564962E-006
   1.5300000000000008E-002     1.6816585457490874E-006
   1.6400000000000026E-002     1.9764913758990588E-006
   1.7500000000000016E-002     2.3159996089816559E-006
   1.8600000000000005E-002     2.7058702016802272E-006
   1.9700000000000023E-002     3.1523088637186447E-006
   2.0800000000000013E-002     3.6617693695006892E-006
   2.1900000000000003E-002     4.2409192246850580E-006
   2.3000000000000020E-002     4.8967076509143226E-006
   2.4100000000000010E-002     5.6363833209616132E-006
   2.5200000000000000E-002     6.4675423345761374E-006
   2.6300000000000018E-002     7.3983114816655871E-006
   2.7400000000000008E-002     8.4371777120395564E-006
   2.8500000000000025E-002     9.5923996923374943E-006
   2.9600000000000015E-002     1.0871354788832832E-005
   3.0700000000000005E-002     1.2280685041332617E-005
   3.1800000000000023E-002     1.3826767826685682E-005
   3.2900000000000013E-002     1.5516530766035430E-005
   3.4000000000000002E-002     1.7356380340061150E-005
   3.5100000000000020E-002     1.9350647562532686E-005
   3.6200000000000010E-002     2.1500587536138482E-005
   3.7300000000000028E-002     2.3805765522411093E-005
   3.8400000000000017E-002     2.6264704501954839E-005
   3.9500000000000007E-002     2.8874705094494857E-005
   4.0600000000000025E-002     3.1630064768251032E-005
   4.1700000000000015E-002     3.4521050110924989E-005
   4.2800000000000005E-002     3.7533685826929286E-005
   4.3900000000000022E-002     4.0650684240972623E-005
   4.5000000000000012E-002     4.3851810914929956E-005
   4.6100000000000002E-002     4.7113466280279681E-005
   4.7200000000000020E-002     5.0408038077875972E-005
   4.8300000000000010E-002     5.3703370213042945E-005
   4.9400000000000027E-002     5.6961351219797507E-005
   5.0500000000000017E-002     6.0137455875519663E-005
   5.1600000000000007E-002     6.3184255850501359E-005
   5.2700000000000025E-002     6.6052984038833529E-005
   5.3800000000000014E-002     6.8693057983182371E-005
   5.4900000000000004E-002     7.1048736572265625E-005
   5.6000000000000022E-002     7.3058174166362733E-005
   5.7100000000000012E-002     7.4656083597801626E-005
   5.8200000000000002E-002     7.5777796155307442E-005
   5.9300000000000019E-002     7.6362768595572561E-005
   6.0400000000000009E-002     7.6350377639755607E-005
   6.1500000000000027E-002     7.5681316957343370E-005
   6.2600000000000017E-002     7.4292307544965297E-005
   6.3700000000000007E-002     7.2126713348552585E-005
   6.4800000000000024E-002     6.9133719080127776E-005
   6.5900000000000014E-002     6.5273685322608799E-005
   6.7000000000000004E-002     6.0515863879118115E-005
   6.8100000000000022E-002     5.4835694754729047E-005
   6.9200000000000012E-002     4.8215279093710706E-005
   7.0300000000000029E-002     4.0647522837389261E-005
   7.1400000000000019E-002     3.2140793337021023E-005
   7.2500000000000009E-002     2.2718089894624427E-005
   7.3600000000000027E-002     1.2420315215422306E-005
   7.4700000000000016E-002     1.3013271882300614E-006
   7.5800000000000006E-002    -1.0572455721558072E-005
   7.6900000000000024E-002    -2.3126516680349596E-005
   7.8000000000000014E-002    -3.6272711440687999E-005
   7.9100000000000004E-002    -4.9900620069820434E-005
   8.0200000000000021E-002    -6.3879335357341915E-005
   8.1300000000000011E-002    -7.8068718721624464E-005
   8.2400000000000029E-002    -9.2330061306711286E-005
   8.3500000000000019E-002    -1.0651932097971439E-004
   8.4600000000000009E-002    -1.2048327334923670E-004
   8.5700000000000026E-002    -1.3405364006757736E-004
   8.6800000000000016E-002    -1.4705561625305563E-004
   8.7900000000000006E-002    -1.5932138194330037E-004
   8.9000000000000024E-002    -1.7069389286916703E-004
   9.0100000000000013E-002    -1.8102314788848162E-004
   9.1200000000000003E-002    -1.9016367150470614E-004
   9.2300000000000021E-002    -1.9797845743596554E-004
   9.3400000000000011E-002    -2.0434161706361920E-004
   9.4500000000000028E-002    -2.0914181368425488E-004
   9.5600000000000018E-002    -2.1228537661954761E-004
   9.6700000000000008E-002    -2.1370589092839509E-004
   9.7800000000000026E-002    -2.1336479403544217E-004
   9.8900000000000016E-002    -2.1124436170794070E-004
  0.10000000000000001         -2.0733773999381810E-004
  0.10110000000000002         -2.0165246678516269E-004
  0.10220000000000001         -1.9422543118707836E-004
  0.10330000000000003         -1.8513415125198662E-004
  0.10440000000000002         -1.7448274593334645E-004
  0.10550000000000001         -1.6238633543252945E-004
  0.10660000000000003         -1.4896506036166102E-004
  0.10770000000000002         -1.3435640721581876E-004
  0.10880000000000001         -1.1872212053276598E-004
  0.10990000000000003         -1.0224198922514915E-004
  0.11100000000000002         -8.5106301412452012E-005
  0.11210000000000001         -6.7506902269087732E-005
  0.11320000000000002         -4.9640799261396751E-005
  0.11430000000000001         -3.1699546525487676E-005
  0.11540000000000003         -1.3864940228813794E-005
  0.11650000000000002          3.6804747196583776E-006
  0.11760000000000001          2.0751582269440405E-005
  0.11870000000000003          3.7168079870752990E-005
  0.11980000000000002          5.2769384637940675E-005
  0.12090000000000001          6.7425171437207609E-005
  0.12200000000000003          8.1022801168728620E-005
  0.12310000000000001          9.3458969786297530E-005
  0.12420000000000003          1.0464230581419542E-004
  0.12530000000000002          1.1449151497799903E-004
  0.12640000000000001          1.2295636406634003E-004
  0.12750000000000003          1.3001709885429591E-004
  0.12860000000000002          1.3567568385042250E-004
  0.12970000000000001          1.3994010805618018E-004
  0.13080000000000003          1.4283346536103636E-004
  0.13190000000000002          1.4439612277783453E-004
  0.13300000000000001          1.4468669542111456E-004
  0.13410000000000000          1.4377247134689242E-004
  0.13520000000000004          1.4173363160807639E-004
  0.13630000000000003          1.3866732479073107E-004
  0.13740000000000002          1.3467848475556821E-004
  0.13850000000000001          1.2986935325898230E-004
  0.13960000000000000          1.2433493975549936E-004
  0.14070000000000005          1.1817517224699259E-004
  0.14180000000000004          1.1150359205203131E-004
  0.14290000000000003          1.0443865176057443E-004
  0.14400000000000002          9.7086267487611622E-005
  0.14510000000000001          8.9535125880502164E-005
  0.14620000000000000          8.1868260167539120E-005
  0.14730000000000004          7.4172719905618578E-005
  0.14840000000000003          6.6533437347970903E-005
  0.14950000000000002          5.9022000641562045E-005
  0.15060000000000001          5.1696275477297604E-005
  0.15170000000000000          4.4608037569560111E-005
  0.15280000000000005          3.7805650208611041E-005
  0.15390000000000004          3.1325991585617885E-005
  0.15500000000000003          2.5190578526235186E-005
  0.15610000000000002          1.9415398128330708E-005
  0.15720000000000001          1.4018779438629281E-005
  0.15830000000000000          9.0166995505569503E-006
  0.15940000000000004          4.4085795707360376E-006
  0.16050000000000003          1.7777409766495111E-007
  0.16160000000000002         -3.6934559375367826E-006
  0.16270000000000001         -7.2123061727324966E-006
  0.16380000000000000         -1.0383560947957449E-005
  0.16490000000000005         -1.3225524526205845E-005
  0.16600000000000004         -1.5770197933306918E-005
  0.16710000000000003         -1.8048122001346201E-005
  0.16820000000000002         -2.0078608940821141E-005
  0.16930000000000001         -2.1877520339330658E-005
  0.17040000000000000         -2.3469201551051810E-005
  0.17150000000000004         -2.4880861019482836E-005
  0.17260000000000003         -2.6132995117222890E-005
  0.17370000000000002         -2.7237323592999019E-005
  0.17480000000000001         -2.8209526135469787E-005
  0.17590000000000000         -2.9072300094412640E-005
  0.17700000000000005         -2.9842716685379855E-005
  0.17810000000000004         -3.0521776352543384E-005
  0.17920000000000003         -3.1103954825084656E-005
  0.18030000000000002         -3.1594488973496482E-005
  0.18140000000000001         -3.2008618291001767E-005
  0.18250000000000000         -3.2352141715819016E-005
  0.18360000000000004         -3.2609852496534586E-005
  0.18470000000000003         -3.2759922760305926E-005
  0.18580000000000002         -3.2792850106488913E-005
  0.18690000000000001         -3.2710227969801053E-005
  0.18800000000000000         -3.2505831768503413E-005
  0.18910000000000005         -3.2159652619156986E-005
  0.19020000000000004         -3.1650171877117828E-005
  0.19130000000000003         -3.0965238693170249E-005
  0.19240000000000002         -3.0094874091446400E-005
  0.19350000000000001         -2.9021966838627122E-005
  0.19460000000000005         -2.7725764084607363E-005
  0.19570000000000004         -2.6193898520432413E-005
  0.19680000000000003         -2.4426131858490407E-005
  0.19790000000000002         -2.2418400476453826E-005
  0.19900000000000001         -2.0154091544100083E-005
  0.20010000000000000         -1.7619699065107852E-005
  0.20120000000000005         -1.4821644981566351E-005
  0.20230000000000004         -1.1781671673816163E-005
  0.20340000000000003         -8.5136907728156075E-006
  0.20450000000000002         -5.0178450692328624E-006
  0.20560000000000000         -1.2986395176994847E-006
  0.20670000000000005          2.6174532195000211E-006
  0.20780000000000004          6.6913071350427344E-006
  0.20890000000000003          1.0889049917750526E-005
