 -0.12000000000000000          0.0000000000000000     
 -0.11889999999999999          0.0000000000000000     
 -0.11780000000000000          0.0000000000000000     
 -0.11670000000000000          0.0000000000000000     
 -0.11559999999999999          0.0000000000000000     
 -0.11449999999999999          0.0000000000000000     
 -0.11340000000000000          0.0000000000000000     
 -0.11230000000000000          0.0000000000000000     
 -0.11119999999999999          0.0000000000000000     
 -0.11009999999999999         -1.6971579707572092E-026
 -0.10900000000000000          6.1150463590711562E-027
 -0.10790000000000000          2.3141175490090490E-025
 -0.10679999999999999         -1.0492517951944171E-026
 -0.10569999999999999         -1.2504325913738490E-024
 -0.10460000000000000          1.0248761565419471E-024
 -0.10349999999999999          3.7436025345987292E-024
 -0.10239999999999999         -2.3396050926541062E-023
 -0.10130000000000000         -3.7782534076327432E-023
 -0.10020000000000000          1.8341093039212874E-022
  -9.9099999999999994E-002     4.8133934689112616E-022
  -9.7999999999999990E-002    -4.6263110031613915E-022
  -9.6899999999999986E-002    -3.0128805771183101E-021
  -9.5799999999999996E-002    -2.0923838536600357E-021
  -9.4699999999999993E-002     8.3882075629401070E-021
  -9.3599999999999989E-002     1.8270857458537907E-020
  -9.2499999999999999E-002     1.7080118445967536E-021
  -9.1399999999999995E-002    -4.0952135314457721E-020
  -9.0299999999999991E-002    -6.4143500880574322E-020
  -8.9200000000000002E-002    -4.4085534248899803E-020
  -8.8099999999999984E-002     1.1016333236844402E-020
  -8.6999999999999994E-002     2.3187115925719609E-019
  -8.5899999999999990E-002     7.7138324773083976E-019
  -8.4799999999999986E-002     9.1598817068279269E-019
  -8.3699999999999997E-002    -1.1668325525958766E-018
  -8.2599999999999993E-002    -5.5221010186779340E-018
  -8.1499999999999989E-002    -6.4496508995775335E-018
  -8.0399999999999999E-002     3.9996821323092932E-018
  -7.9299999999999995E-002     2.2766267006170366E-017
  -7.8199999999999992E-002     2.9227100146858698E-017
  -7.7100000000000002E-002     2.8838500207658330E-018
  -7.5999999999999984E-002    -5.0754045454632715E-017
  -7.4899999999999994E-002    -1.0160659819405315E-016
  -7.3799999999999991E-002    -1.1297300610515251E-016
  -7.2699999999999987E-002    -2.6677117385316977E-017
  -7.1599999999999997E-002     2.4138485527012954E-016
  -7.0499999999999993E-002     6.4659271174237801E-016
  -6.9399999999999989E-002     7.6134248856840462E-016
  -6.8300000000000000E-002    -9.1365076506687098E-017
  -6.7199999999999996E-002    -1.9731806148043114E-015
  -6.6099999999999992E-002    -3.4764862192617711E-015
  -6.5000000000000002E-002    -2.3388097980249186E-015
  -6.3899999999999985E-002     2.3471185559627728E-015
  -6.2799999999999995E-002     8.4904371876778732E-015
  -6.1699999999999991E-002     1.1854347222535391E-014
  -6.0599999999999994E-002     8.1948252301849642E-015
  -5.9499999999999990E-002    -5.4344702159593930E-015
  -5.8399999999999994E-002    -2.8337073898314358E-014
  -5.7299999999999990E-002    -4.9701904511522191E-014
  -5.6199999999999986E-002    -4.4535166163596832E-014
  -5.5099999999999996E-002     1.2146686244720109E-014
  -5.3999999999999992E-002     1.1133553524641029E-013
  -5.2899999999999989E-002     1.8861520960540556E-013
  -5.1799999999999985E-002     1.5504244210099577E-013
  -5.0699999999999995E-002    -2.9202636538322793E-014
  -4.9599999999999991E-002    -3.0405268146987963E-013
  -4.8499999999999988E-002    -5.2866234610468577E-013
  -4.7399999999999998E-002    -5.3943421994898100E-013
  -4.6299999999999994E-002    -1.9901761445437205E-013
  -4.5199999999999990E-002     5.3033803477237074E-013
  -4.4099999999999986E-002     1.4362667955999942E-012
  -4.2999999999999997E-002     1.9494098175976138E-012
  -4.1899999999999993E-002     1.3596951255884226E-012
  -4.0799999999999989E-002    -5.8965641614242004E-013
  -3.9699999999999985E-002    -3.1987286083778876E-012
  -3.8599999999999995E-002    -5.0114300730041972E-012
  -3.7499999999999992E-002    -4.6929209650270476E-012
  -3.6399999999999988E-002    -1.8017324828270564E-012
  -3.5299999999999984E-002     3.1343760052704450E-012
  -3.4199999999999994E-002     8.8530328901104127E-012
  -3.3099999999999991E-002     1.3241000310082462E-011
  -3.1999999999999987E-002     1.3289880480826799E-011
  -3.0899999999999997E-002     6.3521891739692915E-012
  -2.9799999999999993E-002    -7.4013494985591954E-012
  -2.8699999999999989E-002    -2.3644124852451043E-011
  -2.7599999999999986E-002    -3.5644834306403084E-011
  -2.6499999999999996E-002    -3.7624573595573807E-011
  -2.5399999999999992E-002    -2.6188410814920182E-011
  -2.4299999999999988E-002     6.0874276539696348E-013
  -2.3199999999999985E-002     4.2443121933688488E-011
  -2.2099999999999995E-002     9.1529062107298387E-011
  -2.0999999999999991E-002     1.2805057014730892E-010
  -1.9899999999999987E-002     1.2479033084655811E-010
  -1.8799999999999983E-002     6.1745365764753757E-011
  -1.7699999999999994E-002    -5.9690308251703073E-011
  -1.6599999999999990E-002    -2.1330401334118676E-010
  -1.5499999999999986E-002    -3.5385511187868701E-010
  -1.4399999999999996E-002    -4.2374206921103053E-010
  -1.3299999999999992E-002    -3.6107269951735077E-010
  -1.2199999999999989E-002    -1.2013759431717119E-010
  -1.1099999999999985E-002     2.9354157993211061E-010
  -9.9999999999999950E-003     7.9426354382405862E-010
  -8.8999999999999913E-003     1.2208171140670743E-009
  -7.7999999999999875E-003     1.3793401976158748E-009
  -6.6999999999999837E-003     1.1022626145162917E-009
  -5.5999999999999939E-003     3.0304711517992189E-010
  -4.4999999999999901E-003    -9.7245878016849474E-010
  -3.3999999999999864E-003    -2.4969410983288753E-009
  -2.2999999999999826E-003    -3.8442351524281548E-009
  -1.1999999999999927E-003    -4.4516661468207985E-009
  -9.9999999999988987E-005    -3.7776386463406197E-009
   1.0000000000000148E-003    -1.5100848349547391E-009
   2.1000000000000185E-003     2.2471804417278918E-009
   3.2000000000000084E-003     6.8658727592207924E-009
   4.3000000000000121E-003     1.1198507898768639E-008
   5.4000000000000159E-003     1.3737567527982719E-008
   6.5000000000000058E-003     1.2957374728728155E-008
   7.6000000000000234E-003     7.7989570357317461E-009
   8.7000000000000133E-003    -1.8326903328258481E-009
   9.8000000000000032E-003    -1.4722457919447152E-008
   1.0900000000000021E-002    -2.8272049590327697E-008
   1.2000000000000011E-002    -3.8770867405446552E-008
   1.3100000000000001E-002    -4.2056274907054103E-008
   1.4200000000000018E-002    -3.4547305460819189E-008
   1.5300000000000008E-002    -1.4481966736923368E-008
   1.6400000000000026E-002     1.6983754846933152E-008
   1.7500000000000016E-002     5.5200043647118946E-008
   1.8600000000000005E-002     9.2237961268892832E-008
   1.9700000000000023E-002     1.1800565857811307E-007
   2.0800000000000013E-002     1.2226531964643073E-007
   2.1900000000000003E-002     9.7387918174263177E-008
   2.3000000000000020E-002     4.1366028824540990E-008
   2.4100000000000010E-002    -3.9746364421944236E-008
   2.5200000000000000E-002    -1.3089298533941474E-007
   2.6300000000000018E-002    -2.0921177679156244E-007
   2.7400000000000008E-002    -2.4751736305006489E-007
   2.8500000000000025E-002    -2.1977935205086396E-007
   2.9600000000000015E-002    -1.0791460169912170E-007
   3.0700000000000005E-002     9.1255408563029050E-008
   3.1800000000000023E-002     3.6048461993232195E-007
   3.2900000000000013E-002     6.5976291807601228E-007
   3.4000000000000002E-002     9.2842128651682287E-007
   3.5100000000000020E-002     1.0920066415565088E-006
   3.6200000000000010E-002     1.0731876045610989E-006
   3.7300000000000028E-002     8.0497875387663953E-007
   3.8400000000000017E-002     2.4381589014410565E-007
   3.9500000000000007E-002    -6.2046717630437342E-007
   4.0600000000000025E-002    -1.7605802895559464E-006
   4.1700000000000015E-002    -3.1153895179159008E-006
   4.2800000000000005E-002    -4.6012992243049666E-006
   4.3900000000000022E-002    -6.1301261666812934E-006
   4.5000000000000012E-002    -7.6310070653562434E-006
   4.6100000000000002E-002    -9.0726043708855286E-006
   4.7200000000000020E-002    -1.0481809113116469E-005
   4.8300000000000010E-002    -1.1955191439483315E-005
   4.9400000000000027E-002    -1.3660815966431983E-005
   5.0500000000000017E-002    -1.5829607946216129E-005
   5.1600000000000007E-002    -1.8737602658802643E-005
   5.2700000000000025E-002    -2.2683381757815368E-005
   5.3800000000000014E-002    -2.7965501431026496E-005
   5.4900000000000004E-002    -3.4864522604038939E-005
   5.6000000000000022E-002    -4.3633688619593158E-005
   5.7100000000000012E-002    -5.4503118008142337E-005
   5.8200000000000002E-002    -6.7697401391342282E-005
   5.9300000000000019E-002    -8.3464496128726751E-005
   6.0400000000000009E-002    -1.0211280459770933E-004
   6.1500000000000027E-002    -1.2404865992721170E-004
   6.2600000000000017E-002    -1.4980754349380732E-004
   6.3700000000000007E-002    -1.8007606558967382E-004
   6.4800000000000024E-002    -2.1569636010099202E-004
   6.5900000000000014E-002    -2.5765079772099853E-004
   6.7000000000000004E-002    -3.0703740776516497E-004
   6.8100000000000022E-002    -3.6504311719909310E-004
   6.9200000000000012E-002    -4.3291857582516968E-004
   7.0300000000000029E-002    -5.1196338608860970E-004
   7.1400000000000019E-002    -6.0351600404828787E-004
   7.2500000000000009E-002    -7.0897373370826244E-004
   7.3600000000000027E-002    -8.2982634194195271E-004
   7.4700000000000016E-002    -9.6768257208168507E-004
   7.5800000000000006E-002    -1.1243001790717244E-003
   7.6900000000000024E-002    -1.3015759177505970E-003
   7.8000000000000014E-002    -1.5015202807262540E-003
   7.9100000000000004E-002    -1.7262256005778909E-003
   8.0200000000000021E-002    -1.9778050482273102E-003
   8.1300000000000011E-002    -2.2583124227821827E-003
   8.2400000000000029E-002    -2.5696624070405960E-003
   8.3500000000000019E-002    -2.9135635122656822E-003
   8.4600000000000009E-002    -3.2914062030613422E-003
   8.5700000000000026E-002    -3.7042126059532166E-003
   8.6800000000000016E-002    -4.1526723653078079E-003
   8.7900000000000006E-002    -4.6371123753488064E-003
   8.9000000000000024E-002    -5.1572700031101704E-003
   9.0100000000000013E-002    -5.7122344151139259E-003
   9.1200000000000003E-002    -6.3004558905959129E-003
   9.2300000000000021E-002    -6.9196149706840515E-003
   9.3400000000000011E-002    -7.5664944015443325E-003
   9.4500000000000028E-002    -8.2368804141879082E-003
   9.5600000000000018E-002    -8.9254155755043030E-003
   9.6700000000000008E-002    -9.6253696829080582E-003
   9.7800000000000026E-002    -1.0328622534871101E-002
   9.8900000000000016E-002    -1.1025741696357727E-002
  0.10000000000000001         -1.1705867946147919E-002
  0.10110000000000002         -1.2356673367321491E-002
  0.10220000000000001         -1.2964373454451561E-002
  0.10330000000000003         -1.3513722456991673E-002
  0.10440000000000002         -1.3988201506435871E-002
  0.10550000000000001         -1.4370242133736610E-002
  0.10660000000000003         -1.4641713351011276E-002
  0.10770000000000002         -1.4783760532736778E-002
  0.10880000000000001         -1.4776739291846752E-002
  0.10990000000000003         -1.4600830152630806E-002
  0.11100000000000002         -1.4236334711313248E-002
  0.11210000000000001         -1.3664290308952332E-002
  0.11320000000000002         -1.2866834178566933E-002
  0.11430000000000001         -1.1827285401523113E-002
  0.11540000000000003         -1.0530301369726658E-002
  0.11650000000000002         -8.9629553258419037E-003
  0.11760000000000001         -7.1157719939947128E-003
  0.11870000000000003         -4.9828477203845978E-003
  0.11980000000000002         -2.5623214896768332E-003
  0.12090000000000001          1.4318616013042629E-004
  0.12200000000000003          3.1259858515113592E-003
  0.12310000000000001          6.3730054534971714E-003
  0.12420000000000003          9.8657207563519478E-003
  0.12530000000000002          1.3579990714788437E-002
  0.12640000000000001          1.7486002296209335E-002
  0.12750000000000003          2.1548053249716759E-002
  0.12860000000000002          2.5724655017256737E-002
  0.12970000000000001          2.9968786984682083E-002
  0.13080000000000003          3.4228548407554626E-002
  0.13190000000000002          3.8447745144367218E-002
  0.13300000000000001          4.2566094547510147E-002
  0.13410000000000000          4.6519719064235687E-002
  0.13520000000000004          5.0242431461811066E-002
  0.13630000000000003          5.3667303174734116E-002
  0.13740000000000002          5.6728024035692215E-002
  0.13850000000000001          5.9359952807426453E-002
  0.13960000000000000          6.1500899493694305E-002
  0.14070000000000005          6.3092306256294250E-002
  0.14180000000000004          6.4080983400344849E-002
  0.14290000000000003          6.4420178532600403E-002
  0.14400000000000002          6.4070791006088257E-002
  0.14510000000000001          6.3003115355968475E-002
  0.14620000000000000          6.1197727918624878E-002
  0.14730000000000004          5.8645512908697128E-002
  0.14840000000000003          5.5347822606563568E-002
  0.14950000000000002          5.1317378878593445E-002
  0.15060000000000001          4.6580575406551361E-002
  0.15170000000000000          4.1176997125148773E-002
  0.15280000000000005          3.5157192498445511E-002
  0.15390000000000004          2.8581310063600540E-002
  0.15500000000000003          2.1518807858228683E-002
  0.15610000000000002          1.4050600118935108E-002
  0.15720000000000001          6.2676314264535904E-003
  0.15830000000000000         -1.7330219270661473E-003
  0.15940000000000004         -9.8491590470075607E-003
  0.16050000000000003         -1.7976369708776474E-002
  0.16160000000000002         -2.6009403169155121E-002
  0.16270000000000001         -3.3841945230960846E-002
  0.16380000000000000         -4.1369508951902390E-002
  0.16490000000000005         -4.8490848392248154E-002
  0.16600000000000004         -5.5110208690166473E-002
  0.16710000000000003         -6.1140395700931549E-002
  0.16820000000000002         -6.6504538059234619E-002
  0.16930000000000001         -7.1136392652988434E-002
  0.17040000000000000         -7.4979290366172791E-002
  0.17150000000000004         -7.7987037599086761E-002
  0.17260000000000003         -8.0127395689487457E-002
  0.17370000000000002         -8.1384912133216858E-002
  0.17480000000000001         -8.1759788095951080E-002
  0.17590000000000000         -8.1264168024063110E-002
  0.17700000000000005         -7.9920366406440735E-002
  0.17810000000000004         -7.7762044966220856E-002
  0.17920000000000003         -7.4836105108261108E-002
  0.18030000000000002         -7.1202076971530914E-002
  0.18140000000000001         -6.6928833723068237E-002
  0.18250000000000000         -6.2091749161481857E-002
  0.18360000000000004         -5.6771110743284225E-002
  0.18470000000000003         -5.1051206886768341E-002
  0.18580000000000002         -4.5019716024398804E-002
  0.18690000000000001         -3.8766849786043167E-002
  0.18800000000000000         -3.2383471727371216E-002
  0.18910000000000005         -2.5958504527807236E-002
  0.19020000000000004         -1.9576029852032661E-002
  0.19130000000000003         -1.3313432224094868E-002
  0.19240000000000002         -7.2419024072587490E-003
  0.19350000000000001         -1.4287673402577639E-003
  0.19460000000000005          4.0641282685101032E-003
  0.19570000000000004          9.1845104470849037E-003
  0.19680000000000003          1.3891359791159630E-002
  0.19790000000000002          1.8154010176658630E-002
  0.19900000000000001          2.1948577836155891E-002
  0.20010000000000000          2.5256568565964699E-002
  0.20120000000000005          2.8067894279956818E-002
  0.20230000000000004          3.0382854864001274E-002
  0.20340000000000003          3.2210510224103928E-002
  0.20450000000000002          3.3566415309906006E-002
  0.20560000000000000          3.4470662474632263E-002
  0.20670000000000005          3.4947156906127930E-002
  0.20780000000000004          3.5024333745241165E-002
  0.20890000000000003          3.4735053777694702E-002
