 -0.12000000000000000          0.0000000000000000
 -0.11889999999999999          0.0000000000000000
 -0.11780000000000000          0.0000000000000000
 -0.11670000000000000          0.0000000000000000
 -0.11559999999999999          0.0000000000000000
 -0.11449999999999999          0.0000000000000000
 -0.11340000000000000         -1.0370384665327475E-019
 -0.11230000000000000         -4.6409876227256865E-020
 -0.11119999999999999          8.2720842650112477E-019
 -0.11009999999999999          8.0862028226977456E-019
 -0.10900000000000000         -2.4883402283185032E-018
 -0.10790000000000000         -2.5798934056964849E-018
 -0.10679999999999999          4.4458095879805804E-018
 -0.10569999999999999         -8.2915699519060062E-018
 -0.10460000000000000         -4.1711803306570549E-017
 -0.10349999999999999          3.4793552522030194E-017
 -0.10239999999999999          2.8669153588801880E-016
 -0.10130000000000000          2.5638893219999620E-016
 -0.10020000000000000         -6.8406153180152721E-016
  -9.9099999999999994E-002    -1.7783005682559623E-015
  -9.7999999999999990E-002    -6.4952386925635152E-016
  -9.6899999999999986E-002     3.2767259923878163E-015
  -9.5799999999999996E-002     5.7871662648666111E-015
  -9.4699999999999993E-002     2.2170111188909601E-015
  -9.3599999999999989E-002    -5.0691186477872484E-015
  -9.2499999999999999E-002    -9.9055200755140613E-015
  -9.1399999999999995E-002    -1.3656571601111840E-014
  -9.0299999999999991E-002    -1.9275620460673312E-014
  -8.9200000000000002E-002    -7.1703193987231011E-015
  -8.8099999999999984E-002     5.4147827985729508E-014
  -8.6999999999999994E-002     1.3642907604419913E-013
  -8.5899999999999990E-002     1.1752887075014429E-013
  -8.4799999999999986E-002    -9.3426372053170142E-014
  -8.3699999999999997E-002    -3.7053083583142576E-013
  -8.2599999999999993E-002    -4.1808898465674205E-013
  -8.1499999999999989E-002    -1.0171621574531220E-013
  -8.0399999999999999E-002     3.5628268456149026E-013
  -7.9299999999999995E-002     6.6289031555588629E-013
  -7.8199999999999992E-002     8.2279587873893001E-013
  -7.7100000000000002E-002     9.0005504134807457E-013
  -7.5999999999999984E-002     4.4932571660778742E-013
  -7.4899999999999994E-002    -1.1745863613341068E-012
  -7.3799999999999991E-002    -3.4557834024950829E-012
  -7.2699999999999987E-002    -4.2359778879008658E-012
  -7.1599999999999997E-002    -1.7172206582052874E-012
  -7.0499999999999993E-002     2.9525650587641783E-012
  -6.9399999999999989E-002     6.3249388365660408E-012
  -6.8300000000000000E-002     6.5535099048885659E-012
  -6.7199999999999996E-002     5.3395517174426033E-012
  -6.6099999999999992E-002     4.4603648031993348E-012
  -6.5000000000000002E-002     1.5831603606200617E-012
  -6.3899999999999985E-002    -7.2067816124510298E-012
  -6.2799999999999995E-002    -1.9912894250184721E-011
  -6.1699999999999991E-002    -2.7178292602569876E-011
  -6.0599999999999994E-002    -2.1546889272805458E-011
  -5.9499999999999990E-002    -6.1066100093265518E-012
  -5.8399999999999994E-002     1.0584709324301667E-011
  -5.7299999999999990E-002     2.7202143315641081E-011
  -5.6199999999999986E-002     5.0021015107759581E-011
  -5.5099999999999996E-002     7.6653031144680028E-011
  -5.3999999999999992E-002     8.5816131978333487E-011
  -5.2899999999999989E-002     5.3101415625755877E-011
  -5.1799999999999985E-002    -2.2090562018517446E-011
  -5.0699999999999995E-002    -1.1234462665710154E-010
  -4.9599999999999991E-002    -1.8649702615558539E-010
  -4.8499999999999988E-002    -2.2949642186631536E-010
  -4.7399999999999998E-002    -2.3298971085772280E-010
  -4.6299999999999994E-002    -1.7724323397860786E-010
  -4.5199999999999990E-002    -3.9997276324310604E-011
  -4.4099999999999986E-002     1.7328681545247804E-010
  -4.2999999999999997E-002     4.1959866137197821E-010
  -4.1899999999999993E-002     6.4424421353237449E-010
  -4.0799999999999989E-002     8.0668854929299982E-010
  -3.9699999999999985E-002     8.7561802253333099E-010
  -3.8599999999999995E-002     8.1776579952119732E-010
  -3.7499999999999992E-002     6.2022081914747673E-010
  -3.6399999999999988E-002     3.2891583900962473E-010
  -3.5299999999999984E-002     4.5457870107012965E-011
  -3.4199999999999994E-002    -1.2486589540117166E-010
  -3.3099999999999991E-002    -1.0975974296112412E-010
  -3.1999999999999987E-002     1.4636117318111985E-010
  -3.0899999999999997E-002     6.9390487800191636E-010
  -2.9799999999999993E-002     1.5184250523603282E-009
  -2.8699999999999989E-002     2.4584141389283332E-009
  -2.7599999999999986E-002     3.2189622078959701E-009
  -2.6499999999999996E-002     3.4918223867919096E-009
  -2.5399999999999992E-002     3.0425144625922940E-009
  -2.4299999999999988E-002     1.6652109691150940E-009
  -2.3199999999999985E-002    -8.9586416063269780E-010
  -2.2099999999999995E-002    -4.8898272098085727E-009
  -2.0999999999999991E-002    -1.0389062943261251E-008
  -1.9899999999999987E-002    -1.7221786663412786E-008
  -1.8799999999999983E-002    -2.5130816538876388E-008
  -1.7699999999999994E-002    -3.4010241733994917E-008
  -1.6599999999999990E-002    -4.3996287502068299E-008
  -1.5499999999999986E-002    -5.5407792132200484E-008
  -1.4399999999999996E-002    -6.8721291768270021E-008
  -1.3299999999999992E-002    -8.4655937371280743E-008
  -1.2199999999999989E-002    -1.0424356844396243E-007
  -1.1099999999999985E-002    -1.2877180211035011E-007
  -9.9999999999999950E-003    -1.5969094135925843E-007
  -8.8999999999999913E-003    -1.9860898703427665E-007
  -7.7999999999999875E-003    -2.4732585757192282E-007
  -6.6999999999999837E-003    -3.0777545134696993E-007
  -5.5999999999999939E-003    -3.8194298213056754E-007
  -4.4999999999999901E-003    -4.7200052222251543E-007
  -3.3999999999999864E-003    -5.8066461861017160E-007
  -2.2999999999999826E-003    -7.1144188495964045E-007
  -1.1999999999999927E-003    -8.6852043068574858E-007
  -9.9999999999988987E-005    -1.0565534012130229E-006
   1.0000000000000148E-003    -1.2807640814571641E-006
   2.1000000000000185E-003    -1.5473498251594719E-006
   3.2000000000000084E-003    -1.8637244920682861E-006
   4.3000000000000121E-003    -2.2382894258043962E-006
   5.4000000000000159E-003    -2.6801335479831323E-006
   6.5000000000000058E-003    -3.1991244213713799E-006
   7.6000000000000234E-003    -3.8063776628405321E-006
   8.7000000000000133E-003    -4.5144897740101442E-006
   9.8000000000000032E-003    -5.3374506023828872E-006
   1.0900000000000021E-002    -6.2903345678932965E-006
   1.2000000000000011E-002    -7.3894266279239673E-006
   1.3100000000000001E-002    -8.6525096776313148E-006
   1.4200000000000018E-002    -1.0098956408910453E-005
   1.5300000000000008E-002    -1.1749661098292563E-005
   1.6400000000000026E-002    -1.3626904546981677E-005
   1.7500000000000016E-002    -1.5754330888739787E-005
   1.8600000000000005E-002    -1.8156684745918028E-005
   1.9700000000000023E-002    -2.0859377400483936E-005
   2.0800000000000013E-002    -2.3887860152171925E-005
   2.1900000000000003E-002    -2.7267606128589250E-005
   2.3000000000000020E-002    -3.1024494091980159E-005
   2.4100000000000010E-002    -3.5183704312657937E-005
   2.5200000000000000E-002    -3.9768889109836891E-005
   2.6300000000000018E-002    -4.4801297917729244E-005
   2.7400000000000008E-002    -5.0299899157835171E-005
   2.8500000000000025E-002    -5.6281325669260696E-005
   2.9600000000000015E-002    -6.2758808780927211E-005
   3.0700000000000005E-002    -6.9740781327709556E-005
   3.1800000000000023E-002    -7.7229742601048201E-005
   3.2900000000000013E-002    -8.5220512119121850E-005
   3.4000000000000002E-002    -9.3700145953334868E-005
   3.5100000000000020E-002    -1.0264703450957313E-004
   3.6200000000000010E-002    -1.1203003668924794E-004
   3.7300000000000028E-002    -1.2180610065115616E-004
   3.8400000000000017E-002    -1.3192146434448659E-004
   3.9500000000000007E-002    -1.4230981469154358E-004
   4.0600000000000025E-002    -1.5289225848391652E-004
   4.1700000000000015E-002    -1.6357602726202458E-004
   4.2800000000000005E-002    -1.7425444093532860E-004
   4.3900000000000022E-002    -1.8480591825209558E-004
   4.5000000000000012E-002    -1.9509694539010525E-004
   4.6100000000000002E-002    -2.0498050434980541E-004
   4.7200000000000020E-002    -2.1429509797599167E-004
   4.8300000000000010E-002    -2.2286703460849822E-004
   4.9400000000000027E-002    -2.3051137395668775E-004
   5.0500000000000017E-002    -2.3703530314378440E-004
   5.1600000000000007E-002    -2.4224136723205447E-004
   5.2700000000000025E-002    -2.4592637782916427E-004
   5.3800000000000014E-002    -2.4788518203422427E-004
   5.4900000000000004E-002    -2.4791483883745968E-004
   5.6000000000000022E-002    -2.4581843172200024E-004
   5.7100000000000012E-002    -2.4140780442394316E-004
   5.8200000000000002E-002    -2.3450421576853842E-004
   5.9300000000000019E-002    -2.2494995209854096E-004
   6.0400000000000009E-002    -2.1260968060232699E-004
   6.1500000000000027E-002    -1.9737399998120964E-004
   6.2600000000000017E-002    -1.7915562784764916E-004
   6.3700000000000007E-002    -1.5790128963999450E-004
   6.4800000000000024E-002    -1.3359879085328430E-004
   6.5900000000000014E-002    -1.0627965821186081E-004
   6.7000000000000004E-002    -7.6012824138160795E-005
   6.8100000000000022E-002    -4.2914787627523765E-005
   6.9200000000000012E-002    -7.1422509790863842E-006
   7.0300000000000029E-002     3.1099538318812847E-005
   7.1400000000000019E-002     7.1552931331098080E-005
   7.2500000000000009E-002     1.1391317821107805E-004
   7.3600000000000027E-002     1.5783216804265976E-004
   7.4700000000000016E-002     2.0292357658036053E-004
   7.5800000000000006E-002     2.4876309907995164E-004
   7.6900000000000024E-002     2.9489220469258726E-004
   7.8000000000000014E-002     3.4082442289218307E-004
   7.9100000000000004E-002     3.8604842848144472E-004
   8.0200000000000021E-002     4.3003793689422309E-004
   8.1300000000000011E-002     4.7225932939909399E-004
   8.2400000000000029E-002     5.1218451699241996E-004
   8.3500000000000019E-002     5.4929550969973207E-004
   8.4600000000000009E-002     5.8308918960392475E-004
   8.5700000000000026E-002     6.1308318981900811E-004
   8.6800000000000016E-002     6.3882832182571292E-004
   8.7900000000000006E-002     6.5992237068712711E-004
   8.9000000000000024E-002     6.7601789487525821E-004
   9.0100000000000013E-002     6.8682851269841194E-004
   9.1200000000000003E-002     6.9212587550282478E-004
   9.2300000000000021E-002     6.9174100644886494E-004
   9.3400000000000011E-002     6.8557244958356023E-004
   9.4500000000000028E-002     6.7360105458647013E-004
   9.5600000000000018E-002     6.5589527366682887E-004
   9.6700000000000008E-002     6.3259730814024806E-004
   9.7800000000000026E-002     6.0391618171706796E-004
   9.8900000000000016E-002     5.7012349134311080E-004
  0.10000000000000001          5.3156184731051326E-004
  0.10110000000000002          4.8864568816497922E-004
  0.10220000000000001          4.4184463331475854E-004
  0.10330000000000003          3.9168429793789983E-004
  0.10440000000000002          3.3872661879286170E-004
  0.10550000000000001          2.8355966787785292E-004
  0.10660000000000003          2.2678739333059639E-004
  0.10770000000000002          1.6902943025343120E-004
  0.10880000000000001          1.1091507622040808E-004
  0.10990000000000003          5.3081585065228865E-005
  0.11100000000000002         -3.8582552406296600E-006
  0.11210000000000001         -5.9327354392735288E-005
  0.11320000000000002         -1.1278480815235525E-004
  0.11430000000000001         -1.6372647951357067E-004
  0.11540000000000003         -2.1169401588849723E-004
  0.11650000000000002         -2.5626839487813413E-004
  0.11760000000000001         -2.9708995134569705E-004
  0.11870000000000003         -3.3386898576281965E-004
  0.11980000000000002         -3.6638765595853329E-004
  0.12090000000000001         -3.9449150790460408E-004
  0.12200000000000003         -4.1808185051195323E-004
  0.12310000000000001         -4.3711200123652816E-004
  0.12420000000000003         -4.5159709407016635E-004
  0.12530000000000002         -4.6161783393472433E-004
  0.12640000000000001         -4.6731642214581370E-004
  0.12750000000000003         -4.6887862845323980E-004
  0.12860000000000002         -4.6652555465698242E-004
  0.12970000000000001         -4.6051153913140297E-004
  0.13080000000000003         -4.5112433144822717E-004
  0.13190000000000002         -4.3868107604794204E-004
  0.13300000000000001         -4.2351905722171068E-004
  0.13410000000000000         -4.0598629857413471E-004
  0.13520000000000004         -3.8643542211502790E-004
  0.13630000000000003         -3.6521567380987108E-004
  0.13740000000000002         -3.4266998409293592E-004
  0.13850000000000001         -3.1913453130982816E-004
  0.13960000000000000         -2.9493620968423784E-004
  0.14070000000000005         -2.7038375264964998E-004
  0.14180000000000004         -2.4575993302278221E-004
  0.14290000000000003         -2.2132026788312942E-004
  0.14400000000000002         -1.9729795167222619E-004
  0.14510000000000001         -1.7390752327628434E-004
  0.14620000000000000         -1.5133776469156146E-004
  0.14730000000000004         -1.2974365381523967E-004
  0.14840000000000003         -1.0924498928943649E-004
  0.14950000000000002         -8.9939137978944927E-005
  0.15060000000000001         -7.1904985816217959E-005
  0.15170000000000000         -5.5201599025167525E-005
  0.15280000000000005         -3.9859925891505554E-005
  0.15390000000000004         -2.5886498406180181E-005
  0.15500000000000003         -1.3270955605548806E-005
  0.15610000000000002         -1.9906954094039975E-006
  0.15720000000000001          7.9904602898750454E-006
  0.15830000000000000          1.6723031876608729E-005
  0.15940000000000004          2.4266668333439156E-005
  0.16050000000000003          3.0686649552080780E-005
  0.16160000000000002          3.6053348594577983E-005
  0.16270000000000001          4.0447088395012543E-005
  0.16380000000000000          4.3952160922344774E-005
  0.16490000000000005          4.6647659473819658E-005
  0.16600000000000004          4.8607063945382833E-005
  0.16710000000000003          4.9904829211300239E-005
  0.16820000000000002          5.0621340051293373E-005
  0.16930000000000001          5.0835744332289323E-005
  0.17040000000000000          5.0614802603377029E-005
  0.17150000000000004          5.0015809392789379E-005
  0.17260000000000003          4.9096248403657228E-005
  0.17370000000000002          4.7918209020281211E-005
  0.17480000000000001          4.6538836613763124E-005
  0.17590000000000000          4.5000153477303684E-005
  0.17700000000000005          4.3332973291398957E-005
  0.17810000000000004          4.1571107431082055E-005
  0.17920000000000003          3.9753878809278831E-005
  0.18030000000000002          3.7915026041446254E-005
  0.18140000000000001          3.6074474337510765E-005
  0.18250000000000000          3.4244094422319904E-005
  0.18360000000000004          3.2439107599202543E-005
  0.18470000000000003          3.0677510949317366E-005
  0.18580000000000002          2.8971107894903980E-005
  0.18690000000000001          2.7324713300913572E-005
  0.18800000000000000          2.5744187951204367E-005
  0.18910000000000005          2.4238703190349042E-005
  0.19020000000000004          2.2813383111497387E-005
  0.19130000000000003          2.1462748918565921E-005
  0.19240000000000002          2.0178431441308931E-005
  0.19350000000000001          1.8962135072797537E-005
  0.19460000000000005          1.7823746020440012E-005
  0.19570000000000004          1.6766347471275367E-005
  0.19680000000000003          1.5778739907545969E-005
  0.19790000000000002          1.4847136299067643E-005
  0.19900000000000001          1.3970166037324816E-005
  0.20010000000000000          1.3155597116565332E-005
  0.20120000000000005          1.2404151675582398E-005
  0.20230000000000004          1.1704646567523014E-005
  0.20340000000000003          1.1047116458939854E-005
  0.20450000000000002          1.0433134775666986E-005
  0.20560000000000000          9.8677046480588615E-006
  0.20670000000000005          9.3453618319472298E-006
  0.20780000000000004          8.8528822743683122E-006
  0.20890000000000003          8.3849790826207027E-006
