 -0.12000000000000000          0.0000000000000000
 -0.11889999999999999          0.0000000000000000
 -0.11780000000000000          0.0000000000000000
 -0.11670000000000000          0.0000000000000000
 -0.11559999999999999         -1.6396096381098534E-014
 -0.11449999999999999          2.1678966334224246E-014
 -0.11340000000000000          1.2450511541889364E-013
 -0.11230000000000000         -1.4876000550747420E-013
 -0.11119999999999999         -7.5565855656156700E-013
 -0.11009999999999999          1.9396063802388369E-013
 -0.10900000000000000          3.1764740577450157E-012
 -0.10790000000000000          2.0208448629766007E-012
 -0.10679999999999999         -8.5105169439492201E-012
 -0.10569999999999999         -1.4544769035007565E-011
 -0.10460000000000000          8.3655591134879081E-012
 -0.10349999999999999          4.6377131301955643E-011
 -0.10239999999999999          3.1755823665102767E-011
 -0.10130000000000000         -6.6460309477989199E-011
 -0.10020000000000000         -1.4168190232144440E-010
  -9.9099999999999994E-002    -3.8163614629604936E-011
  -9.7999999999999990E-002     2.0275010836900975E-010
  -9.6899999999999986E-002     2.9167251947015416E-010
  -9.5799999999999996E-002     3.1752569323861835E-011
  -9.4699999999999993E-002    -3.4510544422161615E-010
  -9.3599999999999989E-002    -3.9535855145267362E-010
  -9.2499999999999999E-002    -5.2329324901068119E-011
  -9.1399999999999995E-002     2.5030419403826443E-010
  -9.0299999999999991E-002     1.9362141057133186E-010
  -8.9200000000000002E-002     5.4075105504480803E-011
  -8.8099999999999984E-002     2.4755494876238515E-010
  -8.6999999999999994E-002     5.6479881882509630E-010
  -8.5899999999999990E-002     3.5876626669484324E-010
  -8.4799999999999986E-002    -4.5047687802224345E-010
  -8.3699999999999997E-002    -1.0953498108534632E-009
  -8.2599999999999993E-002    -9.6009655781159609E-010
  -8.1499999999999989E-002    -3.4732014486671403E-010
  -8.0399999999999999E-002     2.2504864638506206E-010
  -7.9299999999999995E-002     9.2576540877686853E-010
  -7.8199999999999992E-002     1.8414263447397161E-009
  -7.7100000000000002E-002     1.5221681692878519E-009
  -7.5999999999999984E-002    -2.3157780137950112E-009
  -7.4899999999999994E-002    -1.0041547149342023E-008
  -7.3799999999999991E-002    -1.9254599692430929E-008
  -7.2699999999999987E-002    -2.7822324000226217E-008
  -7.1599999999999997E-002    -3.6855034579730273E-008
  -7.0499999999999993E-002    -4.8887734749314404E-008
  -6.9399999999999989E-002    -6.3468469591043686E-008
  -6.8300000000000000E-002    -7.7072868975847086E-008
  -6.7199999999999996E-002    -8.8545007770335360E-008
  -6.6099999999999992E-002    -1.0255882898491109E-007
  -6.5000000000000002E-002    -1.2546378513889067E-007
  -6.3899999999999985E-002    -1.5878902104304871E-007
  -6.2799999999999995E-002    -1.9951438900989160E-007
  -6.1699999999999991E-002    -2.4643483698127966E-007
  -6.0599999999999994E-002    -3.0301035280899669E-007
  -5.9499999999999990E-002    -3.7302086752788455E-007
  -5.8399999999999994E-002    -4.5698229200752394E-007
  -5.7299999999999990E-002    -5.5577379498572554E-007
  -5.6199999999999986E-002    -6.7517828483687481E-007
  -5.5099999999999996E-002    -8.2240012488909997E-007
  -5.3999999999999992E-002    -9.9919043350382708E-007
  -5.2899999999999989E-002    -1.2042078196827788E-006
  -5.1799999999999985E-002    -1.4437641766562592E-006
  -5.0699999999999995E-002    -1.7342899809591472E-006
  -4.9599999999999991E-002    -2.0892678094242001E-006
  -4.8499999999999988E-002    -2.5079082206502790E-006
  -4.7399999999999998E-002    -2.9845687095075846E-006
  -4.6299999999999994E-002    -3.5290609048388433E-006
  -4.5199999999999990E-002    -4.1695570871524978E-006
  -4.4099999999999986E-002    -4.9321315600536764E-006
  -4.2999999999999997E-002    -5.8245827858627308E-006
  -4.1899999999999993E-002    -6.8469671532511711E-006
  -4.0799999999999989E-002    -8.0130566857405938E-006
  -3.9699999999999985E-002    -9.3523758550873026E-006
  -3.8599999999999995E-002    -1.0892645150306635E-005
  -3.7499999999999992E-002    -1.2651182260015048E-005
  -3.6399999999999988E-002    -1.4646810996055137E-005
  -3.5299999999999984E-002    -1.6909092664718628E-005
  -3.4199999999999994E-002    -1.9466669982648455E-005
  -3.3099999999999991E-002    -2.2335405446938239E-005
  -3.1999999999999987E-002    -2.5531511710141785E-005
  -3.0899999999999997E-002    -2.9093978810124099E-005
  -2.9799999999999993E-002    -3.3076932595577091E-005
  -2.8699999999999989E-002    -3.7513604183914140E-005
  -2.7599999999999986E-002    -4.2401246901135892E-005
  -2.6499999999999996E-002    -4.7735305997775868E-005
  -2.5399999999999992E-002    -5.3549032600130886E-005
  -2.4299999999999988E-002    -5.9899517509620637E-005
  -2.3199999999999985E-002    -6.6816697653848678E-005
  -2.2099999999999995E-002    -7.4284442234784365E-005
  -2.0999999999999991E-002    -8.2278274931013584E-005
  -1.9899999999999987E-002    -9.0801229816861451E-005
  -1.8799999999999983E-002    -9.9867917015217245E-005
  -1.7699999999999994E-002    -1.0946360998786986E-004
  -1.6599999999999990E-002    -1.1954116052947938E-004
  -1.5499999999999986E-002    -1.3005656364839524E-004
  -1.4399999999999996E-002    -1.4097672828938812E-004
  -1.3299999999999992E-002    -1.5224063827190548E-004
  -1.2199999999999989E-002    -1.6373819380532950E-004
  -1.1099999999999985E-002    -1.7535024380777031E-004
  -9.9999999999999950E-003    -1.8699288193602115E-004
  -8.8999999999999913E-003    -1.9858978339470923E-004
  -7.7999999999999875E-003    -2.1000461129005998E-004
  -6.6999999999999837E-003    -2.2102899674791843E-004
  -5.5999999999999939E-003    -2.3145806335378438E-004
  -4.4999999999999901E-003    -2.4113980180118233E-004
  -3.3999999999999864E-003    -2.4993397528305650E-004
  -2.2999999999999826E-003    -2.5763610028661788E-004
  -1.1999999999999927E-003    -2.6398905902169645E-004
  -9.9999999999988987E-005    -2.6875600451603532E-004
   1.0000000000000148E-003    -2.7175049763172865E-004
   2.1000000000000185E-003    -2.7278324705548584E-004
   3.2000000000000084E-003    -2.7161225443705916E-004
   4.3000000000000121E-003    -2.6799071929417551E-004
   5.4000000000000159E-003    -2.6174538652412593E-004
   6.5000000000000058E-003    -2.5275594089180231E-004
   7.6000000000000234E-003    -2.4087303609121591E-004
   8.7000000000000133E-003    -2.2590321896132082E-004
   9.8000000000000032E-003    -2.0769955881405622E-004
   1.0900000000000021E-002    -1.8624094082042575E-004
   1.2000000000000011E-002    -1.6157157369889319E-004
   1.3100000000000001E-002    -1.3370173110160977E-004
   1.4200000000000018E-002    -1.0261570423608646E-004
   1.5300000000000008E-002    -6.8389825173653662E-005
   1.6400000000000026E-002    -3.1232128094416112E-005
   1.7500000000000016E-002     8.6008130892878398E-006
   1.8600000000000005E-002     5.0890463171526790E-005
   1.9700000000000023E-002     9.5389601483475417E-005
   2.0800000000000013E-002     1.4172951341606677E-004
   2.1900000000000003E-002     1.8943959730677307E-004
   2.3000000000000020E-002     2.3806918761692941E-004
   2.4100000000000010E-002     2.8721929993480444E-004
   2.5200000000000000E-002     3.3643908682279289E-004
   2.6300000000000018E-002     3.8513794424943626E-004
   2.7400000000000008E-002     4.3266924330964684E-004
   2.8500000000000025E-002     4.7847966197878122E-004
   2.9600000000000015E-002     5.2210519788786769E-004
   3.0700000000000005E-002     5.6303822202607989E-004
   3.1800000000000023E-002     6.0066772857680917E-004
   3.2900000000000013E-002     6.3440174562856555E-004
   3.4000000000000002E-002     6.6379224881529808E-004
   3.5100000000000020E-002     6.8848865339532495E-004
   3.6200000000000010E-002     7.0810475153848529E-004
   3.7300000000000028E-002     7.2222604649141431E-004
   3.8400000000000017E-002     7.3055498069152236E-004
   3.9500000000000007E-002     7.3297956259921193E-004
   4.0600000000000025E-002     7.2945083957165480E-004
   4.1700000000000015E-002     7.1986974216997623E-004
   4.2800000000000005E-002     7.0416415110230446E-004
   4.3900000000000022E-002     6.8245874717831612E-004
   4.5000000000000012E-002     6.5506814280524850E-004
   4.6100000000000002E-002     6.2231550691649318E-004
   4.7200000000000020E-002     5.8445573085919023E-004
   4.8300000000000010E-002     5.4180255392566323E-004
   4.9400000000000027E-002     4.9486808711662889E-004
   5.0500000000000017E-002     4.4428420369513333E-004
   5.1600000000000007E-002     3.9063079748302698E-004
   5.2700000000000025E-002     3.3440810511820018E-004
   5.3800000000000014E-002     2.7619200409390032E-004
   5.4900000000000004E-002     2.1671823924407363E-004
   5.6000000000000022E-002     1.5673352754674852E-004
   5.7100000000000012E-002     9.6837829914875329E-005
   5.8200000000000002E-002     3.7542311474680901E-005
   5.9300000000000019E-002    -2.0557505195029080E-005
   6.0400000000000009E-002    -7.6755146437790245E-005
   6.1500000000000027E-002    -1.3043718354310840E-004
   6.2600000000000017E-002    -1.8120146705769002E-004
   6.3700000000000007E-002    -2.2872794943396002E-004
   6.4800000000000024E-002    -2.7260498609393835E-004
   6.5900000000000014E-002    -3.1238974770531058E-004
   6.7000000000000004E-002    -3.4780133864842355E-004
   6.8100000000000022E-002    -3.7876842543482780E-004
   6.9200000000000012E-002    -4.0524170617572963E-004
   7.0300000000000029E-002    -4.2707496322691441E-004
   7.1400000000000019E-002    -4.4415908632799983E-004
   7.2500000000000009E-002    -4.5660458272323012E-004
   7.3600000000000027E-002    -4.6467725769616663E-004
   7.4700000000000016E-002    -4.6856841072440147E-004
   7.5800000000000006E-002    -4.6834794920869172E-004
   7.6900000000000024E-002    -4.6417483827099204E-004
   7.8000000000000014E-002    -4.5643400517292321E-004
   7.9100000000000004E-002    -4.4558622175827622E-004
   8.0200000000000021E-002    -4.3194409226998687E-004
   8.1300000000000011E-002    -4.1570400935597718E-004
   8.2400000000000029E-002    -3.9717080653645098E-004
   8.3500000000000019E-002    -3.7682158290408552E-004
   8.4600000000000009E-002    -3.5510733141563833E-004
   8.5700000000000026E-002    -3.3229435211978853E-004
   8.6800000000000016E-002    -3.0858651734888554E-004
   8.7900000000000006E-002    -2.8432739782147110E-004
   8.9000000000000024E-002    -2.5995873147621751E-004
   9.0100000000000013E-002    -2.3578398395329714E-004
   9.1200000000000003E-002    -2.1190503321122378E-004
   9.2300000000000021E-002    -1.8843461293727160E-004
   9.3400000000000011E-002    -1.6566136036999524E-004
   9.4500000000000028E-002    -1.4390831347554922E-004
   9.5600000000000018E-002    -1.2329693709034473E-004
   9.6700000000000008E-002    -1.0376948921475559E-004
   9.7800000000000026E-002    -8.5343177488539368E-005
   9.8900000000000016E-002    -6.8207198637537658E-005
  0.10000000000000001         -5.2521078032441437E-005
  0.10110000000000002         -3.8231813960010186E-005
  0.10220000000000001         -2.5192113753291778E-005
  0.10330000000000003         -1.3392689652391709E-005
  0.10440000000000002         -2.9493530746549368E-006
  0.10550000000000001          6.1322853071033023E-006
  0.10660000000000003          1.4040736459719483E-005
  0.10770000000000002          2.0956038497388363E-005
  0.10880000000000001          2.6862986487685703E-005
  0.10990000000000003          3.1673269404564053E-005
  0.11100000000000002          3.5470686270855367E-005
  0.11210000000000001          3.8501413655467331E-005
  0.11320000000000002          4.0921237086877227E-005
  0.11430000000000001          4.2681000195443630E-005
  0.11540000000000003          4.3721356632886454E-005
  0.11650000000000002          4.4173248170409352E-005
  0.11760000000000001          4.4259744754526764E-005
  0.11870000000000003          4.4056374463252723E-005
  0.11980000000000002          4.3477637518662959E-005
  0.12090000000000001          4.2508469050517306E-005
  0.12200000000000003          4.1314011468784884E-005
  0.12310000000000001          4.0062361222226173E-005
  0.12420000000000003          3.8730595406377688E-005
  0.12530000000000002          3.7200308725005016E-005
  0.12640000000000001          3.5495853808242828E-005
  0.12750000000000003          3.3797954529291019E-005
  0.12860000000000002          3.2211566576734185E-005
  0.12970000000000001          3.0643157515441999E-005
  0.13080000000000003          2.8976201065233909E-005
  0.13190000000000002          2.7273483283352107E-005
  0.13300000000000001          2.5699011530377902E-005
  0.13410000000000000          2.4282935555675067E-005
  0.13520000000000004          2.2891521439305507E-005
  0.13630000000000003          2.1445477614179254E-005
  0.13740000000000002          2.0048255464644171E-005
  0.13850000000000001          1.8829907276085578E-005
  0.13960000000000000          1.7749664039001800E-005
  0.14070000000000005          1.6659731045365334E-005
  0.14180000000000004          1.5531091776210815E-005
  0.14290000000000003          1.4493532944470644E-005
  0.14400000000000002          1.3633760318043642E-005
  0.14510000000000001          1.2863431948062498E-005
  0.14620000000000000          1.2056438208674081E-005
  0.14730000000000004          1.1237656508455984E-005
  0.14840000000000003          1.0533841305004898E-005
  0.14950000000000002          9.9687204055953771E-006
  0.15060000000000001          9.4223196356324479E-006
  0.15170000000000000          8.8149881776189432E-006
  0.15280000000000005          8.2291699072811753E-006
  0.15390000000000004          7.7780223364243284E-006
  0.15500000000000003          7.4251611295039766E-006
  0.15610000000000002          7.0341343416657764E-006
  0.15720000000000001          6.5712160903785843E-006
  0.15830000000000000          6.1529208323918283E-006
  0.15940000000000004          5.8678497225628234E-006
  0.16050000000000003          5.6443141147610731E-006
  0.16160000000000002          5.3596900215779897E-006
  0.16270000000000001          5.0191979426017497E-006
  0.16380000000000000          4.7356952563859522E-006
  0.16490000000000005          4.5516871978179552E-006
  0.16600000000000004          4.3796908357762732E-006
  0.16710000000000003          4.1433827391301747E-006
  0.16820000000000002          3.8936250348342583E-006
  0.16930000000000001          3.7221641377982451E-006
  0.17040000000000000          3.6140011161478469E-006
  0.17150000000000004          3.4699492061918136E-006
  0.17260000000000003          3.2615951113257324E-006
  0.17370000000000002          3.0758815228182357E-006
  0.17480000000000001          2.9808418275933946E-006
  0.17590000000000000          2.9193101909186225E-006
  0.17700000000000005          2.7939900064666290E-006
  0.17810000000000004          2.6123764200747246E-006
  0.17920000000000003          2.4723901788092917E-006
  0.18030000000000002          2.4144756025634706E-006
  0.18140000000000001          2.3650200091651641E-006
  0.18250000000000000          2.2509611881105229E-006
  0.18360000000000004          2.1067003217467573E-006
  0.18470000000000003          2.0150268937868532E-006
  0.18580000000000002          1.9799813344434369E-006
  0.18690000000000001          1.9253313894296298E-006
  0.18800000000000000          1.8133142702936311E-006
  0.18910000000000005          1.6982911574814352E-006
  0.19020000000000004          1.6380387251047068E-006
  0.19130000000000003          1.6049117448346806E-006
  0.19240000000000002          1.5313362382585183E-006
  0.19350000000000001          1.4135758874544990E-006
  0.19460000000000005          1.3131142395650386E-006
  0.19570000000000004          1.2582420367834857E-006
  0.19680000000000003          1.2000942888334976E-006
  0.19790000000000002          1.0879514320549788E-006
  0.19900000000000001          9.4469481837222702E-007
  0.20010000000000000          8.2772112364182249E-007
  0.20120000000000005          7.3829198754538083E-007
  0.20230000000000004          6.1820497876396985E-007
  0.20340000000000003          4.3501751179064740E-007
  0.20450000000000002          2.2442550573487097E-007
  0.20560000000000000          2.8924148409714689E-008
  0.20670000000000005         -1.7094076554258208E-007
  0.20780000000000004         -4.3048507336607145E-007
  0.20890000000000003         -7.6451385666587157E-007
