 -0.12000000000000000          0.0000000000000000     
 -0.11889999999999999         -2.3804462398402393E-004
 -0.11780000000000000          1.6688909090589732E-004
 -0.11670000000000000          6.6972925560548902E-004
 -0.11559999999999999         -1.1048441228922457E-004
 -0.11449999999999999         -1.1875819182023406E-003
 -0.11340000000000000         -2.8042783378623426E-004
 -0.11230000000000000          1.4356311876326799E-003
 -0.11119999999999999          3.2772312988527119E-004
 -0.11009999999999999         -2.5303363800048828E-003
 -0.10900000000000000         -1.1085482547059655E-003
 -0.10790000000000000          5.0206361338496208E-003
 -0.10679999999999999          6.4050024375319481E-003
 -0.10569999999999999         -2.7467783074826002E-003
 -0.10460000000000000         -1.1950998567044735E-002
 -0.10349999999999999         -6.5400348976254463E-003
 -0.10239999999999999          8.9880032464861870E-003
 -0.10130000000000000          1.3437520712614059E-002
 -0.10020000000000000         -8.5764256073161960E-004
  -9.9099999999999994E-002    -1.4127862639725208E-002
  -9.7999999999999990E-002    -6.5306443721055984E-003
  -9.6899999999999986E-002     1.1461478658020496E-002
  -9.5799999999999996E-002     1.3230031356215477E-002
  -9.4699999999999993E-002    -4.0341480635106564E-003
  -9.3599999999999989E-002    -1.4631012454628944E-002
  -9.2499999999999999E-002    -3.7690037861466408E-003
  -9.1399999999999995E-002     9.6112620085477829E-003
  -9.0299999999999991E-002     3.2291109673678875E-003
  -8.9200000000000002E-002    -1.2479634955525398E-002
  -8.8099999999999984E-002    -1.1040860787034035E-002
  -8.6999999999999994E-002     6.2278299592435360E-003
  -8.5899999999999990E-002     1.0888456366956234E-002
  -8.4799999999999986E-002    -5.9583969414234161E-003
  -8.3699999999999997E-002    -1.6754129901528358E-002
  -8.2599999999999993E-002    -1.7533885547891259E-003
  -8.1499999999999989E-002     1.5199365094304085E-002
  -8.0399999999999999E-002     1.9376494456082582E-003
  -7.9299999999999995E-002    -2.7117192745208740E-002
  -7.8199999999999992E-002    -2.7603210881352425E-002
  -7.7100000000000002E-002     4.4783186167478561E-003
  -7.5999999999999984E-002     1.9044239073991776E-002
  -7.4899999999999994E-002    -1.4634957537055016E-002
  -7.3799999999999991E-002    -5.5820371955633163E-002
  -7.2699999999999987E-002    -4.7623552381992340E-002
  -7.1599999999999997E-002    -2.9548250604420900E-003
  -7.0499999999999993E-002     1.0166016407310963E-002
  -6.9399999999999989E-002    -3.2849531620740891E-002
  -6.8300000000000000E-002    -7.7495232224464417E-002
  -6.7199999999999996E-002    -7.1866549551486969E-002
  -6.6099999999999992E-002    -4.1785959154367447E-002
  -6.5000000000000002E-002    -4.6495899558067322E-002
  -6.3899999999999985E-002    -8.6979098618030548E-002
  -6.2799999999999995E-002   -0.11066696047782898     
  -6.1699999999999991E-002   -0.10123332589864731     
  -6.0599999999999994E-002   -0.10588069260120392     
  -5.9499999999999990E-002   -0.15351256728172302     
  -5.8399999999999994E-002   -0.19862218201160431     
  -5.7299999999999990E-002   -0.19040952622890472     
  -5.6199999999999986E-002   -0.16318483650684357     
  -5.5099999999999996E-002   -0.19614845514297485     
  -5.3999999999999992E-002   -0.29097953438758850     
  -5.2899999999999989E-002   -0.35718971490859985     
  -5.1799999999999985E-002   -0.34126746654510498     
  -5.0699999999999995E-002   -0.31019860506057739     
  -4.9599999999999991E-002   -0.35722157359123230     
  -4.8499999999999988E-002   -0.46517297625541687     
  -4.7399999999999998E-002   -0.53224718570709229     
  -4.6299999999999994E-002   -0.52325505018234253     
  -4.5199999999999990E-002   -0.51698631048202515     
  -4.4099999999999986E-002   -0.58169293403625488     
  -4.2999999999999997E-002   -0.67141121625900269     
  -4.1899999999999993E-002   -0.70264977216720581     
  -4.0799999999999989E-002   -0.68643730878829956     
  -3.9699999999999985E-002   -0.70701593160629272     
  -3.8599999999999995E-002   -0.78325116634368896     
  -3.7499999999999992E-002   -0.83285492658615112     
  -3.6399999999999988E-002   -0.80115568637847900     
  -3.5299999999999984E-002   -0.75005996227264404     
  -3.4199999999999994E-002   -0.76329636573791504     
  -3.3099999999999991E-002   -0.80955296754837036     
  -3.1999999999999987E-002   -0.78310626745223999     
  -3.0899999999999997E-002   -0.66532582044601440     
  -2.9799999999999993E-002   -0.55760067701339722     
  -2.8699999999999989E-002   -0.52421051263809204     
  -2.7599999999999986E-002   -0.48884010314941406     
  -2.6499999999999996E-002   -0.34414321184158325     
  -2.5399999999999992E-002   -0.11762953549623489     
  -2.4299999999999988E-002     7.0318140089511871E-002
  -2.3199999999999985E-002    0.18713603913784027     
  -2.2099999999999995E-002    0.33874681591987610     
  -2.0999999999999991E-002    0.60707849264144897     
  -1.9899999999999987E-002    0.93096143007278442     
  -1.8799999999999983E-002     1.1978746652603149     
  -1.7699999999999994E-002     1.4130647182464600     
  -1.6599999999999990E-002     1.6820684671401978     
  -1.5499999999999986E-002     2.0387637615203857     
  -1.4399999999999996E-002     2.3931965827941895     
  -1.3299999999999992E-002     2.6689715385437012     
  -1.2199999999999989E-002     2.9200739860534668     
  -1.1099999999999985E-002     3.2378396987915039     
  -9.9999999999999950E-003     3.5944004058837891     
  -8.8999999999999913E-003     3.8745200634002686     
  -7.7999999999999875E-003     4.0432362556457520     
  -6.6999999999999837E-003     4.1981401443481445     
  -5.5999999999999939E-003     4.4131159782409668     
  -4.4999999999999901E-003     4.6113696098327637     
  -3.3999999999999864E-003     4.6772370338439941     
  -2.2999999999999826E-003     4.6179723739624023     
  -1.1999999999999927E-003     4.5420284271240234     
  -9.9999999999988987E-005     4.4892702102661133     
   1.0000000000000148E-003     4.3685932159423828     
   2.1000000000000185E-003     4.0912179946899414     
   3.2000000000000084E-003     3.7072720527648926     
   4.3000000000000121E-003     3.3249366283416748     
   5.4000000000000159E-003     2.9420821666717529     
   6.5000000000000058E-003     2.4485816955566406     
   7.6000000000000234E-003     1.8047035932540894     
   8.7000000000000133E-003     1.1067463159561157     
   9.8000000000000032E-003    0.45192059874534607     
   1.0900000000000021E-002   -0.20420068502426147     
   1.2000000000000011E-002   -0.95789664983749390     
   1.3100000000000001E-002    -1.8006470203399658     
   1.4200000000000018E-002    -2.6223795413970947     
   1.5300000000000008E-002    -3.3671700954437256     
   1.6400000000000026E-002    -4.0972914695739746     
   1.7500000000000016E-002    -4.8675513267517090     
   1.8600000000000005E-002    -5.6232476234436035     
   1.9700000000000023E-002    -6.2676930427551270     
   2.0800000000000013E-002    -6.8004221916198730     
   2.1900000000000003E-002    -7.2997851371765137     
   2.3000000000000020E-002    -7.7869224548339844     
   2.4100000000000010E-002    -8.1729240417480469     
   2.5200000000000000E-002    -8.3835077285766602     
   2.6300000000000018E-002    -8.4538288116455078     
   2.7400000000000008E-002    -8.4679336547851562     
   2.8500000000000025E-002    -8.4335746765136719     
   2.9600000000000015E-002    -8.2735834121704102     
   3.0700000000000005E-002    -7.9474029541015625     
   3.1800000000000023E-002    -7.4995822906494141     
   3.2900000000000013E-002    -6.9966301918029785     
   3.4000000000000002E-002    -6.4322519302368164     
   3.5100000000000020E-002    -5.7594523429870605     
   3.6200000000000010E-002    -4.9774422645568848     
   3.7300000000000028E-002    -4.1555509567260742     
   3.8400000000000017E-002    -3.3366303443908691     
   3.9500000000000007E-002    -2.4896392822265625     
   4.0600000000000025E-002    -1.5715388059616089     
   4.1700000000000015E-002   -0.61844670772552490     
   4.2800000000000005E-002    0.28858307003974915     
   4.3900000000000022E-002     1.1317282915115356     
   4.5000000000000012E-002     1.9345282316207886     
   4.6100000000000002E-002     2.7218482494354248     
   4.7200000000000020E-002     3.4773411750793457     
   4.8300000000000010E-002     4.1550040245056152     
   4.9400000000000027E-002     4.7364678382873535     
   5.0500000000000017E-002     5.2304453849792480     
   5.1600000000000007E-002     5.6431655883789062     
   5.2700000000000025E-002     5.9682941436767578     
   5.3800000000000014E-002     6.2009100914001465     
   5.4900000000000004E-002     6.3466386795043945     
   5.6000000000000022E-002     6.4112877845764160     
   5.7100000000000012E-002     6.3948974609375000     
   5.8200000000000002E-002     6.2900390625000000     
   5.9300000000000019E-002     6.1018424034118652     
   6.0400000000000009E-002     5.8404693603515625     
   6.1500000000000027E-002     5.5213708877563477     
   6.2600000000000017E-002     5.1665754318237305     
   6.3700000000000007E-002     4.7843594551086426     
   6.4800000000000024E-002     4.3614029884338379     
   6.5900000000000014E-002     3.8862860202789307     
   6.7000000000000004E-002     3.3788635730743408     
   6.8100000000000022E-002     2.8831813335418701     
   6.9200000000000012E-002     2.4186232089996338     
   7.0300000000000029E-002     1.9598232507705688     
   7.1400000000000019E-002     1.4804691076278687     
   7.2500000000000009E-002     1.0054056644439697     
   7.3600000000000027E-002    0.58468246459960938     
   7.4700000000000016E-002    0.22384876012802124     
   7.5800000000000006E-002   -0.12558393180370331     
   7.6900000000000024E-002   -0.48833745718002319     
   7.8000000000000014E-002   -0.81380289793014526     
   7.9100000000000004E-002    -1.0448954105377197     
   8.0200000000000021E-002    -1.2074477672576904     
   8.1300000000000011E-002    -1.3754876852035522     
   8.2400000000000029E-002    -1.5694106817245483     
   8.3500000000000019E-002    -1.7188850641250610     
   8.4600000000000009E-002    -1.7668051719665527     
   8.5700000000000026E-002    -1.7593177556991577     
   8.6800000000000016E-002    -1.7771723270416260     
   8.7900000000000006E-002    -1.8162488937377930     
   8.9000000000000024E-002    -1.8018809556961060     
   9.0100000000000013E-002    -1.7110662460327148     
   9.1200000000000003E-002    -1.6213837862014771     
   9.2300000000000021E-002    -1.5863337516784668     
   9.3400000000000011E-002    -1.5482323169708252     
   9.4500000000000028E-002    -1.4242736101150513     
   9.5600000000000018E-002    -1.2484172582626343     
   9.6700000000000008E-002    -1.1336890459060669     
   9.7800000000000026E-002    -1.1064790487289429     
   9.8900000000000016E-002    -1.0595026016235352     
  0.10000000000000001        -0.90858983993530273     
  0.10110000000000002        -0.72192811965942383     
  0.10220000000000001        -0.62737601995468140     
  0.10330000000000003        -0.62087261676788330     
  0.10440000000000002        -0.57411563396453857     
  0.10550000000000001        -0.43121567368507385     
  0.10660000000000003        -0.29502403736114502     
  0.10770000000000002        -0.26721939444541931     
  0.10880000000000001        -0.28827697038650513     
  0.10990000000000003        -0.22868582606315613     
  0.11100000000000002         -9.1603063046932220E-002
  0.11210000000000001         -1.4570505358278751E-002
  0.11320000000000002         -5.7206962257623672E-002
  0.11430000000000001        -0.10275492817163467     
  0.11540000000000003         -3.4592002630233765E-002
  0.11650000000000002          8.4730140864849091E-002
  0.11760000000000001         0.10741689056158066     
  0.11870000000000003          2.7557615190744400E-002
  0.11980000000000002         -7.6307947747409344E-003
  0.12090000000000001          7.2772584855556488E-002
  0.12200000000000003         0.15373487770557404     
  0.12310000000000001         0.11372698843479156     
  0.12420000000000003          1.8652971833944321E-002
  0.12530000000000002          2.3948369547724724E-002
  0.12640000000000001         0.13099370896816254     
  0.12750000000000003         0.17697221040725708     
  0.12860000000000002          8.3497874438762665E-002
  0.12970000000000001         -1.7756175249814987E-002
  0.13080000000000003          2.0459657534956932E-002
  0.13190000000000002         0.13745565712451935     
  0.13300000000000001         0.15460720658302307     
  0.13410000000000000          4.4676292687654495E-002
  0.13520000000000004         -2.9958125203847885E-002
  0.13630000000000003          3.3918987959623337E-002
  0.13740000000000002         0.12605373561382294     
  0.13850000000000001          9.7817234694957733E-002
  0.13960000000000000         -7.9270265996456146E-003
  0.14070000000000005         -2.7332166209816933E-002
  0.14180000000000004          6.6405698657035828E-002
  0.14290000000000003         0.11990690976381302     
  0.14400000000000002          4.0269080549478531E-002
  0.14510000000000001         -5.6838221848011017E-002
  0.14620000000000000         -2.3648258298635483E-002
  0.14730000000000004          8.9270956814289093E-002
  0.14840000000000003         0.10735297948122025     
  0.14950000000000002         -3.7541231722570956E-004
  0.15060000000000001         -7.3105834424495697E-002
  0.15170000000000000         -4.2185587808489799E-003
  0.15280000000000005          9.6469841897487640E-002
  0.15390000000000004          7.2638638317584991E-002
  0.15500000000000003         -3.9021283388137817E-002
  0.15610000000000002         -6.7221552133560181E-002
  0.15720000000000001          2.9373880475759506E-002
  0.15830000000000000          9.9429152905941010E-002
  0.15940000000000004          3.3342212438583374E-002
  0.16050000000000003         -6.8716801702976227E-002
  0.16160000000000002         -5.1895953714847565E-002
  0.16270000000000001          5.6422308087348938E-002
  0.16380000000000000          9.0409062802791595E-002
  0.16490000000000005          4.1214798693545163E-004
  0.16600000000000004         -7.4866063892841339E-002
  0.16710000000000003         -2.4162027984857559E-002
  0.16820000000000002          6.8646572530269623E-002
  0.16930000000000001          5.9397723525762558E-002
  0.17040000000000000         -3.3733706921339035E-002
  0.17150000000000004         -6.3384711742401123E-002
  0.17260000000000003          1.5662577003240585E-002
  0.17370000000000002          7.7525816857814789E-002
  0.17480000000000001          2.3465584963560104E-002
  0.17590000000000000         -6.4036980271339417E-002
  0.17700000000000005         -4.9072902649641037E-002
  0.17810000000000004          4.6956244856119156E-002
  0.17920000000000003          7.7785633504390717E-002
  0.18030000000000002         -3.6818264052271843E-003
  0.18140000000000001         -7.4954412877559662E-002
  0.18250000000000000         -3.1122840940952301E-002
  0.18360000000000004          5.8348324149847031E-002
  0.18470000000000003          5.9361495077610016E-002
  0.18580000000000002         -2.4238429963588715E-002
  0.18690000000000001         -6.3612796366214752E-002
  0.18800000000000000         -4.5466725714504719E-003
  0.18910000000000005          5.5513001978397369E-002
  0.19020000000000004          2.3726662620902061E-002
  0.19130000000000003         -4.7010548412799835E-002
  0.19240000000000002         -4.6253763139247894E-002
  0.19350000000000001          2.1441670134663582E-002
  0.19460000000000005          4.7047525644302368E-002
  0.19570000000000004         -1.1214159429073334E-002
  0.19680000000000003         -6.4537808299064636E-002
  0.19790000000000002         -3.3049926161766052E-002
  0.19900000000000001          3.1473748385906219E-002
  0.20010000000000000          2.7330381795763969E-002
  0.20120000000000005         -4.1510805487632751E-002
  0.20230000000000004         -7.4699074029922485E-002
  0.20340000000000003         -3.0140627175569534E-002
  0.20450000000000002          1.5801249071955681E-002
  0.20560000000000000         -1.1168140918016434E-002
  0.20670000000000005         -7.2547391057014465E-002
  0.20780000000000004         -8.1773884594440460E-002
  0.20890000000000003         -3.7754300981760025E-002
