 -0.12000000000000000          0.0000000000000000     
 -0.11889999999999999          0.0000000000000000     
 -0.11780000000000000          1.0369226401962806E-005
 -0.11670000000000000         -9.4180286396294832E-006
 -0.11559999999999999         -4.4106240238761529E-005
 -0.11449999999999999          2.5041716071427800E-005
 -0.11340000000000000          1.3560525258071721E-004
 -0.11230000000000000         -5.9878489082620945E-006
 -0.11119999999999999         -3.1868484802544117E-004
 -0.11009999999999999         -1.6310022328980267E-004
 -0.10900000000000000          5.4384575923904777E-004
 -0.10790000000000000          6.4357637893408537E-004
 -0.10679999999999999         -5.6265038438141346E-004
 -0.10569999999999999         -1.4497148804366589E-003
 -0.10460000000000000         -1.1581411854422186E-005
 -0.10349999999999999          2.2621070966124535E-003
 -0.10239999999999999          1.4494910137727857E-003
 -0.10130000000000000         -2.4414863437414169E-003
 -0.10020000000000000         -3.6634735297411680E-003
  -9.9099999999999994E-002     1.1403654934838414E-003
  -9.7999999999999990E-002     5.9094568714499474E-003
  -9.6899999999999986E-002     2.3854009341448545E-003
  -9.5799999999999996E-002    -6.3208541832864285E-003
  -9.4699999999999993E-002    -7.4455700814723969E-003
  -9.3599999999999989E-002     2.8940376359969378E-003
  -9.2499999999999999E-002     1.1079365387558937E-002
  -9.1399999999999995E-002     3.9647291414439678E-003
  -9.0299999999999991E-002    -1.0187030769884586E-002
  -8.9200000000000002E-002    -1.1011872440576553E-002
  -8.8099999999999984E-002     4.1860644705593586E-003
  -8.6999999999999994E-002     1.4264171943068504E-002
  -8.5899999999999990E-002     4.2275171726942062E-003
  -8.4799999999999986E-002    -1.1689451523125172E-002
  -8.3699999999999997E-002    -1.0283149778842926E-002
  -8.2599999999999993E-002     5.6533683091402054E-003
  -8.1499999999999989E-002     1.1434878222644329E-002
  -8.0399999999999999E-002    -1.0988363064825535E-003
  -7.9299999999999995E-002    -1.0591653175652027E-002
  -7.8199999999999992E-002    -7.1756925899535418E-004
  -7.7100000000000002E-002     1.1873252689838409E-002
  -7.5999999999999984E-002     3.5242517478764057E-003
  -7.4899999999999994E-002    -1.5237222425639629E-002
  -7.3799999999999991E-002    -1.2108001857995987E-002
  -7.2699999999999987E-002     1.4272316358983517E-002
  -7.1599999999999997E-002     2.4919452145695686E-002
  -7.0499999999999993E-002    -2.1813171915709972E-003
  -6.9399999999999989E-002    -3.2285034656524658E-002
  -6.8300000000000000E-002    -1.9566584378480911E-002
  -6.7199999999999996E-002     2.2850887849926949E-002
  -6.6099999999999992E-002     3.6045655608177185E-002
  -6.5000000000000002E-002    -3.0586376669816673E-004
  -6.3899999999999985E-002    -3.5867527127265930E-002
  -6.2799999999999995E-002    -2.1452618762850761E-002
  -6.1699999999999991E-002     1.9718421623110771E-002
  -6.0599999999999994E-002     2.8038542717695236E-002
  -5.9499999999999990E-002    -3.5297968424856663E-003
  -5.8399999999999994E-002    -2.2917846217751503E-002
  -5.7299999999999990E-002    -2.7467750478535891E-003
  -5.6199999999999986E-002     1.8080478534102440E-002
  -5.5099999999999996E-002     6.7374866921454668E-004
  -5.3999999999999992E-002    -2.6353124529123306E-002
  -5.2899999999999989E-002    -1.1115314438939095E-002
  -5.1799999999999985E-002     3.1910151243209839E-002
  -5.0699999999999995E-002     3.4318316727876663E-002
  -4.9599999999999991E-002    -1.9481534138321877E-002
  -4.8499999999999988E-002    -5.6355670094490051E-002
  -4.7399999999999998E-002    -1.7126215621829033E-002
  -4.6299999999999994E-002     4.9388956278562546E-002
  -4.5199999999999990E-002     5.0087902694940567E-002
  -4.4099999999999986E-002    -1.7604185268282890E-002
  -4.2999999999999997E-002    -5.9373881667852402E-002
  -4.1899999999999993E-002    -2.0144080743193626E-002
  -4.0799999999999989E-002     3.8203418254852295E-002
  -3.9699999999999985E-002     3.3489581197500229E-002
  -3.8599999999999995E-002    -1.6585042700171471E-002
  -3.7499999999999992E-002    -2.9763707891106606E-002
  -3.6399999999999988E-002     9.1643352061510086E-003
  -3.5299999999999984E-002     2.8734359890222549E-002
  -3.4199999999999994E-002    -9.0056983754038811E-003
  -3.3099999999999991E-002    -4.1595306247472763E-002
  -3.1999999999999987E-002    -5.4991040378808975E-003
  -3.0899999999999997E-002     5.3338702768087387E-002
  -2.9799999999999993E-002     4.2088340967893600E-002
  -2.8699999999999989E-002    -3.4335184842348099E-002
  -2.7599999999999986E-002    -6.7666038870811462E-002
  -2.6499999999999996E-002    -4.8260004259645939E-003
  -2.5399999999999992E-002     6.8072602152824402E-002
  -2.4299999999999988E-002     4.9429275095462799E-002
  -2.3199999999999985E-002    -3.0319292098283768E-002
  -2.2099999999999995E-002    -5.4805774241685867E-002
  -2.0999999999999991E-002     3.1407098285853863E-003
  -1.9899999999999987E-002     5.1611274480819702E-002
  -1.8799999999999983E-002     2.0720953121781349E-002
  -1.7699999999999994E-002    -3.2088115811347961E-002
  -1.6599999999999990E-002    -1.7862161621451378E-002
  -1.5499999999999986E-002     3.8949567824602127E-002
  -1.4399999999999996E-002     4.1099771857261658E-002
  -1.3299999999999992E-002    -2.2375321015715599E-002
  -1.2199999999999989E-002    -5.3997192531824112E-002
  -1.1099999999999985E-002     3.0312160961329937E-003
  -9.9999999999999950E-003     6.8737901747226715E-002
  -8.8999999999999913E-003     4.3953180313110352E-002
  -7.7999999999999875E-003    -3.9411768317222595E-002
  -6.6999999999999837E-003    -6.2776766717433929E-002
  -5.5999999999999939E-003     5.2562267519533634E-003
  -4.4999999999999901E-003     6.0864582657814026E-002
  -3.3999999999999864E-003     2.5846280157566071E-002
  -2.2999999999999826E-003    -4.0932033210992813E-002
  -1.1999999999999927E-003    -3.9890728890895844E-002
  -9.9999999999988987E-005     1.9054584205150604E-002
   1.0000000000000148E-003     3.7979681044816971E-002
   2.1000000000000185E-003    -1.1383621953427792E-002
   3.2000000000000084E-003    -5.2549593150615692E-002
   4.3000000000000121E-003    -1.6809327527880669E-002
   5.4000000000000159E-003     4.0719684213399887E-002
   6.5000000000000058E-003     2.6115920394659042E-002
   7.6000000000000234E-003    -4.4811066240072250E-002
   8.7000000000000133E-003    -6.3765458762645721E-002
   9.8000000000000032E-003    -4.0828005876392126E-004
   1.0900000000000021E-002     4.9611039459705353E-002
   1.2000000000000011E-002     1.3051698915660381E-002
   1.3100000000000001E-002    -5.5107064545154572E-002
   1.4200000000000018E-002    -5.2283540368080139E-002
   1.5300000000000008E-002     1.2307837605476379E-002
   1.6400000000000026E-002     3.9823781698942184E-002
   1.7500000000000016E-002    -6.6128163598477840E-003
   1.8600000000000005E-002    -5.0244864076375961E-002
   1.9700000000000023E-002    -2.3779787123203278E-002
   2.0800000000000013E-002     2.8682265430688858E-002
   2.1900000000000003E-002     2.6883265003561974E-002
   2.3000000000000020E-002    -2.2893805056810379E-002
   2.4100000000000010E-002    -3.8287863135337830E-002
   2.5200000000000000E-002     4.8135397955775261E-003
   2.6300000000000018E-002     4.0421541780233383E-002
   2.7400000000000008E-002     1.3326998800039291E-002
   2.8500000000000025E-002    -2.9545720666646957E-002
   2.9600000000000015E-002    -1.9770173355937004E-002
   3.0700000000000005E-002     2.8714593499898911E-002
   3.1800000000000023E-002     4.3508660048246384E-002
   3.2900000000000013E-002     4.4280146248638630E-003
   3.4000000000000002E-002    -2.9107376933097839E-002
   3.5100000000000020E-002    -4.7881384380161762E-003
   3.6200000000000010E-002     3.9231140166521072E-002
   3.7300000000000028E-002     3.2817628234624863E-002
   3.8400000000000017E-002    -6.7930226214230061E-003
   3.9500000000000007E-002    -1.8230987712740898E-002
   4.0600000000000025E-002     1.4788566157221794E-002
   4.1700000000000015E-002     3.1774707138538361E-002
   4.2800000000000005E-002     1.3389531522989273E-002
   4.3900000000000022E-002    -1.4678696170449257E-002
   4.5000000000000012E-002    -2.7873187791556120E-003
   4.6100000000000002E-002     2.5091195479035378E-002
   4.7200000000000020E-002     1.9638242200016975E-002
   4.8300000000000010E-002    -1.0555543936789036E-002
   4.9400000000000027E-002    -1.6009569168090820E-002
   5.0500000000000017E-002     4.6478267759084702E-003
   5.1600000000000007E-002     1.6719177365303040E-002
   5.2700000000000025E-002     2.6989323087036610E-003
   5.3800000000000014E-002    -1.4249589294195175E-002
   5.4900000000000004E-002    -4.8020957037806511E-003
   5.6000000000000022E-002     9.6188643947243690E-003
   5.7100000000000012E-002     7.7968661207705736E-004
   5.8200000000000002E-002    -1.8289839848875999E-002
   5.9300000000000019E-002    -1.1957845650613308E-002
   6.0400000000000009E-002     1.0388890281319618E-002
   6.1500000000000027E-002     1.0534943081438541E-002
   6.2600000000000017E-002    -1.5871802344918251E-002
   6.3700000000000007E-002    -2.6335414499044418E-002
   6.4800000000000024E-002    -2.7158318553119898E-003
   6.5900000000000014E-002     1.8606411293148994E-002
   6.7000000000000004E-002     1.8944547045975924E-003
   6.8100000000000022E-002    -2.4665409699082375E-002
   6.9200000000000012E-002    -1.5603775158524513E-002
   7.0300000000000029E-002     1.7788972705602646E-002
   7.1400000000000019E-002     1.8843824043869972E-002
   7.2500000000000009E-002    -1.9812243059277534E-002
   7.3600000000000027E-002    -3.7519343197345734E-002
   7.4700000000000016E-002    -3.7171784788370132E-004
   7.5800000000000006E-002     3.9775554090738297E-002
   7.6900000000000024E-002     2.0626386627554893E-002
   7.8000000000000014E-002    -3.1303726136684418E-002
   7.9100000000000004E-002    -3.6696907132863998E-002
   8.0200000000000021E-002     1.3171874918043613E-002
   8.1300000000000011E-002     4.0083512663841248E-002
   8.2400000000000029E-002     2.7358708903193474E-003
   8.3500000000000019E-002    -3.7141777575016022E-002
   8.4600000000000009E-002    -1.1909228749573231E-002
   8.5700000000000026E-002     3.9947908371686935E-002
   8.6800000000000016E-002     3.0296841636300087E-002
   8.7900000000000006E-002    -3.4679688513278961E-002
   8.9000000000000024E-002    -5.2802227437496185E-002
   9.0100000000000013E-002     1.3420579954981804E-002
   9.1200000000000003E-002     7.0443578064441681E-002
   9.2300000000000021E-002     2.9013605788350105E-002
   9.3400000000000011E-002    -5.5736161768436432E-002
   9.4500000000000028E-002    -5.9697587043046951E-002
   9.5600000000000018E-002     2.3095391690731049E-002
   9.6700000000000008E-002     6.8312473595142365E-002
   9.7800000000000026E-002     1.1718465946614742E-002
   9.8900000000000016E-002    -5.4878078401088715E-002
  0.10000000000000001         -2.9061488807201385E-002
  0.10110000000000002          4.3257474899291992E-002
  0.10220000000000001          4.1633218526840210E-002
  0.10330000000000003         -3.4501492977142334E-002
  0.10440000000000002         -6.0098811984062195E-002
  0.10550000000000001          1.5764286741614342E-002
  0.10660000000000003          7.9675152897834778E-002
  0.10770000000000002          2.4738265201449394E-002
  0.10880000000000001         -7.5180344283580780E-002
  0.10990000000000003         -6.9638602435588837E-002
  0.11100000000000002          3.8465794175863266E-002
  0.11210000000000001          9.0748019516468048E-002
  0.11320000000000002          9.9912974983453751E-003
  0.11430000000000001         -8.1313461065292358E-002
  0.11540000000000003         -4.6663284301757812E-002
  0.11650000000000002          5.6031346321105957E-002
  0.11760000000000001          6.6214844584465027E-002
  0.11870000000000003         -3.0014896765351295E-002
  0.11980000000000002         -7.8312113881111145E-002
  0.12090000000000001          3.8812341517768800E-004
  0.12200000000000003          8.3746597170829773E-002
  0.12310000000000001          3.7630178034305573E-002
  0.12420000000000003         -7.2009012103080750E-002
  0.12530000000000002         -7.5590558350086212E-002
  0.12640000000000001          3.6345221102237701E-002
  0.12750000000000003          9.4781920313835144E-002
  0.12860000000000002          1.0399490594863892E-002
  0.12970000000000001         -8.8104620575904846E-002
  0.13080000000000003         -5.0686664879322052E-002
  0.13190000000000002          6.2850914895534515E-002
  0.13300000000000001          7.6025791466236115E-002
  0.13410000000000000         -3.0911445617675781E-002
  0.13520000000000004         -8.9578807353973389E-002
  0.13630000000000003         -5.9248595498502254E-003
  0.13740000000000002          9.1586939990520477E-002
  0.13850000000000001          4.9127798527479172E-002
  0.13960000000000000         -7.2377152740955353E-002
  0.14070000000000005         -8.7637804448604584E-002
  0.14180000000000004          2.8594909235835075E-002
  0.14290000000000003         0.10159175097942352     
  0.14400000000000002          2.2561378777027130E-002
  0.14510000000000001         -8.6122862994670868E-002
  0.14620000000000000         -6.0786686837673187E-002
  0.14730000000000004          5.4296467453241348E-002
  0.14840000000000003          7.9951733350753784E-002
  0.14950000000000002         -1.9968237727880478E-002
  0.15060000000000001         -8.5797667503356934E-002
  0.15170000000000000         -1.3404496014118195E-002
  0.15280000000000005          8.3228096365928650E-002
  0.15390000000000004          5.0135623663663864E-002
  0.15500000000000003         -6.5127693116664886E-002
  0.15610000000000002         -8.4733322262763977E-002
  0.15720000000000001          2.4730261415243149E-002
  0.15830000000000000          9.8868131637573242E-002
  0.15940000000000004          2.6080239564180374E-002
  0.16050000000000003         -8.2802176475524902E-002
  0.16160000000000002         -6.5063968300819397E-002
  0.16270000000000001          4.7413155436515808E-002
  0.16380000000000000          8.1863284111022949E-002
  0.16490000000000005         -9.6130501478910446E-003
  0.16600000000000004         -8.1580236554145813E-002
  0.16710000000000003         -2.3779779672622681E-002
  0.16820000000000002          7.0573203265666962E-002
  0.16930000000000001          5.3229138255119324E-002
  0.17040000000000000         -4.8562522977590561E-002
  0.17150000000000004         -7.6125465333461761E-002
  0.17260000000000003          1.4109247364103794E-002
  0.17370000000000002          8.3924330770969391E-002
  0.17480000000000001          2.6742516085505486E-002
  0.17590000000000000         -6.9796763360500336E-002
  0.17700000000000005         -6.0217324644327164E-002
  0.17810000000000004          3.7623677402734756E-002
  0.17920000000000003          7.4293017387390137E-002
  0.18030000000000002         -1.5545268543064594E-003
  0.18140000000000001         -6.9703020155429840E-002
  0.18250000000000000         -2.7388932183384895E-002
  0.18360000000000004          5.5240575224161148E-002
  0.18470000000000003          4.9131188541650772E-002
  0.18580000000000002         -3.4025520086288452E-002
  0.18690000000000001         -6.3840754330158234E-002
  0.18800000000000000          5.3195469081401825E-003
  0.18910000000000005          6.6105872392654419E-002
  0.19020000000000004          2.5853458791971207E-002
  0.19130000000000003         -5.2368484437465668E-002
  0.19240000000000002         -4.9683775752782822E-002
  0.19350000000000001          2.7083700522780418E-002
  0.19460000000000005          5.9919275343418121E-002
  0.19570000000000004          1.6910629346966743E-003
  0.19680000000000003         -5.6014981120824814E-002
  0.19790000000000002         -2.6821549981832504E-002
  0.19900000000000001          4.0862198919057846E-002
  0.20010000000000000          4.3335940688848495E-002
  0.20120000000000005         -1.9552266225218773E-002
  0.20230000000000004         -4.9466334283351898E-002
  0.20340000000000003         -2.9217239934951067E-003
  0.20450000000000002          4.5975901186466217E-002
  0.20560000000000000          2.3331666365265846E-002
  0.20670000000000005         -3.3247940242290497E-002
  0.20780000000000004         -3.7366915494203568E-002
  0.20890000000000003          1.3595278374850750E-002
