 -0.12000000000000000          0.0000000000000000
 -0.11889999999999999          0.0000000000000000
 -0.11780000000000000          0.0000000000000000
 -0.11670000000000000          1.2546758770826116E-011
 -0.11559999999999999          1.3697731317263706E-011
 -0.11449999999999999         -3.8519867850972389E-011
 -0.11340000000000000         -6.0436995685808625E-011
 -0.11230000000000000          8.1728110390422160E-011
 -0.11119999999999999          2.1664800509135773E-010
 -0.11009999999999999         -3.4040520402456309E-011
 -0.10900000000000000         -4.8208020908546700E-010
 -0.10790000000000000         -2.7206739638963029E-010
 -0.10679999999999999          7.1667333179092907E-010
 -0.10569999999999999          1.0246075099473728E-009
 -0.10460000000000000         -4.2161327207246302E-010
 -0.10349999999999999         -1.8818469005310590E-009
 -0.10239999999999999         -6.0493304809838833E-010
 -0.10130000000000000          2.4258632880247433E-009
 -0.10020000000000000          2.5024633476533609E-009
  -9.9099999999999994E-002    -1.8537349433245254E-009
  -9.7999999999999990E-002    -4.8300936583700604E-009
  -9.6899999999999986E-002    -6.5601452048369424E-010
  -9.5799999999999996E-002     6.4043979008943097E-009
  -9.4699999999999993E-002     5.8165903205065206E-009
  -9.3599999999999989E-002    -3.7803542518588529E-009
  -9.2499999999999999E-002    -9.8755226218827374E-009
  -9.1399999999999995E-002    -2.5646764711950709E-009
  -9.0299999999999991E-002     9.5434833369267835E-009
  -8.9200000000000002E-002     9.3253555988326298E-009
  -8.8099999999999984E-002    -4.2170933411966871E-009
  -8.6999999999999994E-002    -1.2694451712036425E-008
  -8.5899999999999990E-002    -3.9121137440645271E-009
  -8.4799999999999986E-002     9.9854693402789962E-009
  -8.3699999999999997E-002     9.7387582442820531E-009
  -8.2599999999999993E-002    -2.9504489962306479E-009
  -8.1499999999999989E-002    -8.7991152142308238E-009
  -8.0399999999999999E-002    -8.1158801901182187E-010
  -7.9299999999999995E-002     5.8462172880524577E-009
  -7.8199999999999992E-002    -3.1192631810839089E-010
  -7.7100000000000002E-002    -7.3376624776244626E-009
  -7.5999999999999984E-002     2.8308616301792044E-012
  -7.4899999999999994E-002     1.1607000693913960E-008
  -7.3799999999999991E-002     4.7745229991846827E-009
  -7.2699999999999987E-002    -1.6707840444496469E-008
  -7.1599999999999997E-002    -2.0920076337915816E-008
  -7.0499999999999993E-002     5.0188337930023863E-009
  -6.9399999999999989E-002     2.8315882971696738E-008
  -6.8300000000000000E-002     1.2549780770143570E-008
  -6.7199999999999996E-002    -2.6888091753107801E-008
  -6.6099999999999992E-002    -3.8675427305179255E-008
  -6.5000000000000002E-002    -6.8517880258411878E-009
  -6.3899999999999985E-002     2.4598872272463268E-008
  -6.2799999999999995E-002     1.2649416625265530E-008
  -6.1699999999999991E-002    -2.5253019231286089E-008
  -6.0599999999999994E-002    -3.9295365183988906E-008
  -5.9499999999999990E-002    -1.9401529272045082E-008
  -5.8399999999999994E-002    -3.7846548117670409E-009
  -5.7299999999999990E-002    -1.5916727491571692E-008
  -5.6199999999999986E-002    -3.1367484609745588E-008
  -5.5099999999999996E-002    -2.4943410892319662E-008
  -5.3999999999999992E-002    -1.7685550801616046E-008
  -5.2899999999999989E-002    -4.2288782253763202E-008
  -5.1799999999999985E-002    -8.0341955310814228E-008
  -5.0699999999999995E-002    -7.9854267198697926E-008
  -4.9599999999999991E-002    -3.7847271983082464E-008
  -4.8499999999999988E-002    -1.9369270631841573E-008
  -4.7399999999999998E-002    -6.9010319236895157E-008
  -4.6299999999999994E-002    -1.3945280841198837E-007
  -4.5199999999999990E-002    -1.5015815790775378E-007
  -4.4099999999999986E-002    -1.0029148711510061E-007
  -4.2999999999999997E-002    -7.1687829006350512E-008
  -4.1899999999999993E-002    -1.1476137018462396E-007
  -4.0799999999999989E-002    -1.8229856380003184E-007
  -3.9699999999999985E-002    -2.0372576159388700E-007
  -3.8599999999999995E-002    -1.8460244177731511E-007
  -3.7499999999999992E-002    -1.8543616420174658E-007
  -3.6399999999999988E-002    -2.2230497620512324E-007
  -3.5299999999999984E-002    -2.4799805942166131E-007
  -3.4199999999999994E-002    -2.3905244006527937E-007
  -3.3099999999999991E-002    -2.4092483386084496E-007
  -3.1999999999999987E-002    -2.9333139650589146E-007
  -3.0899999999999997E-002    -3.5265833275843761E-007
  -2.9799999999999993E-002    -3.4704220297498978E-007
  -2.8699999999999989E-002    -2.9030539394625521E-007
  -2.7599999999999986E-002    -2.7538075642041804E-007
  -2.6499999999999996E-002    -3.4227500123051868E-007
  -2.5399999999999992E-002    -4.1535869854669727E-007
  -2.4299999999999988E-002    -4.0568372128291230E-007
  -2.3199999999999985E-002    -3.3609487104513391E-007
  -2.2099999999999995E-002    -3.0279736051852524E-007
  -2.0999999999999991E-002    -3.3613125083320483E-007
  -1.9899999999999987E-002    -3.6668606639977952E-007
  -1.8799999999999983E-002    -3.3409000366191322E-007
  -1.7699999999999994E-002    -2.7583018891164102E-007
  -1.6599999999999990E-002    -2.5712844831105031E-007
  -1.5499999999999986E-002    -2.6044691026072542E-007
  -1.4399999999999996E-002    -2.1625507429234858E-007
  -1.3299999999999992E-002    -1.2172175445357425E-007
  -1.2199999999999989E-002    -5.4133874272110916E-008
  -1.1099999999999985E-002    -5.2661956573274438E-008
  -9.9999999999999950E-003    -4.7405556813373551E-008
  -8.8999999999999913E-003     4.2232372265971208E-008
  -7.7999999999999875E-003     1.8400649537397840E-007
  -6.6999999999999837E-003     2.7566824201130657E-007
  -5.5999999999999939E-003     2.9009027002757648E-007
  -4.4999999999999901E-003     3.1604255923411984E-007
  -3.3999999999999864E-003     4.1679197693156311E-007
  -2.2999999999999826E-003     5.4748738875787240E-007
  -1.1999999999999927E-003     6.2426920521829743E-007
  -9.9999999999988987E-005     6.5609532384769409E-007
   1.0000000000000148E-003     7.1537823487233254E-007
   2.1000000000000185E-003     8.1704649801395135E-007
   3.2000000000000084E-003     8.9733975983108394E-007
   4.3000000000000121E-003     9.1691759962486685E-007
   5.4000000000000159E-003     9.2504137683135923E-007
   6.5000000000000058E-003     9.8540897397469962E-007
   7.6000000000000234E-003     1.0665189620340243E-006
   8.7000000000000133E-003     1.0865403510251781E-006
   9.8000000000000032E-003     1.0367760978624574E-006
   1.0900000000000021E-002     9.9839064660045551E-007
   1.2000000000000011E-002     1.0178192724197288E-006
   1.3100000000000001E-002     1.0389496765128570E-006
   1.4200000000000018E-002     9.9021121968689840E-007
   1.5300000000000008E-002     8.8942442744155414E-007
   1.6400000000000026E-002     8.1265488915960304E-007
   1.7500000000000016E-002     7.7591232638951624E-007
   1.8600000000000005E-002     7.1897363795869751E-007
   1.9700000000000023E-002     6.0397758261387935E-007
   2.0800000000000013E-002     4.7346563292194332E-007
   2.1900000000000003E-002     3.8181974559847731E-007
   2.3000000000000020E-002     3.1095208896658733E-007
   2.4100000000000010E-002     2.0242516995949700E-007
   2.5200000000000000E-002     5.3774915187432271E-008
   2.6300000000000018E-002    -7.4697894092423667E-008
   2.7400000000000008E-002    -1.5477158399335167E-007
   2.8500000000000025E-002    -2.3038049334900279E-007
   2.9600000000000015E-002    -3.4873141885327641E-007
   3.0700000000000005E-002    -4.8253531303998898E-007
   3.1800000000000023E-002    -5.7459510571788996E-007
   3.2900000000000013E-002    -6.1723687849735143E-007
   3.4000000000000002E-002    -6.6378277097101090E-007
   3.5100000000000020E-002    -7.4324293564131949E-007
   3.6200000000000010E-002    -8.1973030319204554E-007
   3.7300000000000028E-002    -8.4621410678664688E-007
   3.8400000000000017E-002    -8.4290365975903114E-007
   3.9500000000000007E-002    -8.5440768771150033E-007
   4.0600000000000025E-002    -8.7922688862818177E-007
   4.1700000000000015E-002    -8.7562267481189338E-007
   4.2800000000000005E-002    -8.2997866002187948E-007
   4.3900000000000022E-002    -7.8776730561003205E-007
   4.5000000000000012E-002    -7.7448163438020856E-007
   4.6100000000000002E-002    -7.5085375783601194E-007
   4.7200000000000020E-002    -6.8350863102750736E-007
   4.8300000000000010E-002    -5.9443868849484716E-007
   4.9400000000000027E-002    -5.2780325177081977E-007
   5.0500000000000017E-002    -4.8732647428550990E-007
   5.1600000000000007E-002    -4.3388030235291808E-007
   5.2700000000000025E-002    -3.4974465279447031E-007
   5.3800000000000014E-002    -2.6418416609885753E-007
   5.4900000000000004E-002    -2.0808816714179557E-007
   5.6000000000000022E-002    -1.6006701741844154E-007
   5.7100000000000012E-002    -9.1183039785391884E-008
   5.8200000000000002E-002    -1.5383697871129698E-008
   5.9300000000000019E-002     3.1814405332397655E-008
   6.0400000000000009E-002     5.3082072071219955E-008
   6.1500000000000027E-002     8.6109643859799689E-008
   6.2600000000000017E-002     1.4859148222967633E-007
   6.3700000000000007E-002     2.0311692594532360E-007
   6.4800000000000024E-002     2.1620427048674173E-007
   6.5900000000000014E-002     2.0811589251934492E-007
   6.7000000000000004E-002     2.1846325637397968E-007
   6.8100000000000022E-002     2.4628641881463409E-007
   6.9200000000000012E-002     2.5449699592172692E-007
   7.0300000000000029E-002     2.3643769964110106E-007
   7.1400000000000019E-002     2.2849211234188260E-007
   7.2500000000000009E-002     2.4632282702441444E-007
   7.3600000000000027E-002     2.5149066118501651E-007
   7.4700000000000016E-002     2.1070948719170701E-007
   7.5800000000000006E-002     1.5825719401618699E-007
   7.6900000000000024E-002     1.5163429623044067E-007
   7.8000000000000014E-002     1.8245054889121093E-007
   7.9100000000000004E-002     1.8316828231945692E-007
   8.0200000000000021E-002     1.2740134991418017E-007
   8.1300000000000011E-002     6.9789876988579636E-008
   8.2400000000000029E-002     6.4701524138399691E-008
   8.3500000000000019E-002     8.6403069587959180E-008
   8.4600000000000009E-002     7.3843793302330596E-008
   8.5700000000000026E-002     2.9830061976099387E-008
   8.6800000000000016E-002     1.1538030975088986E-008
   8.7900000000000006E-002     3.2127850602137187E-008
   8.9000000000000024E-002     3.4230343004537644E-008
   9.0100000000000013E-002    -1.5801980168816954E-008
   9.1200000000000003E-002    -6.2417214508059260E-008
   9.2300000000000021E-002    -4.0814665425159546E-008
   9.3400000000000011E-002     1.7302790311646277E-008
   9.4500000000000028E-002     2.1787155191077545E-008
   9.5600000000000018E-002    -4.2476116846046352E-008
   9.6700000000000008E-002    -8.9560060700932809E-008
   9.7800000000000026E-002    -5.8024173910098398E-008
   9.8900000000000016E-002    -2.5429982564162401E-009
  0.10000000000000001         -7.5452923908869707E-009
  0.10110000000000002         -5.7188753288528460E-008
  0.10220000000000001         -6.6324503222858766E-008
  0.10330000000000003         -1.7330059165487910E-008
  0.10440000000000002          9.3916519006143062E-009
  0.10550000000000001         -3.4217876532238733E-008
  0.10660000000000003         -8.0920266043449374E-008
  0.10770000000000002         -4.8215383685601410E-008
  0.10880000000000001          2.6740851311046754E-008
  0.10990000000000003          3.5239651197116473E-008
  0.11100000000000002         -3.7125058582887505E-008
  0.11210000000000001         -8.3506087378282245E-008
  0.11320000000000002         -3.4715601060497647E-008
  0.11430000000000001          3.6797171532043649E-008
  0.11540000000000003          2.8525946049740014E-008
  0.11650000000000002         -3.6872641828722408E-008
  0.11760000000000001         -5.1055106808917117E-008
  0.11870000000000003          8.7077669519430856E-009
  0.11980000000000002          4.4311239122407642E-008
  0.12090000000000001         -5.1325446115413342E-009
  0.12200000000000003         -6.2827524516251287E-008
  0.12310000000000001         -3.0966763375772643E-008
  0.12420000000000003          5.1658503252838273E-008
  0.12530000000000002          6.2342799367343105E-008
  0.12640000000000001         -1.8671528323466191E-008
  0.12750000000000003         -7.3099812425425625E-008
  0.12860000000000002         -2.2026569013178232E-008
  0.12970000000000001          5.5444541402493996E-008
  0.13080000000000003          4.4244668373494278E-008
  0.13190000000000002         -3.1629078023343027E-008
  0.13300000000000001         -5.0280842600614051E-008
  0.13410000000000000          1.6838685112929852E-008
  0.13520000000000004          6.0754693720355135E-008
  0.13630000000000003          8.1916189387243321E-009
  0.13740000000000002         -6.0618660313593864E-008
  0.13850000000000001         -3.4889211519839591E-008
  0.13960000000000000          5.1747793605727566E-008
  0.14070000000000005          6.7820295157616783E-008
  0.14180000000000004         -1.5401676378701268E-008
  0.14290000000000003         -7.7026363953791588E-008
  0.14400000000000002         -2.7769218036155507E-008
  0.14510000000000001          5.6647834867362690E-008
  0.14620000000000000          5.2915794412911055E-008
  0.14730000000000004         -2.4385212071820206E-008
  0.14840000000000003         -5.2245567871977983E-008
  0.14950000000000002          7.3342376616380989E-009
  0.15060000000000001          5.2552032059338671E-008
  0.15170000000000000          6.4550973455368421E-009
  0.15280000000000005         -5.8576915762387216E-008
  0.15390000000000004         -3.4199285181557570E-008
  0.15500000000000003          5.0140744889404232E-008
  0.15610000000000002          6.6461204539791652E-008
  0.15720000000000001         -1.5589460389264786E-008
  0.15830000000000000         -7.7678869558894803E-008
  0.15940000000000004         -2.8735206214491882E-008
  0.16050000000000003          5.8838395489146933E-008
  0.16160000000000002          5.8974350736207271E-008
  0.16270000000000001         -2.1024925800361416E-008
  0.16380000000000000         -5.8556803850251526E-008
  0.16490000000000005         -4.3241508151936614E-009
  0.16600000000000004          4.9260151513408346E-008
  0.16710000000000003          1.8077871644095467E-008
  0.16820000000000002         -4.3505512081765119E-008
  0.16930000000000001         -3.2888774370576357E-008
  0.17040000000000000          3.6533499780944112E-008
  0.17150000000000004          5.4712526065259226E-008
  0.17260000000000003         -1.2018233519484056E-008
  0.17370000000000002         -6.5392342207815091E-008
  0.17480000000000001         -2.4068793180731518E-008
  0.17590000000000000          5.1589793770290271E-008
  0.17700000000000005          5.0486335112509551E-008
  0.17810000000000004         -2.2308233482704054E-008
  0.17920000000000003         -5.6750639743086140E-008
  0.18030000000000002         -5.5289226530419455E-009
  0.18140000000000001          4.8740556479742736E-008
  0.18250000000000000          2.4518822527852535E-008
  0.18360000000000004         -3.5586982249924404E-008
  0.18470000000000003         -3.6217119969705891E-008
  0.18580000000000002          2.1769794855686087E-008
  0.18690000000000001          4.5288270911214568E-008
  0.18800000000000000         -4.2501868691147138E-009
  0.18910000000000005         -5.1218126628782557E-008
  0.19020000000000004         -2.3201733867495022E-008
  0.19130000000000003          3.7868687741138274E-008
  0.19240000000000002          4.1051297472449733E-008
  0.19350000000000001         -1.5325612778838149E-008
  0.19460000000000005         -4.4137404842103933E-008
  0.19570000000000004         -3.9081196057111356E-009
  0.19680000000000003          4.0902186526636797E-008
  0.19790000000000002          2.2050802073181330E-008
  0.19900000000000001         -2.9047171778984193E-008
  0.20010000000000000         -3.3351319927987788E-008
  0.20120000000000005          1.3538281606884084E-008
  0.20230000000000004          3.7392688057025225E-008
  0.20340000000000003          1.2350331868304920E-009
  0.20450000000000002         -3.9138583929343440E-008
  0.20560000000000000         -2.2621847506343329E-008
  0.20670000000000005          2.4781011020991173E-008
  0.20780000000000004          3.2303798747079782E-008
  0.20890000000000003         -7.8593123120640485E-009
