 -0.12000000000000000          0.0000000000000000
 -0.11889999999999999          0.0000000000000000
 -0.11780000000000000         -2.8803398555155013E-010
 -0.11670000000000000         -3.7413219744486526E-010
 -0.11559999999999999          3.5014199872840379E-010
 -0.11449999999999999          9.4073016043694224E-010
 -0.11340000000000000          9.4344004830659856E-011
 -0.11230000000000000         -1.0913597803252628E-009
 -0.11119999999999999         -5.3994958504333113E-010
 -0.11009999999999999          4.0800537948193494E-010
 -0.10900000000000000         -1.7057472101456028E-009
 -0.10790000000000000         -5.1608433082606098E-009
 -0.10679999999999999         -2.5409692128164352E-009
 -0.10569999999999999          7.8289570382139573E-009
 -0.10460000000000000          1.4875282339232854E-008
 -0.10349999999999999          7.4609012301607436E-009
 -0.10239999999999999         -7.8669240011208785E-009
 -0.10130000000000000         -1.2319269160343538E-008
 -0.10020000000000000         -5.1220849783817357E-010
  -9.9099999999999994E-002     1.0257104499089564E-008
  -9.7999999999999990E-002     3.9316976341297050E-009
  -9.6899999999999986E-002    -1.0295769570234370E-008
  -9.5799999999999996E-002    -1.0654827242717602E-008
  -9.4699999999999993E-002     4.9943960078735472E-009
  -9.3599999999999989E-002     1.5762271488029000E-008
  -9.2499999999999999E-002     8.8266656206315020E-009
  -9.1399999999999995E-002    -2.6693327548343859E-009
  -9.0299999999999991E-002    -2.5358068977965331E-009
  -8.9200000000000002E-002     1.5049547164025512E-009
  -8.8099999999999984E-002    -9.5547294520770265E-009
  -8.6999999999999994E-002    -3.3973915236629182E-008
  -8.5899999999999990E-002    -5.0857114075597565E-008
  -8.4799999999999986E-002    -5.4564850415772526E-008
  -8.3699999999999997E-002    -6.5483156674872589E-008
  -8.2599999999999993E-002    -9.6674341421021381E-008
  -8.1499999999999989E-002    -1.2998641807371314E-007
  -8.0399999999999999E-002    -1.4490642286091315E-007
  -7.9299999999999995E-002    -1.5748256032566132E-007
  -7.8199999999999992E-002    -2.0287137658669963E-007
  -7.7100000000000002E-002    -2.8165871412966226E-007
  -7.5999999999999984E-002    -3.5502640116646944E-007
  -7.4899999999999994E-002    -4.0535360312787816E-007
  -7.3799999999999991E-002    -4.7339014486169617E-007
  -7.2699999999999987E-002    -6.0896633158336044E-007
  -7.1599999999999997E-002    -8.0216420883516548E-007
  -7.0499999999999993E-002    -9.9893850347143598E-007
  -6.9399999999999989E-002    -1.1834122233267408E-006
  -6.8300000000000000E-002    -1.4076350680625183E-006
  -6.7199999999999996E-002    -1.7256284081668127E-006
  -6.6099999999999992E-002    -2.1305838799889898E-006
  -6.5000000000000002E-002    -2.5860933874355396E-006
  -6.3899999999999985E-002    -3.0978658287494909E-006
  -6.2799999999999995E-002    -3.7148834053368773E-006
  -6.1699999999999991E-002    -4.4658104343398008E-006
  -6.0599999999999994E-002    -5.3392113841255195E-006
  -5.9499999999999990E-002    -6.3407364905287977E-006
  -5.8399999999999994E-002    -7.5280327109794598E-006
  -5.7299999999999990E-002    -8.9556288003223017E-006
  -5.6199999999999986E-002    -1.0613592166919261E-005
  -5.5099999999999996E-002    -1.2469089597288985E-005
  -5.3999999999999992E-002    -1.4562010619556531E-005
  -5.2899999999999989E-002    -1.7006905181915499E-005
  -5.1799999999999985E-002    -1.9883864297298715E-005
  -5.0699999999999995E-002    -2.3173781301011331E-005
  -4.9599999999999991E-002    -2.6839208658202551E-005
  -4.8499999999999988E-002    -3.0936942494008690E-005
  -4.7399999999999998E-002    -3.5597320675151423E-005
  -4.6299999999999994E-002    -4.0901679312810302E-005
  -4.5199999999999990E-002    -4.6839279093546793E-005
  -4.4099999999999986E-002    -5.3402578487293795E-005
  -4.2999999999999997E-002    -6.0669895901810378E-005
  -4.1899999999999993E-002    -6.8749301135540009E-005
  -4.0799999999999989E-002    -7.7678938396275043E-005
  -3.9699999999999985E-002    -8.7439038907177746E-005
  -3.8599999999999995E-002    -9.8054588306695223E-005
  -3.7499999999999992E-002    -1.0961812949972227E-004
  -3.6399999999999988E-002    -1.2218955089338124E-004
  -3.5299999999999984E-002    -1.3573023898061365E-004
  -3.4199999999999994E-002    -1.5017796249594539E-004
  -3.3099999999999991E-002    -1.6554954345338047E-004
  -3.1999999999999987E-002    -1.8190105038229376E-004
  -3.0899999999999997E-002    -1.9920022168662399E-004
  -2.9799999999999993E-002    -2.1730444859713316E-004
  -2.8699999999999989E-002    -2.3608304036315531E-004
  -2.7599999999999986E-002    -2.5549545534886420E-004
  -2.6499999999999996E-002    -2.7549968217499554E-004
  -2.5399999999999992E-002    -2.9592090868391097E-004
  -2.4299999999999988E-002    -3.1648448202759027E-004
  -2.3199999999999985E-002    -3.3696304308250546E-004
  -2.2099999999999995E-002    -3.5721459425985813E-004
  -2.0999999999999991E-002    -3.7705618888139725E-004
  -1.9899999999999987E-002    -3.9616250433027744E-004
  -1.8799999999999983E-002    -4.1414241422899067E-004
  -1.7699999999999994E-002    -4.3067528167739511E-004
  -1.6599999999999990E-002    -4.4549690210260451E-004
  -1.5499999999999986E-002    -4.5828154543414712E-004
  -1.4399999999999996E-002    -4.6860022121109068E-004
  -1.3299999999999992E-002    -4.7602364793419838E-004
  -1.2199999999999989E-002    -4.8021972179412842E-004
  -1.1099999999999985E-002    -4.8088253242895007E-004
  -9.9999999999999950E-003    -4.7762415488250554E-004
  -8.8999999999999913E-003    -4.7001498751342297E-004
  -7.7999999999999875E-003    -4.5772135490551591E-004
  -6.6999999999999837E-003    -4.4053656165488064E-004
  -5.5999999999999939E-003    -4.1827061795629561E-004
  -4.4999999999999901E-003    -3.9066385943442583E-004
  -3.3999999999999864E-003    -3.5747891524806619E-004
  -2.2999999999999826E-003    -3.1863345066085458E-004
  -1.1999999999999927E-003    -2.7419862453825772E-004
  -9.9999999999988987E-005    -2.2426752548199147E-004
   1.0000000000000148E-003    -1.6890499682631344E-004
   2.1000000000000185E-003    -1.0825994831975549E-004
   3.2000000000000084E-003    -4.2665622459026054E-005
   4.3000000000000121E-003     2.7419109756010585E-005
   5.4000000000000159E-003     1.0152765753446147E-004
   6.5000000000000058E-003     1.7919522360898554E-004
   7.6000000000000234E-003     2.5982200168073177E-004
   8.7000000000000133E-003     3.4263220732100308E-004
   9.8000000000000032E-003     4.2678514728322625E-004
   1.0900000000000021E-002     5.1148614147678018E-004
   1.2000000000000011E-002     5.9593823971226811E-004
   1.3100000000000001E-002     6.7922868765890598E-004
   1.4200000000000018E-002     7.6034059748053551E-004
   1.5300000000000008E-002     8.3828251808881760E-004
   1.6400000000000026E-002     9.1215100837871432E-004
   1.7500000000000016E-002     9.8106020595878363E-004
   1.8600000000000005E-002     1.0440779151394963E-003
   1.9700000000000023E-002     1.1002926621586084E-003
   2.0800000000000013E-002     1.1489249300211668E-003
   2.1900000000000003E-002     1.1893284972757101E-003
   2.3000000000000020E-002     1.2208975385874510E-003
   2.4100000000000010E-002     1.2430424103513360E-003
   2.5200000000000000E-002     1.2552997795864940E-003
   2.6300000000000018E-002     1.2574142310768366E-003
   2.7400000000000008E-002     1.2493012472987175E-003
   2.8500000000000025E-002     1.2309427838772535E-003
   2.9600000000000015E-002     1.2023762101307511E-003
   3.0700000000000005E-002     1.1637979187071323E-003
   3.1800000000000023E-002     1.1156039545312524E-003
   3.2900000000000013E-002     1.0583392577245831E-003
   3.4000000000000002E-002     9.9260616116225719E-004
   3.5100000000000020E-002     9.1908482136204839E-004
   3.6200000000000010E-002     8.3860481390729547E-004
   3.7300000000000028E-002     7.5210403883829713E-004
   3.8400000000000017E-002     6.6056655487045646E-004
   3.9500000000000007E-002     5.6497805053368211E-004
   4.0600000000000025E-002     4.6638763160444796E-004
   4.1700000000000015E-002     3.6591078969649971E-004
   4.2800000000000005E-002     2.6468877331353724E-004
   4.3900000000000022E-002     1.6380262968596071E-004
   4.5000000000000012E-002     6.4273102907463908E-005
   4.6100000000000002E-002    -3.2913696486502886E-005
   4.7200000000000020E-002    -1.2678894563578069E-004
   4.8300000000000010E-002    -2.1644958178512752E-004
   4.9400000000000027E-002    -3.0109405633993447E-004
   5.0500000000000017E-002    -3.8001808570697904E-004
   5.1600000000000007E-002    -4.5261383638717234E-004
   5.2700000000000025E-002    -5.1837577484548092E-004
   5.3800000000000014E-002    -5.7691219262778759E-004
   5.4900000000000004E-002    -6.2794453697279096E-004
   5.6000000000000022E-002    -6.7129713715985417E-004
   5.7100000000000012E-002    -7.0689455606043339E-004
   5.8200000000000002E-002    -7.3475798126310110E-004
   5.9300000000000019E-002    -7.5501104583963752E-004
   6.0400000000000009E-002    -7.6787720900028944E-004
   6.1500000000000027E-002    -7.7367038466036320E-004
   6.2600000000000017E-002    -7.7278102980926633E-004
   6.3700000000000007E-002    -7.6564680784940720E-004
   6.4800000000000024E-002    -7.5273419497534633E-004
   6.5900000000000014E-002    -7.3454377707093954E-004
   6.7000000000000004E-002    -7.1163877146318555E-004
   6.8100000000000022E-002    -6.8463553907349706E-004
   6.9200000000000012E-002    -6.5415090648457408E-004
   7.0300000000000029E-002    -6.2075571622699499E-004
   7.1400000000000019E-002    -5.8499386068433523E-004
   7.2500000000000009E-002    -5.4742663633078337E-004
   7.3600000000000027E-002    -5.0862669013440609E-004
   7.4700000000000016E-002    -4.6911934623494744E-004
   7.5800000000000006E-002    -4.2935786768794060E-004
   7.6900000000000024E-002    -3.8976129144430161E-004
   7.8000000000000014E-002    -3.5075045889243484E-004
   7.9100000000000004E-002    -3.1270866747945547E-004
   8.0200000000000021E-002    -2.7592381229624152E-004
   8.1300000000000011E-002    -2.4060720170382410E-004
   8.2400000000000029E-002    -2.0696829597000033E-004
   8.3500000000000019E-002    -1.7523473070468754E-004
   8.4600000000000009E-002    -1.4557431859429926E-004
   8.5700000000000026E-002    -1.1804052337538451E-004
   8.6800000000000016E-002    -9.2628506536129862E-005
   8.7900000000000006E-002    -6.9367444666568190E-005
   8.9000000000000024E-002    -4.8313409934053198E-005
   9.0100000000000013E-002    -2.9450246074702591E-005
   9.1200000000000003E-002    -1.2662020708376076E-005
   9.2300000000000021E-002     2.1743182969657937E-006
   9.3400000000000011E-002     1.5106733371794689E-005
   9.4500000000000028E-002     2.6168076146859676E-005
   9.5600000000000018E-002     3.5491229937179014E-005
   9.6700000000000008E-002     4.3288651795592159E-005
   9.7800000000000026E-002     4.9718462832970545E-005
   9.8900000000000016E-002     5.4826112318551168E-005
  0.10000000000000001          5.8662084484240040E-005
  0.10110000000000002          6.1393227952066809E-005
  0.10220000000000001          6.3235958805307746E-005
  0.10330000000000003          6.4310814195778221E-005
  0.10440000000000002          6.4640982600394636E-005
  0.10550000000000001          6.4289182773791254E-005
  0.10660000000000003          6.3421379309147596E-005
  0.10770000000000002          6.2190345488488674E-005
  0.10880000000000001          6.0625370679190382E-005
  0.10990000000000003          5.8708355936687440E-005
  0.11100000000000002          5.6521199439885095E-005
  0.11210000000000001          5.4231015383265913E-005
  0.11320000000000002          5.1924242143286392E-005
  0.11430000000000001          4.9543254135642201E-005
  0.11540000000000003          4.7031724534463137E-005
  0.11650000000000002          4.4476280891103670E-005
  0.11760000000000001          4.2027055314974859E-005
  0.11870000000000003          3.9714024751447141E-005
  0.11980000000000002          3.7438057916006073E-005
  0.12090000000000001          3.5149358154740185E-005
  0.12200000000000003          3.2940431992756203E-005
  0.12310000000000001          3.0914230592316017E-005
  0.12420000000000003          2.9032480597379617E-005
  0.12530000000000002          2.7184276405023411E-005
  0.12640000000000001          2.5367133275722153E-005
  0.12750000000000003          2.3696715288679115E-005
  0.12860000000000002          2.2226578948902898E-005
  0.12970000000000001          2.0857269191765226E-005
  0.13080000000000003          1.9480512492009439E-005
  0.13190000000000002          1.8141568943974562E-005
  0.13300000000000001          1.6966829207376577E-005
  0.13410000000000000          1.5965930288075469E-005
  0.13520000000000004          1.5011008144938387E-005
  0.13630000000000003          1.4025283235241659E-005
  0.13740000000000002          1.3091432265355252E-005
  0.13850000000000001          1.2313421393628232E-005
  0.13960000000000000          1.1647255632851738E-005
  0.14070000000000005          1.0963623935822397E-005
  0.14180000000000004          1.0244719305774197E-005
  0.14290000000000003          9.6091816885746084E-006
  0.14400000000000002          9.1231249825796112E-006
  0.14510000000000001          8.6895324784563854E-006
  0.14620000000000000          8.1891339505091310E-006
  0.14730000000000004          7.6576907304115593E-006
  0.14840000000000003          7.2279085543414112E-006
  0.14950000000000002          6.9241218625393230E-006
  0.15060000000000001          6.6244301706319675E-006
  0.15170000000000000          6.2451799749396741E-006
  0.15280000000000005          5.8631553656596225E-006
  0.15390000000000004          5.5892837735882495E-006
  0.15500000000000003          5.3937333177600522E-006
  0.15610000000000002          5.1522983994800597E-006
  0.15720000000000001          4.8398119361081626E-006
  0.15830000000000000          4.5686892917728983E-006
  0.15940000000000004          4.4125044951215386E-006
  0.16050000000000003          4.2886049413937144E-006
  0.16160000000000002          4.0822515074978583E-006
  0.16270000000000001          3.8210682760109194E-006
  0.16380000000000000          3.6316403111413820E-006
  0.16490000000000005          3.5459745504340390E-006
  0.16600000000000004          3.4539782518550055E-006
  0.16710000000000003          3.2721054594730958E-006
  0.16820000000000002          3.0668343242723495E-006
  0.16930000000000001          2.9472842015820788E-006
  0.17040000000000000          2.8969325285288505E-006
  0.17150000000000004          2.8032930003973888E-006
  0.17260000000000003          2.6343348054069793E-006
  0.17370000000000002          2.4861633391992655E-006
  0.17480000000000001          2.4304474663949804E-006
  0.17590000000000000          2.4013418169488432E-006
  0.17700000000000005          2.2964893560128985E-006
  0.17810000000000004          2.1349333110265434E-006
  0.17920000000000003          2.0279769614717225E-006
  0.18030000000000002          2.0091240457986714E-006
  0.18140000000000001          1.9846750092256116E-006
  0.18250000000000000          1.8770984979710192E-006
  0.18360000000000004          1.7398376712662866E-006
  0.18470000000000003          1.6710692989363451E-006
  0.18580000000000002          1.6640310604998376E-006
  0.18690000000000001          1.6221042642428074E-006
  0.18800000000000000          1.5084982578628114E-006
  0.18910000000000005          1.3975998172099935E-006
  0.19020000000000004          1.3544789680963731E-006
  0.19130000000000003          1.3336889423953835E-006
  0.19240000000000002          1.2519589063231251E-006
  0.19350000000000001          1.1170370726176770E-006
  0.19460000000000005          1.0123320635102573E-006
  0.19570000000000004          9.6470853350183461E-007
  0.19680000000000003          9.0138479436063790E-007
  0.19790000000000002          7.6006944027540158E-007
  0.19900000000000001          5.8024147620017175E-007
  0.20010000000000000          4.3738953081629006E-007
  0.20120000000000005          3.2435423236165661E-007
  0.20230000000000004          1.6072299047209526E-007
  0.20340000000000003         -8.9166142913654767E-008
  0.20450000000000002         -3.7224003790470306E-007
  0.20560000000000000         -6.3846817965895752E-007
  0.20670000000000005         -9.2308334842527984E-007
  0.20780000000000004         -1.2964407005711109E-006
  0.20890000000000003         -1.7650280597081291E-006
