 -0.12000000000000000          0.0000000000000000
 -0.11889999999999999          0.0000000000000000
 -0.11780000000000000          0.0000000000000000
 -0.11670000000000000          0.0000000000000000
 -0.11559999999999999          0.0000000000000000
 -0.11449999999999999          0.0000000000000000
 -0.11340000000000000          0.0000000000000000
 -0.11230000000000000          4.5173334915543855E-021
 -0.11119999999999999         -2.1335217507987356E-021
 -0.11009999999999999         -5.0255093159369238E-020
 -0.10900000000000000          6.3247356507830386E-021
 -0.10790000000000000          3.2296866351523760E-019
 -0.10679999999999999          1.0674557717373977E-019
 -0.10569999999999999         -1.4623047761222683E-018
 -0.10460000000000000         -1.2596300164102911E-018
 -0.10349999999999999          4.7662432272616785E-018
 -0.10239999999999999          7.2483702952041428E-018
 -0.10130000000000000         -1.0592410048849818E-017
 -0.10020000000000000         -2.7792543971565133E-017
  -9.9099999999999994E-002     1.2570398243991732E-017
  -9.7999999999999990E-002     7.9820460804419312E-017
  -9.6899999999999986E-002     1.2145883363365230E-017
  -9.5799999999999996E-002    -1.8955655035397421E-016
  -9.4699999999999993E-002    -1.2843990713135484E-016
  -9.3599999999999989E-002     3.9215259059577714E-016
  -9.2499999999999999E-002     5.3948947190813040E-016
  -9.1399999999999995E-002    -6.0574327731161850E-016
  -9.0299999999999991E-002    -1.6980233383172912E-015
  -8.9200000000000002E-002     1.2997302353099532E-016
  -8.8099999999999984E-002     3.8443742275944687E-015
  -8.6999999999999994E-002     2.7951547275888037E-015
  -8.5899999999999990E-002    -5.4413006896460517E-015
  -8.4799999999999986E-002    -9.5917485786649673E-015
  -8.3699999999999997E-002     2.5228135180140488E-015
  -8.2599999999999993E-002     1.8417215249069176E-014
  -8.1499999999999989E-002     8.2132600552490068E-015
  -8.0399999999999999E-002    -2.5318153606609939E-014
  -7.9299999999999995E-002    -2.8646833847125255E-014
  -7.8199999999999992E-002     2.6885410198585098E-014
  -7.7100000000000002E-002     6.7104572495490372E-014
  -7.5999999999999984E-002    -4.8575484522879638E-015
  -7.4899999999999994E-002    -1.2584705955283326E-013
  -7.3799999999999991E-002    -8.8558948043750141E-014
  -7.2699999999999987E-002     1.4607405725546724E-013
  -7.1599999999999997E-002     2.6607204937564854E-013
  -7.0499999999999993E-002    -1.4646019585919795E-014
  -6.9399999999999989E-002    -4.1285109554124733E-013
  -6.8300000000000000E-002    -2.8991373646376772E-013
  -6.7199999999999996E-002     3.7689483153337255E-013
  -6.6099999999999992E-002     6.6022843659210850E-013
  -6.5000000000000002E-002    -1.0487793901566012E-013
  -6.3899999999999985E-002    -1.0222490172059895E-012
  -6.2799999999999995E-002    -5.2546839492476072E-013
  -6.1699999999999991E-002     1.1612636850386049E-012
  -6.0599999999999994E-002     1.6429054297550927E-012
  -5.9499999999999990E-002    -4.3080353195369681E-013
  -5.8399999999999994E-002    -2.6582670526603680E-012
  -5.7299999999999990E-002    -1.4798601797108568E-012
  -5.6199999999999986E-002     2.3741848331065851E-012
  -5.5099999999999996E-002     3.6569857385371218E-012
  -5.3999999999999992E-002    -3.4670782412572765E-013
  -5.2899999999999989E-002    -4.7691820111162020E-012
  -5.1799999999999985E-002    -2.8353903426536764E-012
  -5.0699999999999995E-002     3.9462547812840754E-012
  -4.9599999999999991E-002     6.1618149818642998E-012
  -4.8499999999999988E-002    -6.3208211451351581E-013
  -4.7399999999999998E-002    -7.9607978195617157E-012
  -4.6299999999999994E-002    -4.8449191707156114E-012
  -4.5199999999999990E-002     5.9952416295305788E-012
  -4.4099999999999986E-002     1.0003288128390686E-011
  -4.2999999999999997E-002     7.0879570658946567E-013
  -4.1899999999999993E-002    -9.9521103164024183E-012
  -4.0799999999999989E-002    -7.5305178759421665E-012
  -3.9699999999999985E-002     4.1723174394603380E-012
  -3.8599999999999995E-002     8.2177606733346842E-012
  -3.7499999999999992E-002    -6.3655038271687170E-013
  -3.6399999999999988E-002    -8.0509314492882567E-012
  -3.5299999999999984E-002    -1.8639827095018324E-012
  -3.4199999999999994E-002     9.1500088755802622E-012
  -3.3099999999999991E-002     8.9033251257641943E-012
  -3.1999999999999987E-002    -8.5820510854067722E-013
  -3.0899999999999997E-002    -4.3729611945431124E-012
  -2.9799999999999993E-002     6.2954882192739481E-013
  -2.8699999999999989E-002    -1.9714479614768576E-012
  -2.7599999999999986E-002    -1.6761333640480380E-011
  -2.6499999999999996E-002    -2.0919059887103408E-011
  -2.5399999999999992E-002     2.9902512757584709E-012
  -2.4299999999999988E-002     3.0767388636832038E-011
  -2.3199999999999985E-002     2.1639650141236366E-011
  -2.2099999999999995E-002    -1.9670950632266759E-011
  -2.0999999999999991E-002    -3.8398579454979043E-011
  -1.9899999999999987E-002    -5.0765455207602006E-012
  -1.8799999999999983E-002     3.2657536397362463E-011
  -1.7699999999999994E-002     9.2001224347160182E-012
  -1.6599999999999990E-002    -5.9788091144596933E-011
  -1.5499999999999986E-002    -8.4349811857453716E-011
  -1.4399999999999996E-002    -1.9601972822691494E-011
  -1.3299999999999992E-002     6.4493244078533962E-011
  -1.2199999999999989E-002     6.8701586086739042E-011
  -1.1099999999999985E-002    -7.3295111299720439E-012
  -9.9999999999999950E-003    -7.1610294083424009E-011
  -8.8999999999999913E-003    -6.8366479144543746E-011
  -7.7999999999999875E-003    -4.3222536660891819E-011
  -6.6999999999999837E-003    -6.1215130187086686E-011
  -5.5999999999999939E-003    -1.0940999495279158E-010
  -4.4999999999999901E-003    -1.2941499261120981E-010
  -3.3999999999999864E-003    -1.1115008219375611E-010
  -2.2999999999999826E-003    -9.2272925411585049E-011
  -1.1999999999999927E-003    -8.1016152120305662E-011
  -9.9999999999988987E-005    -4.9094596443755023E-011
   1.0000000000000148E-003    -2.0956614915634830E-011
   2.1000000000000185E-003    -9.5562842361562872E-011
   3.2000000000000084E-003    -3.0176716681040716E-010
   4.3000000000000121E-003    -5.0211695912238952E-010
   5.4000000000000159E-003    -5.2112925086333917E-010
   6.5000000000000058E-003    -3.8861888707053538E-010
   7.6000000000000234E-003    -3.2303276720213603E-010
   8.7000000000000133E-003    -4.5493986355893412E-010
   9.8000000000000032E-003    -6.3008964712452098E-010
   1.0900000000000021E-002    -6.1058708089589686E-010
   1.2000000000000011E-002    -4.5556045047412397E-010
   1.3100000000000001E-002    -4.4468520532525702E-010
   1.4200000000000018E-002    -7.4391520721306392E-010
   1.5300000000000008E-002    -1.1825491696981771E-009
   1.6400000000000026E-002    -1.4833624328858264E-009
   1.7500000000000016E-002    -1.5417183085730812E-009
   1.8600000000000005E-002    -1.5323750046647433E-009
   1.9700000000000023E-002    -1.5498068384189878E-009
   2.0800000000000013E-002    -1.6195631502569086E-009
   2.1900000000000003E-002    -1.6688982418244791E-009
   2.3000000000000020E-002    -1.7512509220551919E-009
   2.4100000000000010E-002    -1.8880987884273281E-009
   2.5200000000000000E-002    -2.0609931539183890E-009
   2.6300000000000018E-002    -2.2411026368018838E-009
   2.7400000000000008E-002    -2.4923383357133844E-009
   2.8500000000000025E-002    -2.9536906254179485E-009
   2.9600000000000015E-002    -3.4549627603297495E-009
   3.0700000000000005E-002    -3.5686551491664886E-009
   3.1800000000000023E-002    -3.1491487195722812E-009
   3.2900000000000013E-002    -2.8018392050910279E-009
   3.4000000000000002E-002    -2.8825839493151761E-009
   3.5100000000000020E-002    -3.1464264527159003E-009
   3.6200000000000010E-002    -3.0419242680324032E-009
   3.7300000000000028E-002    -2.6393611740616052E-009
   3.8400000000000017E-002    -2.5015052251831094E-009
   3.9500000000000007E-002    -2.7766595689371343E-009
   4.0600000000000025E-002    -3.1058264848837780E-009
   4.1700000000000015E-002    -2.9496411979579307E-009
   4.2800000000000005E-002    -2.1589390275522646E-009
   4.3900000000000022E-002    -1.5341008463565231E-009
   4.5000000000000012E-002    -9.4956875695828558E-010
   4.6100000000000002E-002    -5.9429888787931873E-010
   4.7200000000000020E-002     1.9641308024453963E-010
   4.8300000000000010E-002     1.2797127801889019E-009
   4.9400000000000027E-002     1.9647441451553505E-009
   5.0500000000000017E-002     2.9084088470909819E-009
   5.1600000000000007E-002     4.2978309799934777E-009
   5.2700000000000025E-002     4.9113295652603028E-009
   5.3800000000000014E-002     4.9136574808983369E-009
   5.4900000000000004E-002     4.4369383722653311E-009
   5.6000000000000022E-002     6.1278053742341854E-009
   5.7100000000000012E-002     8.6880671545941368E-009
   5.8200000000000002E-002     1.1132800459279224E-008
   5.9300000000000019E-002     1.0943785433426001E-008
   6.0400000000000009E-002     9.2861700551338799E-009
   6.1500000000000027E-002     1.0211456569209076E-008
   6.2600000000000017E-002     1.3733734149923293E-008
   6.3700000000000007E-002     1.6381717315994138E-008
   6.4800000000000024E-002     1.5724221924529047E-008
   6.5900000000000014E-002     1.2725568154792199E-008
   6.7000000000000004E-002     1.1440577374344230E-008
   6.8100000000000022E-002     1.4310072238288285E-008
   6.9200000000000012E-002     1.6976015260183885E-008
   7.0300000000000029E-002     1.5863134805726986E-008
   7.1400000000000019E-002     1.2796383508373310E-008
   7.2500000000000009E-002     1.2009359728892832E-008
   7.3600000000000027E-002     1.1546164024878180E-008
   7.4700000000000016E-002     9.5388594800738247E-009
   7.5800000000000006E-002     7.9004625064271750E-009
   7.6900000000000024E-002     8.6203959526187646E-009
   7.8000000000000014E-002     1.0328826682837189E-008
   7.9100000000000004E-002     7.8510993262170814E-009
   8.0200000000000021E-002    -4.0686481961316190E-011
   8.1300000000000011E-002    -5.9409224206774525E-009
   8.2400000000000029E-002    -4.1329486499819268E-009
   8.3500000000000019E-002     1.6156819215851215E-009
   8.4600000000000009E-002     1.8457603223609453E-009
   8.5700000000000026E-002    -6.5416938532791846E-009
   8.6800000000000016E-002    -1.5883797388482890E-008
   8.7900000000000006E-002    -1.8297406256806426E-008
   8.9000000000000024E-002    -1.4563176442550230E-008
   9.0100000000000013E-002    -1.1188821424923390E-008
   9.1200000000000003E-002    -1.2049539144243226E-008
   9.2300000000000021E-002    -1.5911878037400129E-008
   9.3400000000000011E-002    -2.0345037654578846E-008
   9.4500000000000028E-002    -2.4679733812149607E-008
   9.5600000000000018E-002    -2.6449439971543143E-008
   9.6700000000000008E-002    -2.2222872431143514E-008
   9.7800000000000026E-002    -1.4321910768444468E-008
   9.8900000000000016E-002    -1.2360932721833251E-008
  0.10000000000000001         -1.9691398733812093E-008
  0.10110000000000002         -2.9391554079438720E-008
  0.10220000000000001         -2.8805061447201297E-008
  0.10330000000000003         -1.6046765693999987E-008
  0.10440000000000002         -3.5037663881354320E-009
  0.10550000000000001         -3.7961473964287507E-009
  0.10660000000000003         -1.5789026974744047E-008
  0.10770000000000002         -2.4291283651223239E-008
  0.10880000000000001         -1.8692222880645204E-008
  0.10990000000000003         -4.4804284726751575E-009
  0.11100000000000002          6.8532788333186545E-009
  0.11210000000000001          7.4173480690831184E-009
  0.11320000000000002          1.6980077344186384E-009
  0.11430000000000001         -4.8842250244263141E-009
  0.11540000000000003         -8.7307743257269976E-009
  0.11650000000000002         -2.8773408100590814E-009
  0.11760000000000001          1.4184029950570221E-008
  0.11870000000000003          2.5093616073945668E-008
  0.11980000000000002          1.8904767529193123E-008
  0.12090000000000001          1.7411381225684863E-009
  0.12200000000000003         -8.3752187407526435E-009
  0.12310000000000001          1.3611504146027187E-009
  0.12420000000000003          2.2225380647000748E-008
  0.12530000000000002          3.3740750637889505E-008
  0.12640000000000001          2.3040550800601522E-008
  0.12750000000000003          3.1990092796974068E-009
  0.12860000000000002         -5.0053809985683984E-009
  0.12970000000000001          3.5090585992492151E-009
  0.13080000000000003          1.6825598692093990E-008
  0.13190000000000002          2.2104536867573188E-008
  0.13300000000000001          1.8499665799254217E-008
  0.13410000000000000          1.0221373081265028E-008
  0.13520000000000004          1.2975530649939060E-009
  0.13630000000000003         -4.2413326184487232E-009
  0.13740000000000002         -8.6233042928540726E-010
  0.13850000000000001          1.0893194790639882E-008
  0.13960000000000000          1.9923538374655436E-008
  0.14070000000000005          1.4370904466431966E-008
  0.14180000000000004         -2.6852702283974850E-009
  0.14290000000000003         -1.3406990184705592E-008
  0.14400000000000002         -6.8571690547969411E-009
  0.14510000000000001          7.4812378514366173E-009
  0.14620000000000000          1.2263702053871839E-008
  0.14730000000000004          3.7182394940771246E-009
  0.14840000000000003         -6.4557625911731975E-009
  0.14950000000000002         -8.7543794435873679E-009
  0.15060000000000001         -5.5124220743607566E-009
  0.15170000000000000         -3.5158642663901674E-009
  0.15280000000000005         -1.0546662432275866E-009
  0.15390000000000004          4.4104702112690575E-009
  0.15500000000000003          7.9370829908498308E-009
  0.15610000000000002          9.1417723391273853E-010
  0.15720000000000001         -1.3768834072891423E-008
  0.15830000000000000         -1.9542364171343252E-008
  0.15940000000000004         -7.5208292926731701E-009
  0.16050000000000003          9.5064205396511170E-009
  0.16160000000000002          1.2481388367291402E-008
  0.16270000000000001         -1.7398224527731543E-010
  0.16380000000000000         -1.2145527250595478E-008
  0.16490000000000005         -1.1123041154803559E-008
  0.16600000000000004         -2.5709370188309322E-009
  0.16710000000000003          1.7325034740167666E-009
  0.16820000000000002          7.8108342016491861E-010
  0.16930000000000001          8.7251206259963965E-010
  0.17040000000000000          1.4512374635344827E-009
  0.17150000000000004         -3.5077112325865301E-009
  0.17260000000000003         -1.0902321712080720E-008
  0.17370000000000002         -8.0750321984623952E-009
  0.17480000000000001          7.0678671804103033E-009
  0.17590000000000000          1.7628735804464668E-008
  0.17700000000000005          7.5869310833809323E-009
  0.17810000000000004         -1.3405030863111733E-008
  0.17920000000000003         -2.0126272204379347E-008
  0.18030000000000002         -4.1382950399793117E-009
  0.18140000000000001          1.4414755611369401E-008
  0.18250000000000000          1.3903807882797992E-008
  0.18360000000000004         -1.3263786735606686E-009
  0.18470000000000003         -1.0292326990679612E-008
  0.18580000000000002         -4.8276884712095125E-009
  0.18690000000000001          2.9653597355405736E-009
  0.18800000000000000          2.5376507561958306E-009
  0.18910000000000005         -5.9665405949260730E-010
  0.19020000000000004          1.6333329133644270E-009
  0.19130000000000003          4.5154133765379356E-009
  0.19240000000000002         -9.9994668101288653E-010
  0.19350000000000001         -9.4088070667908141E-009
  0.19460000000000005         -6.2379217347086069E-009
  0.19570000000000004          7.8766957400944193E-009
  0.19680000000000003          1.3992573322241242E-008
  0.19790000000000002          1.3165251111502130E-009
  0.19900000000000001         -1.4373036094639247E-008
  0.20010000000000000         -1.1292246249183790E-008
  0.20120000000000005          6.9774603872474472E-009
  0.20230000000000004          1.5335011482875416E-008
  0.20340000000000003          2.5256636781989528E-009
  0.20450000000000002         -1.3034664902988879E-008
  0.20560000000000000         -9.9103711903580916E-009
  0.20670000000000005          6.0220890496509583E-009
  0.20780000000000004          1.1914126574197326E-008
  0.20890000000000003          1.4326504427231157E-009
