 -0.12000000000000000          0.0000000000000000     
 -0.11889999999999999          0.0000000000000000     
 -0.11780000000000000          0.0000000000000000     
 -0.11670000000000000          0.0000000000000000     
 -0.11559999999999999          0.0000000000000000     
 -0.11449999999999999          0.0000000000000000     
 -0.11340000000000000          0.0000000000000000     
 -0.11230000000000000          0.0000000000000000     
 -0.11119999999999999          0.0000000000000000     
 -0.11009999999999999          0.0000000000000000     
 -0.10900000000000000          0.0000000000000000     
 -0.10790000000000000          0.0000000000000000     
 -0.10679999999999999          0.0000000000000000     
 -0.10569999999999999          0.0000000000000000     
 -0.10460000000000000          0.0000000000000000     
 -0.10349999999999999         -1.0550902093419876E-033
 -0.10239999999999999          1.8072251452949426E-032
 -0.10130000000000000         -9.5608362826390426E-032
 -0.10020000000000000         -5.4532052800465526E-032
  -9.9099999999999994E-002     2.2330875586525802E-030
  -9.7999999999999990E-002    -3.9563348174100185E-030
  -9.6899999999999986E-002    -2.7071578475708442E-029
  -9.5799999999999996E-002     8.1306250201404638E-029
  -9.4699999999999993E-002     2.4988399360627526E-028
  -9.3599999999999989E-002    -9.6944977090936419E-028
  -9.2499999999999999E-002    -2.0966663302590865E-027
  -9.1399999999999995E-002     8.6934728945250323E-027
  -9.0299999999999991E-002     1.7358708574577437E-026
  -8.9200000000000002E-002    -6.2999344011371665E-026
  -8.8099999999999984E-002    -1.4067285671453500E-025
  -8.6999999999999994E-002     3.7176808117721996E-025
  -8.5899999999999990E-002     1.0606401517562732E-024
  -8.4799999999999986E-002    -1.7002307257314889E-024
  -8.3699999999999997E-002    -7.1043069741603785E-024
  -8.2599999999999993E-002     4.8507479102624309E-024
  -8.1499999999999989E-002     4.0887298117216460E-023
  -8.0399999999999999E-002     5.3776762293747632E-024
  -7.9299999999999995E-002    -1.9557367618124769E-022
  -7.8199999999999992E-002    -1.8437914671276080E-022
  -7.7100000000000002E-002     7.3278670308108285E-022
  -7.5999999999999984E-002     1.4548690306839725E-021
  -7.4899999999999994E-002    -1.7955073989553686E-021
  -7.3799999999999991E-002    -7.6776141803173072E-021
  -7.2699999999999987E-002    -1.9155658188169607E-022
  -7.1599999999999997E-002     2.9625703051959699E-020
  -7.0499999999999993E-002     3.0479527927524884E-020
  -6.9399999999999989E-002    -7.7515470018559287E-020
  -6.8300000000000000E-002    -1.8968569764942181E-019
  -6.7199999999999996E-002     6.8632093077016757E-020
  -6.6099999999999992E-002     7.1676678663064787E-019
  -6.5000000000000002E-002     5.5494787323994844E-019
  -6.3899999999999985E-002    -1.6970810712389330E-018
  -6.2799999999999995E-002    -3.6420774778418997E-018
  -6.1699999999999991E-002     1.0933913219103560E-018
  -6.0599999999999994E-002     1.2163287243453346E-017
  -5.9499999999999990E-002     1.0817969794183840E-017
  -5.8399999999999994E-002    -2.2195605027737383E-017
  -5.7299999999999990E-002    -5.6237270225291576E-017
  -5.6199999999999986E-002    -5.8760292689128356E-018
  -5.5099999999999996E-002     1.4296120175106615E-016
  -5.3999999999999992E-002     1.8663963358142642E-016
  -5.2899999999999989E-002    -1.3878125297504378E-016
  -5.1799999999999985E-002    -6.3261259176662340E-016
  -5.0699999999999995E-002    -4.3537800538314417E-016
  -4.9599999999999991E-002     9.6589083387451031E-016
  -4.8499999999999988E-002     2.2012887050822626E-015
  -4.7399999999999998E-002     5.5172507458945558E-016
  -4.6299999999999994E-002    -4.1627874649945162E-015
  -4.5199999999999990E-002    -6.4170644336746397E-015
  -4.4099999999999986E-002     5.9923584081521893E-016
  -4.2999999999999997E-002     1.3842082827988846E-014
  -4.1899999999999993E-002     1.6575996014699980E-014
  -4.0799999999999989E-002    -5.2163465265472019E-015
  -3.9699999999999985E-002    -3.7876440265455225E-014
  -3.8599999999999995E-002    -4.0781695511901694E-014
  -3.7499999999999992E-002     1.1905687583534368E-014
  -3.6399999999999988E-002     8.6674984138730704E-014
  -3.5299999999999984E-002     1.0316543490795568E-013
  -3.4199999999999994E-002     8.0666920151549644E-015
  -3.3099999999999991E-002    -1.5953263829329017E-013
  -3.1999999999999987E-002    -2.7389554383208670E-013
  -3.0899999999999997E-002    -1.8635718239835147E-013
  -2.9799999999999993E-002     1.8404699151427367E-013
  -2.8699999999999989E-002     7.1214052450169207E-013
  -2.7599999999999986E-002     9.3079862394096491E-013
  -2.6499999999999996E-002     1.9192512976020509E-013
  -2.5399999999999992E-002    -1.6033295567943751E-012
  -2.4299999999999988E-002    -3.1621643237916830E-012
  -2.3199999999999985E-002    -2.1499952426035085E-012
  -2.2099999999999995E-002     2.5236084923163649E-012
  -2.0999999999999991E-002     8.1182239750066110E-012
  -1.9899999999999987E-002     8.6066579210730687E-012
  -1.8799999999999983E-002    -2.2375588252902812E-013
  -1.7699999999999994E-002    -1.4862441138907556E-011
  -1.6599999999999990E-002    -2.3857376144076348E-011
  -1.5499999999999986E-002    -1.5564820265989709E-011
  -1.4399999999999996E-002     1.1667437849194329E-011
  -1.3299999999999992E-002     4.5120417818678149E-011
  -1.2199999999999989E-002     6.2006622059129768E-011
  -1.1099999999999985E-002     3.9442917681986600E-011
  -9.9999999999999950E-003    -3.2097425411992120E-011
  -8.8999999999999913E-003    -1.3209597304886245E-010
  -7.7999999999999875E-003    -1.9855481148134402E-010
  -6.6999999999999837E-003    -1.4394969938269497E-010
  -5.5999999999999939E-003     8.4874787753541625E-011
  -4.4999999999999901E-003     4.2512907083569473E-010
  -3.3999999999999864E-003     6.6237154650039543E-010
  -2.2999999999999826E-003     5.0913978588695841E-010
  -1.1999999999999927E-003    -1.9856676025664655E-010
  -9.9999999999988987E-005    -1.2791924186572601E-009
   1.0000000000000148E-003    -2.1157509078051362E-009
   2.1000000000000185E-003    -1.8467368745334056E-009
   3.2000000000000084E-003     1.2229703361121835E-010
   4.3000000000000121E-003     3.4586378205858637E-009
   5.4000000000000159E-003     6.5111533942285860E-009
   6.5000000000000058E-003     6.6916774343894758E-009
   7.6000000000000234E-003     1.8449267669140568E-009
   8.7000000000000133E-003    -7.8350126386794727E-009
   9.8000000000000032E-003    -1.8454622718877545E-008
   1.0900000000000021E-002    -2.2918927200521466E-008
   1.2000000000000011E-002    -1.3936933385139127E-008
   1.3100000000000001E-002     1.1087559315114959E-008
   1.4200000000000018E-002     4.5387015035203149E-008
   1.5300000000000008E-002     7.1529704825934459E-008
   1.6400000000000026E-002     6.6390548170147667E-008
   1.7500000000000016E-002     1.2988337516617321E-008
   1.8600000000000005E-002    -8.4464637950532051E-008
   1.9700000000000023E-002    -1.9034170861687016E-007
   2.0800000000000013E-002    -2.4166487833099382E-007
   2.1900000000000003E-002    -1.7181973532842676E-007
   2.3000000000000020E-002     5.0157879627477087E-008
   2.4100000000000010E-002     3.8023875958970166E-007
   2.5200000000000000E-002     6.8336970571181155E-007
   2.6300000000000018E-002     7.6253604675002862E-007
   2.7400000000000008E-002     4.3983001773995056E-007
   2.8500000000000025E-002    -3.3024298318196088E-007
   2.9600000000000015E-002    -1.3637580877912114E-006
   3.0700000000000005E-002    -2.2298042949842056E-006
   3.1800000000000023E-002    -2.3603911358804908E-006
   3.2900000000000013E-002    -1.2876708979092655E-006
   3.4000000000000002E-002     1.0593362276267726E-006
   3.5100000000000020E-002     4.1253933886764571E-006
   3.6200000000000010E-002     6.7128789851267356E-006
   3.7300000000000028E-002     7.2800571615516674E-006
   3.8400000000000017E-002     4.5430520003719721E-006
   3.9500000000000007E-002    -1.7821772644310840E-006
   4.0600000000000025E-002    -1.0397510777693242E-005
   4.1700000000000015E-002    -1.8343620467931032E-005
   4.2800000000000005E-002    -2.1662603103322908E-005
   4.3900000000000022E-002    -1.6784430044936016E-005
   4.5000000000000012E-002    -2.2816675482317805E-006
   4.6100000000000002E-002     1.9654713469208218E-005
   4.7200000000000020E-002     4.2765201214933768E-005
   4.8300000000000010E-002     5.7850360462907702E-005
   4.9400000000000027E-002     5.5533611885039136E-005
   5.0500000000000017E-002     3.0048408007132821E-005
   5.1600000000000007E-002    -1.7161120922537521E-005
   5.2700000000000025E-002    -7.5506708526518196E-005
   5.3800000000000014E-002    -1.2622900248970836E-004
   5.4900000000000004E-002    -1.4676545106340200E-004
   5.6000000000000022E-002    -1.1786366667365655E-004
   5.7100000000000012E-002    -3.1630326702725142E-005
   5.8200000000000002E-002     1.0210352047579363E-004
   5.9300000000000019E-002     2.5378807913511992E-004
   6.0400000000000009E-002     3.7825878825969994E-004
   6.1500000000000027E-002     4.2495029629208148E-004
   6.2600000000000017E-002     3.5208664485253394E-004
   6.3700000000000007E-002     1.4101022679824382E-004
   6.4800000000000024E-002    -1.9378768047317863E-004
   6.5900000000000014E-002    -6.0285371728241444E-004
   6.7000000000000004E-002    -1.0100207291543484E-003
   6.8100000000000022E-002    -1.3298862613737583E-003
   6.9200000000000012E-002    -1.4907253207638860E-003
   7.0300000000000029E-002    -1.4568584738299251E-003
   7.1400000000000019E-002    -1.2440119171515107E-003
   7.2500000000000009E-002    -9.2209374997764826E-004
   7.3600000000000027E-002    -6.0305010993033648E-004
   7.4700000000000016E-002    -4.1623265133239329E-004
   7.5800000000000006E-002    -4.7699062270112336E-004
   7.6900000000000024E-002    -8.5704331286251545E-004
   7.8000000000000014E-002    -1.5665913233533502E-003
   7.9100000000000004E-002    -2.5530699640512466E-003
   8.0200000000000021E-002    -3.7182623054832220E-003
   8.1300000000000011E-002    -4.9507436342537403E-003
   8.2400000000000029E-002    -6.1632250435650349E-003
   8.3500000000000019E-002    -7.3255943134427071E-003
   8.4600000000000009E-002    -8.4825232625007629E-003
   8.5700000000000026E-002    -9.7505785524845123E-003
   8.6800000000000016E-002    -1.1291847564280033E-002
   8.7900000000000006E-002    -1.3275754638016224E-002
   8.9000000000000024E-002    -1.5838565304875374E-002
   9.0100000000000013E-002    -1.9055681303143501E-002
   9.1200000000000003E-002    -2.2938532754778862E-002
   9.2300000000000021E-002    -2.7444206178188324E-002
   9.3400000000000011E-002    -3.2521340996026993E-002
   9.4500000000000028E-002    -3.8146447390317917E-002
   9.5600000000000018E-002    -4.4358473271131516E-002
   9.6700000000000008E-002    -5.1268968731164932E-002
   9.7800000000000026E-002    -5.9044547379016876E-002
   9.8900000000000016E-002    -6.7886441946029663E-002
  0.10000000000000001         -7.7988803386688232E-002
  0.10110000000000002         -8.9488111436367035E-002
  0.10220000000000001        -0.10245005786418915     
  0.10330000000000003        -0.11684835702180862     
  0.10440000000000002        -0.13263553380966187     
  0.10550000000000001        -0.14974160492420197     
  0.10660000000000003        -0.16810697317123413     
  0.10770000000000002        -0.18771357834339142     
  0.10880000000000001        -0.20855669677257538     
  0.10990000000000003        -0.23064051568508148     
  0.11100000000000002        -0.25392279028892517     
  0.11210000000000001        -0.27835234999656677     
  0.11320000000000002        -0.30368405580520630     
  0.11430000000000001        -0.32964378595352173     
  0.11540000000000003        -0.35587656497955322     
  0.11650000000000002        -0.38195350766181946     
  0.11760000000000001        -0.40725678205490112     
  0.11870000000000003        -0.43120375275611877     
  0.11980000000000002        -0.45322847366333008     
  0.12090000000000001        -0.47256687283515930     
  0.12200000000000003        -0.48846065998077393     
  0.12310000000000001        -0.49991983175277710     
  0.12420000000000003        -0.50612956285476685     
  0.12530000000000002        -0.50631302595138550     
  0.12640000000000001        -0.49940428137779236     
  0.12750000000000003        -0.48436406254768372     
  0.12860000000000002        -0.46023410558700562     
  0.12970000000000001        -0.42616030573844910     
  0.13080000000000003        -0.38111129403114319     
  0.13190000000000002        -0.32394057512283325     
  0.13300000000000001        -0.25383445620536804     
  0.13410000000000000        -0.17034579813480377     
  0.13520000000000004         -7.2715044021606445E-002
  0.13630000000000003          3.9586205035448074E-002
  0.13740000000000002         0.16669048368930817     
  0.13850000000000001         0.30795514583587646     
  0.13960000000000000         0.46261802315711975     
  0.14070000000000005         0.62994486093521118     
  0.14180000000000004         0.80912113189697266     
  0.14290000000000003         0.99856525659561157     
  0.14400000000000002          1.1963094472885132     
  0.14510000000000001          1.3997700214385986     
  0.14620000000000000          1.6062555313110352     
  0.14730000000000004          1.8136824369430542     
  0.14840000000000003          2.0187497138977051     
  0.14950000000000002          2.2174732685089111     
  0.15060000000000001          2.4056127071380615     
  0.15170000000000000          2.5788619518280029     
  0.15280000000000005          2.7332060337066650     
  0.15390000000000004          2.8645083904266357     
  0.15500000000000003          2.9679639339447021     
  0.15610000000000002          3.0398824214935303     
  0.15720000000000001          3.0769994258880615     
  0.15830000000000000          3.0755224227905273     
  0.15940000000000004          3.0317707061767578     
  0.16050000000000003          2.9428703784942627     
  0.16160000000000002          2.8075273036956787     
  0.16270000000000001          2.6251068115234375     
  0.16380000000000000          2.3947083950042725     
  0.16490000000000005          2.1156504154205322     
  0.16600000000000004          1.7886546850204468     
  0.16710000000000003          1.4170986413955688     
  0.16820000000000002          1.0049220323562622     
  0.16930000000000001         0.55683374404907227     
  0.17040000000000000          7.6867900788784027E-002
  0.17150000000000004        -0.42984896898269653     
  0.17260000000000003        -0.95616990327835083     
  0.17370000000000002         -1.4940468072891235     
  0.17480000000000001         -2.0354502201080322     
  0.17590000000000000         -2.5729799270629883     
  0.17700000000000005         -3.0975356101989746     
  0.17810000000000004         -3.6003232002258301     
  0.17920000000000003         -4.0727276802062988     
  0.18030000000000002         -4.5062408447265625     
  0.18140000000000001         -4.8930182456970215     
  0.18250000000000000         -5.2247285842895508     
  0.18360000000000004         -5.4932465553283691     
  0.18470000000000003         -5.6952323913574219     
  0.18580000000000002         -5.8289713859558105     
  0.18690000000000001         -5.8888249397277832     
  0.18800000000000000         -5.8708219528198242     
  0.18910000000000005         -5.7732043266296387     
  0.19020000000000004         -5.5984578132629395     
  0.19130000000000003         -5.3502779006958008     
  0.19240000000000002         -5.0317382812500000     
  0.19350000000000001         -4.6459994316101074     
  0.19460000000000005         -4.1984720230102539     
  0.19570000000000004         -3.6960051059722900     
  0.19680000000000003         -3.1475546360015869     
  0.19790000000000002         -2.5614292621612549     
  0.19900000000000001         -1.9475809335708618     
  0.20010000000000000         -1.3166594505310059     
  0.20120000000000005        -0.67794513702392578     
  0.20230000000000004         -3.9646748453378677E-002
  0.20340000000000003         0.58966910839080811     
  0.20450000000000002          1.1994589567184448     
  0.20560000000000000          1.7782416343688965     
  0.20670000000000005          2.3167302608489990     
  0.20780000000000004          2.8096857070922852     
  0.20890000000000003          3.2537219524383545     
