 -0.12000000000000000          0.0000000000000000     
 -0.11889999999999999          0.0000000000000000     
 -0.11780000000000000          0.0000000000000000     
 -0.11670000000000000          0.0000000000000000     
 -0.11559999999999999          0.0000000000000000     
 -0.11449999999999999          0.0000000000000000     
 -0.11340000000000000          0.0000000000000000     
 -0.11230000000000000          0.0000000000000000     
 -0.11119999999999999         -2.6777135671003476E-014
 -0.11009999999999999          1.9617246466586274E-013
 -0.10900000000000000         -3.7009908619755130E-014
 -0.10790000000000000         -2.7932762439869530E-012
 -0.10679999999999999          2.5751943980023562E-012
 -0.10569999999999999          2.5121273117267862E-011
 -0.10460000000000000         -2.0350009871661356E-011
 -0.10349999999999999         -1.7970849808257583E-010
 -0.10239999999999999          5.5530833403816260E-011
 -0.10130000000000000          1.0452199106225635E-009
 -0.10020000000000000          3.7640368599767271E-010
  -9.9099999999999994E-002    -4.7305719341750319E-009
  -9.7999999999999990E-002    -5.4335336230337816E-009
  -9.6899999999999986E-002     1.5033755573767849E-008
  -9.5799999999999996E-002     3.4846195262616675E-008
  -9.4699999999999993E-002    -2.2175218106212924E-008
  -9.3599999999999989E-002    -1.4292477601429709E-007
  -9.2499999999999999E-002    -7.2909699611045653E-008
  -9.1399999999999995E-002     3.6878466858070169E-007
  -9.0299999999999991E-002     6.1070022638887167E-007
  -8.9200000000000002E-002    -3.6724534879795101E-007
  -8.8099999999999984E-002    -2.0336201487225480E-006
  -8.6999999999999994E-002    -1.3627982298203278E-006
  -8.5899999999999990E-002     3.3085937047871994E-006
  -8.4799999999999986E-002     6.8887170527887065E-006
  -8.3699999999999997E-002     9.8712985163729172E-007
  -8.2599999999999993E-002    -1.2522345059551299E-005
  -8.1499999999999989E-002    -1.6696907550795004E-005
  -8.0399999999999999E-002     9.5406960554100806E-007
  -7.9299999999999995E-002     2.6504238121560775E-005
  -7.8199999999999992E-002     3.3414969948353246E-005
  -7.7100000000000002E-002     1.7693559129838832E-005
  -7.5999999999999984E-002    -9.5661289378767833E-006
  -7.4899999999999994E-002    -6.6803288063965738E-005
  -7.3799999999999991E-002    -1.6743675223551691E-004
  -7.2699999999999987E-002    -1.8568124505691230E-004
  -7.1599999999999997E-002     1.2195164890727028E-004
  -7.0499999999999993E-002     7.2555179940536618E-004
  -6.9399999999999989E-002     9.5996662275865674E-004
  -6.8300000000000000E-002    -6.9760808401042596E-006
  -6.7199999999999996E-002    -1.9248611060902476E-003
  -6.6099999999999992E-002    -2.9522851109504700E-003
  -6.5000000000000002E-002    -1.2258942006155849E-003
  -6.3899999999999985E-002     2.7227969840168953E-003
  -6.2799999999999995E-002     5.7906345464289188E-003
  -6.1699999999999991E-002     5.2134352736175060E-003
  -6.0599999999999994E-002     1.1773190926760435E-003
  -5.9499999999999990E-002    -4.2292699217796326E-003
  -5.8399999999999994E-002    -9.6834506839513779E-003
  -5.7299999999999990E-002    -1.3988075777888298E-002
  -5.6199999999999986E-002    -1.2867427431046963E-002
  -5.5099999999999996E-002    -5.7605956681072712E-004
  -5.3999999999999992E-002     2.1435400471091270E-002
  -5.2899999999999989E-002     3.9649043232202530E-002
  -5.1799999999999985E-002     3.8514249026775360E-002
  -5.0699999999999995E-002     1.6838757321238518E-002
  -4.9599999999999991E-002    -1.1875603348016739E-002
  -4.8499999999999988E-002    -3.8985647261142731E-002
  -4.7399999999999998E-002    -7.2033211588859558E-002
  -4.6299999999999994E-002   -0.11400308459997177     
  -4.5199999999999990E-002   -0.13360401988029480     
  -4.4099999999999986E-002    -7.6241992413997650E-002
  -4.2999999999999997E-002     7.9044684767723083E-002
  -4.1899999999999993E-002    0.27841079235076904     
  -4.0799999999999989E-002    0.42238023877143860     
  -3.9699999999999985E-002    0.43517324328422546     
  -3.8599999999999995E-002    0.29540365934371948     
  -3.7499999999999992E-002     1.0494819842278957E-002
  -3.6399999999999988E-002   -0.39940267801284790     
  -3.5299999999999984E-002   -0.86623936891555786     
  -3.4199999999999994E-002    -1.2450410127639771     
  -3.3099999999999991E-002    -1.3610696792602539     
  -3.1999999999999987E-002    -1.0934383869171143     
  -3.0899999999999997E-002   -0.39615666866302490     
  -2.9799999999999993E-002    0.73437762260437012     
  -2.8699999999999989E-002     2.2233614921569824     
  -2.7599999999999986E-002     3.7906970977783203     
  -2.6499999999999996E-002     4.9136734008789062     
  -2.5399999999999992E-002     5.0254044532775879     
  -2.4299999999999988E-002     3.7887899875640869     
  -2.3199999999999985E-002     1.1366900205612183     
  -2.2099999999999995E-002    -2.9356627464294434     
  -2.0999999999999991E-002    -8.4751434326171875     
  -1.9899999999999987E-002    -15.363374710083008     
  -1.8799999999999983E-002    -23.105720520019531     
  -1.7699999999999994E-002    -31.037952423095703     
  -1.6599999999999990E-002    -38.810070037841797     
  -1.5499999999999986E-002    -46.548145294189453     
  -1.4399999999999996E-002    -54.508754730224609     
  -1.3299999999999992E-002    -62.811359405517578     
  -1.2199999999999989E-002    -71.779670715332031     
  -1.1099999999999985E-002    -82.496681213378906     
  -9.9999999999999950E-003    -96.710449218750000     
  -8.8999999999999913E-003    -116.05963134765625     
  -7.7999999999999875E-003    -141.59210205078125     
  -6.6999999999999837E-003    -174.18333435058594     
  -5.5999999999999939E-003    -215.20527648925781     
  -4.4999999999999901E-003    -266.43829345703125     
  -3.3999999999999864E-003    -329.40704345703125     
  -2.2999999999999826E-003    -405.21258544921875     
  -1.1999999999999927E-003    -495.14404296875000     
  -9.9999999999988987E-005    -601.13092041015625     
   1.0000000000000148E-003    -725.43737792968750     
   2.1000000000000185E-003    -870.56256103515625     
   3.2000000000000084E-003    -1040.1635742187500     
   4.3000000000000121E-003    -1239.8201904296875     
   5.4000000000000159E-003    -1476.0373535156250     
   6.5000000000000058E-003    -1754.0708007812500     
   7.6000000000000234E-003    -2077.4426269531250     
   8.7000000000000133E-003    -2450.6354980468750     
   9.8000000000000032E-003    -2881.4433593750000     
   1.0900000000000021E-002    -3379.8044433593750     
   1.2000000000000011E-002    -3953.8503417968750     
   1.3100000000000001E-002    -4608.9023437500000     
   1.4200000000000018E-002    -5350.5937500000000     
   1.5300000000000008E-002    -6188.6059570312500     
   1.6400000000000026E-002    -7135.9809570312500     
   1.7500000000000016E-002    -8205.0986328125000     
   1.8600000000000005E-002    -9404.9697265625000     
   1.9700000000000023E-002    -10742.886718750000     
   2.0800000000000013E-002    -12226.138671875000     
   2.1900000000000003E-002    -13862.619140625000     
   2.3000000000000020E-002    -15659.168945312500     
   2.4100000000000010E-002    -17622.052734375000     
   2.5200000000000000E-002    -19757.533203125000     
   2.6300000000000018E-002    -22068.833984375000     
   2.7400000000000008E-002    -24553.820312500000     
   2.8500000000000025E-002    -27204.605468750000     
   2.9600000000000015E-002    -30014.402343750000     
   3.0700000000000005E-002    -32979.648437500000     
   3.1800000000000023E-002    -36092.347656250000     
   3.2900000000000013E-002    -39329.128906250000     
   3.4000000000000002E-002    -42651.429687500000     
   3.5100000000000020E-002    -46022.253906250000     
   3.6200000000000010E-002    -49409.121093750000     
   3.7300000000000028E-002    -52778.906250000000     
   3.8400000000000017E-002    -56078.863281250000     
   3.9500000000000007E-002    -59239.785156250000     
   4.0600000000000025E-002    -62190.390625000000     
   4.1700000000000015E-002    -64859.757812500000     
   4.2800000000000005E-002    -67175.039062500000     
   4.3900000000000022E-002    -69058.414062500000     
   4.5000000000000012E-002    -70419.664062500000     
   4.6100000000000002E-002    -71161.765625000000     
   4.7200000000000020E-002    -71181.289062500000     
   4.8300000000000010E-002    -70374.375000000000     
   4.9400000000000027E-002    -68642.835937500000     
   5.0500000000000017E-002    -65896.320312500000     
   5.1600000000000007E-002    -62061.757812500000     
   5.2700000000000025E-002    -57054.253906250000     
   5.3800000000000014E-002    -50777.960937500000     
   5.4900000000000004E-002    -43150.785156250000     
   5.6000000000000022E-002    -34117.792968750000     
   5.7100000000000012E-002    -23686.962890625000     
   5.8200000000000002E-002    -11876.876953125000     
   5.9300000000000019E-002     1335.7745361328125     
   6.0400000000000009E-002     15944.879882812500     
   6.1500000000000027E-002     31919.322265625000     
   6.2600000000000017E-002     49146.253906250000     
   6.3700000000000007E-002     67467.937500000000     
   6.4800000000000024E-002     86726.359375000000     
   6.5900000000000014E-002     106779.24218750000     
   6.7000000000000004E-002     127459.57031250000     
   6.8100000000000022E-002     148529.35937500000     
   6.9200000000000012E-002     169733.28125000000     
   7.0300000000000029E-002     190745.50000000000     
   7.1400000000000019E-002     211250.42187500000     
   7.2500000000000009E-002     230946.15625000000     
   7.3600000000000027E-002     249525.35937500000     
   7.4700000000000016E-002     266685.06250000000     
   7.5800000000000006E-002     282096.15625000000     
   7.6900000000000024E-002     295382.21875000000     
   7.8000000000000014E-002     306214.87500000000     
   7.9100000000000004E-002     314258.50000000000     
   8.0200000000000021E-002     319269.93750000000     
   8.1300000000000011E-002     321077.31250000000     
   8.2400000000000029E-002     319496.31250000000     
   8.3500000000000019E-002     314328.31250000000     
   8.4600000000000009E-002     305383.18750000000     
   8.5700000000000026E-002     292585.50000000000     
   8.6800000000000016E-002     276001.12500000000     
   8.7900000000000006E-002     255767.25000000000     
   8.9000000000000024E-002     232009.70312500000     
   9.0100000000000013E-002     204856.81250000000     
   9.1200000000000003E-002     174486.73437500000     
   9.2300000000000021E-002     141215.56250000000     
   9.3400000000000011E-002     105428.95312500000     
   9.4500000000000028E-002     67582.000000000000     
   9.5600000000000018E-002     28144.080078125000     
   9.6700000000000008E-002    -12409.104492187500     
   9.7800000000000026E-002    -53625.718750000000     
   9.8900000000000016E-002    -95014.109375000000     
  0.10000000000000001         -136021.39062500000     
  0.10110000000000002         -176007.26562500000     
  0.10220000000000001         -214387.29687500000     
  0.10330000000000003         -250662.90625000000     
  0.10440000000000002         -284451.59375000000     
  0.10550000000000001         -315324.59375000000     
  0.10660000000000003         -342875.12500000000     
  0.10770000000000002         -366636.84375000000     
  0.10880000000000001         -386277.28125000000     
  0.10990000000000003         -401607.50000000000     
  0.11100000000000002         -412489.12500000000     
  0.11210000000000001         -418925.12500000000     
  0.11320000000000002         -420862.46875000000     
  0.11430000000000001         -418293.53125000000     
  0.11540000000000003         -411266.03125000000     
  0.11650000000000002         -399957.50000000000     
  0.11760000000000001         -384679.59375000000     
  0.11870000000000003         -365774.18750000000     
  0.11980000000000002         -343628.37500000000     
  0.12090000000000001         -318536.68750000000     
  0.12200000000000003         -290876.43750000000     
  0.12310000000000001         -261046.70312500000     
  0.12420000000000003         -229554.62500000000     
  0.12530000000000002         -196961.82812500000     
  0.12640000000000001         -163733.54687500000     
  0.12750000000000003         -130273.02343750000     
  0.12860000000000002         -96974.187500000000     
  0.12970000000000001         -64250.246093750000     
  0.13080000000000003         -32483.826171875000     
  0.13190000000000002         -2019.6025390625000     
  0.13300000000000001          26764.939453125000     
  0.13410000000000000          53557.261718750000     
  0.13520000000000004          78153.234375000000     
  0.13630000000000003          100494.00781250000     
  0.13740000000000002          120513.22656250000     
  0.13850000000000001          138065.37500000000     
  0.13960000000000000          152979.40625000000     
  0.14070000000000005          165231.28125000000     
  0.14180000000000004          174951.12500000000     
  0.14290000000000003          182299.59375000000     
  0.14400000000000002          187387.60937500000     
  0.14510000000000001          190286.54687500000     
  0.14620000000000000          191131.48437500000     
  0.14730000000000004          190122.89062500000     
  0.14840000000000003          187455.45312500000     
  0.14950000000000002          183295.84375000000     
  0.15060000000000001          177849.87500000000     
  0.15170000000000000          171402.17187500000     
  0.15280000000000005          164228.43750000000     
  0.15390000000000004          156473.07812500000     
  0.15500000000000003          148182.28125000000     
  0.15610000000000002          139488.59375000000     
  0.15720000000000001          130673.43750000000     
  0.15830000000000000          122037.66406250000     
  0.15940000000000004          113698.59375000000     
  0.16050000000000003          105637.06250000000     
  0.16160000000000002          97856.773437500000     
  0.16270000000000001          90492.539062500000     
  0.16380000000000000          83691.187500000000     
  0.16490000000000005          77481.484375000000     
  0.16600000000000004          71834.765625000000     
  0.16710000000000003          66770.039062500000     
  0.16820000000000002          62339.605468750000     
  0.16930000000000001          58484.492187500000     
  0.17040000000000000          55030.808593750000     
  0.17150000000000004          51867.296875000000     
  0.17260000000000003          49068.546875000000     
  0.17370000000000002          46720.933593750000     
  0.17480000000000001          44695.714843750000     
  0.17590000000000000          42686.281250000000     
  0.17700000000000005          40491.148437500000     
  0.17810000000000004          38142.968750000000     
  0.17920000000000003          35709.726562500000     
  0.18030000000000002          33071.414062500000     
  0.18140000000000001          29977.994140625000     
  0.18250000000000000          26288.439453125000     
  0.18360000000000004          22017.888671875000     
  0.18470000000000003          17149.138671875000     
  0.18580000000000002          11520.436523437500     
  0.18690000000000001          4979.3022460937500     
  0.18800000000000000         -2428.4340820312500     
  0.18910000000000005         -10568.231445312500     
  0.19020000000000004         -19455.251953125000     
  0.19130000000000003         -29276.542968750000     
  0.19240000000000002         -40091.960937500000     
  0.19350000000000001         -51703.914062500000     
  0.19460000000000005         -63859.972656250000     
  0.19570000000000004         -76497.031250000000     
  0.19680000000000003         -89679.210937500000     
  0.19790000000000002         -103309.64843750000     
  0.19900000000000001         -117076.17968750000     
  0.20010000000000000         -130702.93750000000     
  0.20120000000000005         -144116.71875000000     
  0.20230000000000004         -157247.96875000000     
  0.20340000000000003         -169832.95312500000     
  0.20450000000000002         -181432.56250000000     
  0.20560000000000000         -191796.71875000000     
  0.20670000000000005         -200878.37500000000     
  0.20780000000000004         -208625.39062500000     
  0.20890000000000003         -214707.23437500000     
