 -0.12000000000000000          0.0000000000000000
 -0.11889999999999999          0.0000000000000000
 -0.11780000000000000          0.0000000000000000
 -0.11670000000000000          1.2546758770826116E-011
 -0.11559999999999999          1.3697731317263706E-011
 -0.11449999999999999         -3.8519867850972389E-011
 -0.11340000000000000         -6.0436995685808625E-011
 -0.11230000000000000          8.1728110390422160E-011
 -0.11119999999999999          2.1664800509135773E-010
 -0.11009999999999999         -3.4040520402456309E-011
 -0.10900000000000000         -4.8208020908546700E-010
 -0.10790000000000000         -2.7206739638963029E-010
 -0.10679999999999999          7.1667333179092907E-010
 -0.10569999999999999          1.0246075099473728E-009
 -0.10460000000000000         -4.2161327207246302E-010
 -0.10349999999999999         -1.8818469005310590E-009
 -0.10239999999999999         -6.0493343667644695E-010
 -0.10130000000000000          2.4258637321139531E-009
 -0.10020000000000000          2.5024646799209904E-009
  -9.9099999999999994E-002    -1.8537349433245254E-009
  -9.7999999999999990E-002    -4.8300936583700604E-009
  -9.6899999999999986E-002    -6.5601296617145977E-010
  -9.5799999999999996E-002     6.4044045622324575E-009
  -9.4699999999999993E-002     5.8165876559712615E-009
  -9.3599999999999989E-002    -3.7803609131970006E-009
  -9.2499999999999999E-002    -9.8755217337043177E-009
  -9.1399999999999995E-002    -2.5646735846152069E-009
  -9.0299999999999991E-002     9.5434895541757214E-009
  -8.9200000000000002E-002     9.3253706978657647E-009
  -8.8099999999999984E-002    -4.2171088843190319E-009
  -8.6999999999999994E-002    -1.2694439277538550E-008
  -8.5899999999999990E-002    -3.9121101913508483E-009
  -8.4799999999999986E-002     9.9854222668227521E-009
  -8.3699999999999997E-002     9.7386685382616633E-009
  -8.2599999999999993E-002    -2.9505253795747421E-009
  -8.1499999999999989E-002    -8.7989979746794234E-009
  -8.0399999999999999E-002    -8.1144507779740138E-010
  -7.9299999999999995E-002     5.8461280261212778E-009
  -7.8199999999999992E-002    -3.1210903306266857E-010
  -7.7100000000000002E-002    -7.3377419695930257E-009
  -7.5999999999999984E-002     3.1674864554159798E-012
  -7.4899999999999994E-002     1.1607330208107669E-008
  -7.3799999999999991E-002     4.7740180697530832E-009
  -7.2699999999999987E-002    -1.6707955907691030E-008
  -7.1599999999999997E-002    -2.0919548759934514E-008
  -7.0499999999999993E-002     5.0187098921128381E-009
  -6.9399999999999989E-002     2.8316048172882802E-008
  -6.8300000000000000E-002     1.2550323447158007E-008
  -6.7199999999999996E-002    -2.6888070436825728E-008
  -6.6099999999999992E-002    -3.8678408031955769E-008
  -6.5000000000000002E-002    -6.8551369025726672E-009
  -6.3899999999999985E-002     2.4601028769666300E-008
  -6.2799999999999995E-002     1.2652989767047984E-008
  -6.1699999999999991E-002    -2.5253639179823040E-008
  -6.0599999999999994E-002    -3.9294992149052632E-008
  -5.9499999999999990E-002    -1.9398857631358624E-008
  -5.8399999999999994E-002    -3.7799625651757651E-009
  -5.7299999999999990E-002    -1.5911945538960026E-008
  -5.6199999999999986E-002    -3.1371094166843250E-008
  -5.5099999999999996E-002    -2.4942425014273795E-008
  -5.3999999999999992E-002    -1.7670023666482848E-008
  -5.2899999999999989E-002    -4.2288789359190559E-008
  -5.1799999999999985E-002    -8.0368245392037352E-008
  -5.0699999999999995E-002    -7.9865834834436100E-008
  -4.9599999999999991E-002    -3.7826531240625627E-008
  -4.8499999999999988E-002    -1.9334242651325440E-008
  -4.7399999999999998E-002    -6.9026619087253493E-008
  -4.6299999999999994E-002    -1.3945614796284644E-007
  -4.5199999999999990E-002    -1.5010529352821322E-007
  -4.4099999999999986E-002    -1.0022376528695531E-007
  -4.2999999999999997E-002    -7.1628960540692788E-008
  -4.1899999999999993E-002    -1.1481756700959522E-007
  -4.0799999999999989E-002    -1.8240602628338820E-007
  -3.9699999999999985E-002    -2.0380555554311286E-007
  -3.8599999999999995E-002    -1.8461716422280006E-007
  -3.7499999999999992E-002    -1.8539435586717445E-007
  -3.6399999999999988E-002    -2.2213960448880243E-007
  -3.5299999999999984E-002    -2.4808218768157531E-007
  -3.4199999999999994E-002    -2.3942277493915753E-007
  -3.3099999999999991E-002    -2.4102789097923960E-007
  -3.1999999999999987E-002    -2.9296072057150013E-007
  -3.0899999999999997E-002    -3.5235132145317039E-007
  -2.9799999999999993E-002    -3.4702009088505292E-007
  -2.8699999999999989E-002    -2.9066583806525159E-007
  -2.7599999999999986E-002    -2.7511410394254199E-007
  -2.6499999999999996E-002    -3.4223225497953536E-007
  -2.5399999999999992E-002    -4.1563438912817219E-007
  -2.4299999999999988E-002    -4.0557796410212177E-007
  -2.3199999999999985E-002    -3.3558626455487683E-007
  -2.2099999999999995E-002    -3.0267491979429906E-007
  -2.0999999999999991E-002    -3.3746187000360806E-007
  -1.9899999999999987E-002    -3.6665525726675696E-007
  -1.8799999999999983E-002    -3.3259490805903624E-007
  -1.7699999999999994E-002    -2.7417283376962587E-007
  -1.6599999999999990E-002    -2.5789211122173583E-007
  -1.5499999999999986E-002    -2.6231694505440828E-007
  -1.4399999999999996E-002    -2.1656516935308900E-007
  -1.3299999999999992E-002    -1.2116021252950304E-007
  -1.2199999999999989E-002    -5.4208491917506763E-008
  -1.1099999999999985E-002    -5.2535167327505405E-008
  -9.9999999999999950E-003    -4.6219497562560719E-008
  -8.8999999999999913E-003     4.3425711027111902E-008
  -7.7999999999999875E-003     1.8325084738535224E-007
  -6.6999999999999837E-003     2.7374750288799987E-007
  -5.5999999999999939E-003     2.9017428460065275E-007
  -4.4999999999999901E-003     3.1779154596733861E-007
  -3.3999999999999864E-003     4.1801351358117245E-007
  -2.2999999999999826E-003     5.4568761242990149E-007
  -1.1999999999999927E-003     6.2245209164757398E-007
  -9.9999999999988987E-005     6.5508675106684677E-007
   1.0000000000000148E-003     7.1647951926934184E-007
   2.1000000000000185E-003     8.2024030234606471E-007
   3.2000000000000084E-003     8.9965828919957858E-007
   4.3000000000000121E-003     9.1531637735897675E-007
   5.4000000000000159E-003     9.2197944923100295E-007
   6.5000000000000058E-003     9.8255429747950984E-007
   7.6000000000000234E-003     1.0660407951945672E-006
   8.7000000000000133E-003     1.0897762194872485E-006
   9.8000000000000032E-003     1.0417161320219748E-006
   1.0900000000000021E-002     1.0004454225054360E-006
   1.2000000000000011E-002     1.0141277471120702E-006
   1.3100000000000001E-002     1.0332996680517681E-006
   1.4200000000000018E-002     9.8774125945055857E-007
   1.5300000000000008E-002     8.9160232619178714E-007
   1.6400000000000026E-002     8.1567225151957246E-007
   1.7500000000000016E-002     7.7757408689649310E-007
   1.8600000000000005E-002     7.1927610179045587E-007
   1.9700000000000023E-002     6.0410536661947845E-007
   2.0800000000000013E-002     4.7416466486538411E-007
   2.1900000000000003E-002     3.8227753407227283E-007
   2.3000000000000020E-002     3.1133436095842626E-007
   2.4100000000000010E-002     2.0308520731759927E-007
   2.5200000000000000E-002     5.3323503834690200E-008
   2.6300000000000018E-002    -7.7572927636992972E-008
   2.7400000000000008E-002    -1.5835557576338033E-007
   2.8500000000000025E-002    -2.3201145893381181E-007
   2.9600000000000015E-002    -3.4564413908810820E-007
   3.0700000000000005E-002    -4.7818872417337843E-007
   3.1800000000000023E-002    -5.7213458148908103E-007
   3.2900000000000013E-002    -6.1952351870786515E-007
   3.4000000000000002E-002    -6.6679393739832449E-007
   3.5100000000000020E-002    -7.4417170026208623E-007
   3.6200000000000010E-002    -8.1922888739427435E-007
   3.7300000000000028E-002    -8.4832538504997501E-007
   3.8400000000000017E-002    -8.4739008343603928E-007
   3.9500000000000007E-002    -8.5128351656749146E-007
   4.0600000000000025E-002    -8.7099908796517411E-007
   4.1700000000000015E-002    -8.7176823626577971E-007
   4.2800000000000005E-002    -8.3997161937077180E-007
   4.3900000000000022E-002    -7.9741528224985814E-007
   4.5000000000000012E-002    -7.7085888960937154E-007
   4.6100000000000002E-002    -7.4281996376157622E-007
   4.7200000000000020E-002    -6.8444461476246943E-007
   4.8300000000000010E-002    -6.0280274283286417E-007
   4.9400000000000027E-002    -5.2895677526976215E-007
   5.0500000000000017E-002    -4.7751336751389317E-007
   5.1600000000000007E-002    -4.2607842942743446E-007
   5.2700000000000025E-002    -3.5246014817857940E-007
   5.3800000000000014E-002    -2.7143090619574650E-007
   5.4900000000000004E-002    -2.0527983224383206E-007
   5.6000000000000022E-002    -1.5222612148590997E-007
   5.7100000000000012E-002    -9.5095735730410524E-008
   5.8200000000000002E-002    -2.9881888963245729E-008
   5.9300000000000019E-002     2.6623798277114474E-008
   6.0400000000000009E-002     6.5277610872271907E-008
   6.1500000000000027E-002     1.0234159475430715E-007
   6.2600000000000017E-002     1.4813429061177885E-007
   6.3700000000000007E-002     1.8719505590070185E-007
   6.4800000000000024E-002     2.0719743076824670E-007
   6.5900000000000014E-002     2.1617569245790946E-007
   6.7000000000000004E-002     2.3047009278798214E-007
   6.8100000000000022E-002     2.4553537514293566E-007
   6.9200000000000012E-002     2.4568609546804510E-007
   7.0300000000000029E-002     2.3514097335919359E-007
   7.1400000000000019E-002     2.3543420013538707E-007
   7.2500000000000009E-002     2.4659311748109758E-007
   7.3600000000000027E-002     2.4010185484257818E-007
   7.4700000000000016E-002     2.0313277104833105E-007
   7.5800000000000006E-002     1.6620020915070199E-007
   7.6900000000000024E-002     1.6385585865918983E-007
   7.8000000000000014E-002     1.8018204173131380E-007
   7.9100000000000004E-002     1.6903499044929049E-007
   8.0200000000000021E-002     1.2291351936255523E-007
   8.1300000000000011E-002     8.4139465172938799E-008
   8.2400000000000029E-002     8.0473448349493992E-008
   8.3500000000000019E-002     8.3541230821992940E-008
   8.4600000000000009E-002     5.7474228043474795E-008
   8.5700000000000026E-002     2.0246423204639541E-008
   8.6800000000000016E-002     1.6883882736351552E-008
   8.7900000000000006E-002     4.0208185225765192E-008
   8.9000000000000024E-002     3.2893211709961179E-008
   9.0100000000000013E-002    -1.8909815935330698E-008
   9.1200000000000003E-002    -5.6887092370061509E-008
   9.2300000000000021E-002    -3.2378476788608168E-008
   9.3400000000000011E-002     1.3983591173882814E-008
   9.4500000000000028E-002     7.6317254738000884E-009
   9.5600000000000018E-002    -4.8449201983657986E-008
   9.6700000000000008E-002    -7.7907110096475662E-008
   9.7800000000000026E-002    -4.4326899484303794E-008
   9.8900000000000016E-002    -6.2000431455544458E-009
  0.10000000000000001         -2.3236054857989075E-008
  0.10110000000000002         -6.3213150269803009E-008
  0.10220000000000001         -5.4588525699728052E-008
  0.10330000000000003         -4.5118269120791865E-009
  0.10440000000000002          7.2655965688284141E-009
  0.10550000000000001         -4.5152571459539104E-008
  0.10660000000000003         -8.3930039807000867E-008
  0.10770000000000002         -4.2419522117143060E-008
  0.10880000000000001          2.7694273541101211E-008
  0.10990000000000003          2.7745027608716555E-008
  0.11100000000000002         -4.0080355034888271E-008
  0.11210000000000001         -7.3977190595542197E-008
  0.11320000000000002         -2.4121357355966211E-008
  0.11430000000000001          3.2710840258687313E-008
  0.11540000000000003          1.4487466337698152E-008
  0.11650000000000002         -4.0969808878799086E-008
  0.11760000000000001         -3.8871721841360340E-008
  0.11870000000000003          2.0231706088225110E-008
  0.11980000000000002          3.9120330086461763E-008
  0.12090000000000001         -2.0145087376022275E-008
  0.12200000000000003         -6.7821368077147781E-008
  0.12310000000000001         -2.1650333081879580E-008
  0.12420000000000003          6.0599930407079228E-008
  0.12530000000000002          5.9391147999576788E-008
  0.12640000000000001         -2.6385258422578772E-008
  0.12750000000000003         -7.3711674986043363E-008
  0.12860000000000002         -1.6717539352839594E-008
  0.12970000000000001          5.7774908412966397E-008
  0.13080000000000003          4.3183593589901648E-008
  0.13190000000000002         -2.8249608874375554E-008
  0.13300000000000001         -4.2497731556068175E-008
  0.13410000000000000          1.6901319455087105E-008
  0.13520000000000004          4.7423156956938328E-008
  0.13630000000000003         -5.4421507300617122E-009
  0.13740000000000002         -5.7826611055133981E-008
  0.13850000000000001         -1.8864277251395833E-008
  0.13960000000000000          6.0554533831691515E-008
  0.14070000000000005          5.8912810629863088E-008
  0.14180000000000004         -2.8461363044129939E-008
  0.14290000000000003         -7.5446166647452628E-008
  0.14400000000000002         -1.2979508134947082E-008
  0.14510000000000001          6.6342529692065000E-008
  0.14620000000000000          4.6864844449601151E-008
  0.14730000000000004         -3.7961314092171961E-008
  0.14840000000000003         -6.0092318676652212E-008
  0.14950000000000002          8.0719670947360100E-009
  0.15060000000000001          5.6871499509725254E-008
  0.15170000000000000          1.2246842651109091E-008
  0.15280000000000005         -5.0948589347399320E-008
  0.15390000000000004         -2.9455472727590859E-008
  0.15500000000000003          4.5055923436621015E-008
  0.15610000000000002          5.4114000391791706E-008
  0.15720000000000001         -2.2116187992082814E-008
  0.15830000000000000         -7.0569811327914067E-008
  0.15940000000000004         -1.7069908153644064E-008
  0.16050000000000003          5.9762939486063260E-008
  0.16160000000000002          4.7530200220080587E-008
  0.16270000000000001         -3.0551351670737859E-008
  0.16380000000000000         -5.4880480604424520E-008
  0.16490000000000005          7.0981021060845251E-009
  0.16600000000000004          5.5130026765937146E-008
  0.16710000000000003          1.4732475683842949E-008
  0.16820000000000002         -4.8471815006223551E-008
  0.16930000000000001         -3.3559079071210363E-008
  0.17040000000000000          3.7122820373269860E-008
  0.17150000000000004          5.2256535099104440E-008
  0.17260000000000003         -1.5154068222500428E-008
  0.17370000000000002         -6.3899193492034101E-008
  0.17480000000000001         -1.8681436841916366E-008
  0.17590000000000000          5.4832824503137090E-008
  0.17700000000000005          4.9036906091259880E-008
  0.17810000000000004         -2.4571713552745678E-008
  0.17920000000000003         -5.6216450161628018E-008
  0.18030000000000002         -4.3407224481484263E-009
  0.18140000000000001          4.7191537788648930E-008
  0.18250000000000000          2.1905492531004711E-008
  0.18360000000000004         -3.5350304017356393E-008
  0.18470000000000003         -3.4107927149307216E-008
  0.18580000000000002          2.0360277019904061E-008
  0.18690000000000001          3.9335546375696140E-008
  0.18800000000000000         -7.9379862683026658E-009
  0.18910000000000005         -4.6140904430558294E-008
  0.19020000000000004         -1.2523085679561063E-008
  0.19130000000000003          4.4371628149519893E-008
  0.19240000000000002          3.8412814262756001E-008
  0.19350000000000001         -2.2435020952116247E-008
  0.19460000000000005         -4.8503981275871411E-008
  0.19570000000000004         -3.8400158608453694E-009
  0.19680000000000003          4.2239161501811395E-008
  0.19790000000000002          2.2374388564116998E-008
  0.19900000000000001         -2.9322322347979934E-008
  0.20010000000000000         -3.3844223423784570E-008
  0.20120000000000005          1.2330171550445357E-008
  0.20230000000000004          3.6740750886110618E-008
  0.20340000000000003          4.4668380105861161E-009
  0.20450000000000002         -3.1558386126562255E-008
  0.20560000000000000         -1.6041214578876861E-008
  0.20670000000000005          2.3774369140028284E-008
  0.20780000000000004          2.3163776674550718E-008
  0.20890000000000003         -1.8870807139137469E-008
