 -0.12000000000000000          0.0000000000000000     
 -0.11889999999999999          0.0000000000000000     
 -0.11780000000000000          0.0000000000000000     
 -0.11670000000000000          0.0000000000000000     
 -0.11559999999999999          0.0000000000000000     
 -0.11449999999999999          0.0000000000000000     
 -0.11340000000000000          2.0533348363684509E-018
 -0.11230000000000000         -9.6979957825181736E-019
 -0.11119999999999999         -2.4896559831598607E-017
 -0.11009999999999999          3.8447557530714802E-018
 -0.10900000000000000          1.6964722621721909E-016
 -0.10790000000000000          4.5645503722958325E-017
 -0.10679999999999999         -8.1148853311175371E-016
 -0.10569999999999999         -6.2107780297003274E-016
 -0.10460000000000000          2.8311625216930576E-015
 -0.10349999999999999          3.8672674105763843E-015
 -0.10239999999999999         -6.9812214108309466E-015
 -0.10130000000000000         -1.5927695631596378E-014
 -0.10020000000000000          1.0528583111954221E-014
  -9.9099999999999994E-002     4.8915024456050102E-014
  -9.7999999999999990E-002    -1.9299613939453711E-016
  -9.6899999999999986E-002    -1.2244418261427026E-013
  -9.5799999999999996E-002    -6.3902693087179024E-014
  -9.4699999999999993E-002     2.6441327426185435E-013
  -9.3599999999999989E-002     3.0360479755242586E-013
  -9.2499999999999999E-002    -4.5358888086516336E-013
  -9.1399999999999995E-002    -1.0170527614539182E-012
  -9.0299999999999991E-002     3.3441513989408700E-013
  -8.9200000000000002E-002     2.5192732015094643E-012
  -8.8099999999999984E-002     1.2114471752144862E-012
  -8.6999999999999994E-002    -4.2207617609313353E-012
  -8.5899999999999990E-002    -5.6304080321700756E-012
  -8.4799999999999986E-002     3.6200545599357481E-012
  -8.3699999999999997E-002     1.2731349828543070E-011
  -8.2599999999999993E-002     2.5865579209721767E-012
  -8.1499999999999989E-002    -1.9879735010941424E-011
  -8.0399999999999999E-002    -1.6754595974499686E-011
  -7.9299999999999995E-002     2.3728942422085453E-011
  -7.8199999999999992E-002     4.3523410570012189E-011
  -7.7100000000000002E-002    -1.4428699554591695E-011
  -7.5999999999999984E-002    -8.7705405438232020E-011
  -7.4899999999999994E-002    -3.8045993439039805E-011
  -7.3799999999999991E-002     1.2360085177576252E-010
  -7.2699999999999987E-002     1.6119601486952462E-010
  -7.1599999999999997E-002    -7.3054944038641878E-011
  -7.0499999999999993E-002    -3.0860158872769716E-010
  -6.9399999999999989E-002    -1.2512146874144037E-010
  -6.8300000000000000E-002     3.5897551597940947E-010
  -6.7199999999999996E-002     4.3188269627236764E-010
  -6.6099999999999992E-002    -2.1898752255999909E-010
  -6.5000000000000002E-002    -7.6476258659141649E-010
  -6.3899999999999985E-002    -1.9117768479404162E-010
  -6.2799999999999995E-002     9.9250518914573149E-010
  -6.1699999999999991E-002     9.8562458195061708E-010
  -6.0599999999999994E-002    -7.2366673764534539E-010
  -5.9499999999999990E-002    -1.9550792096367786E-009
  -5.8399999999999994E-002    -4.7684600712472047E-010
  -5.7299999999999990E-002     2.2874799832095505E-009
  -5.6199999999999986E-002     2.3349362443525479E-009
  -5.5099999999999996E-002    -1.2367724622208698E-009
  -5.3999999999999992E-002    -3.8300824733994432E-009
  -5.2899999999999989E-002    -1.1312031311661030E-009
  -5.1799999999999985E-002     3.9615870583986634E-009
  -5.0699999999999995E-002     4.0896201980444857E-009
  -4.9599999999999991E-002    -2.0811075085447328E-009
  -4.8499999999999988E-002    -6.4193894644404281E-009
  -4.7399999999999998E-002    -1.9148862495654839E-009
  -4.6299999999999994E-002     6.3437308739366927E-009
  -4.5199999999999990E-002     6.7492114119716007E-009
  -4.4099999999999986E-002    -2.4029982448325882E-009
  -4.2999999999999997E-002    -9.0708143218876103E-009
  -4.1899999999999993E-002    -3.7452747569943767E-009
  -4.0799999999999989E-002     6.4203602434531604E-009
  -3.9699999999999985E-002     7.1585932737150415E-009
  -3.8599999999999995E-002    -2.1858581611411410E-009
  -3.7499999999999992E-002    -7.3953168033824568E-009
  -3.6399999999999988E-002    -5.5819965316672437E-010
  -3.5299999999999984E-002     7.8191844110619968E-009
  -3.4199999999999994E-002     4.8953681108798719E-009
  -3.3099999999999991E-002    -4.5488022237805126E-009
  -3.1999999999999987E-002    -6.0362936871172224E-009
  -3.0899999999999997E-002     6.7444633211621863E-010
  -2.9799999999999993E-002     1.0905687464202174E-009
  -2.8699999999999989E-002    -7.9049655710150546E-009
  -2.7599999999999986E-002    -8.6098701501668984E-009
  -2.6499999999999996E-002     8.9813285697459833E-009
  -2.5399999999999992E-002     2.3493804235386051E-008
  -2.4299999999999988E-002     8.4794224974871213E-009
  -2.3199999999999985E-002    -2.2925455311906262E-008
  -2.2099999999999995E-002    -2.7309566164035459E-008
  -2.0999999999999991E-002     6.6201089055084594E-009
  -1.9899999999999987E-002     3.2309547037812081E-008
  -1.8799999999999983E-002     6.5042078389865310E-009
  -1.7699999999999994E-002    -4.2004355549352113E-008
  -1.6599999999999990E-002    -4.2517591225532669E-008
  -1.5499999999999986E-002     1.8239914467699236E-008
  -1.4399999999999996E-002     6.7605817832827597E-008
  -1.3299999999999992E-002     4.0112883681331368E-008
  -1.2199999999999989E-002    -3.2634265068054447E-008
  -1.1099999999999985E-002    -6.3702103147988964E-008
  -9.9999999999999950E-003    -2.7661700485737128E-008
  -8.8999999999999913E-003     1.2809627136789459E-008
  -7.7999999999999875E-003     2.9800999445939169E-009
  -6.6999999999999837E-003    -3.0470026501916436E-008
  -5.5999999999999939E-003    -3.1158265301201027E-008
  -4.4999999999999901E-003    -2.3154471395780973E-010
  -3.3999999999999864E-003     1.7522747697285013E-008
  -2.2999999999999826E-003     1.3471111337537423E-008
  -1.1999999999999927E-003     1.9051480393272868E-008
  -9.9999999999988987E-005     2.7022517556929415E-008
   1.0000000000000148E-003    -2.0429709479685698E-008
   2.1000000000000185E-003    -1.2663998916195851E-007
   3.2000000000000084E-003    -1.8417934199987940E-007
   4.3000000000000121E-003    -1.0110142767416619E-007
   5.4000000000000159E-003     4.8017810172495956E-008
   6.5000000000000058E-003     8.8101224093861674E-008
   7.6000000000000234E-003    -2.5896271793612868E-008
   8.7000000000000133E-003    -1.3187035108330747E-007
   9.8000000000000032E-003    -7.2251381766363920E-008
   1.0900000000000021E-002     7.3037554670918325E-008
   1.2000000000000011E-002     7.4849218378858495E-008
   1.3100000000000001E-002    -1.2864958875979937E-007
   1.4200000000000018E-002    -3.3224600315406860E-007
   1.5300000000000008E-002    -3.2884943834687874E-007
   1.6400000000000026E-002    -1.5804087638571218E-007
   1.7500000000000016E-002    -2.6720012868963749E-008
   1.8600000000000005E-002    -2.0583536652907242E-008
   1.9700000000000023E-002    -3.1280329437777254E-008
   2.0800000000000013E-002    -1.5085786841950721E-008
   2.1900000000000003E-002    -4.1313882093163556E-008
   2.3000000000000020E-002    -1.2239162572313944E-007
   2.4100000000000010E-002    -1.9349647573108086E-007
   2.5200000000000000E-002    -1.8179871119627933E-007
   2.6300000000000018E-002    -1.6102421795949340E-007
   2.7400000000000008E-002    -2.3714470387403708E-007
   2.8500000000000025E-002    -3.4810142324204207E-007
   2.9600000000000015E-002    -3.0233636039156409E-007
   3.0700000000000005E-002    -5.7187325097629582E-008
   3.1800000000000023E-002     2.1615456091694796E-007
   3.2900000000000013E-002     2.0227831498687010E-007
   3.4000000000000002E-002    -7.5227085005735717E-008
   3.5100000000000020E-002    -9.6932367910085304E-008
   3.6200000000000010E-002     2.0452569060580572E-007
   3.7300000000000028E-002     3.1332959338215005E-007
   3.8400000000000017E-002    -3.1398926125802973E-008
   3.9500000000000007E-002    -3.6497254995992989E-007
   4.0600000000000025E-002    -1.0060237798370508E-007
   4.1700000000000015E-002     4.1956508312068763E-007
   4.2800000000000005E-002     6.5239339619438397E-007
   4.3900000000000022E-002     6.0499587561935186E-007
   4.5000000000000012E-002     4.6484151994263812E-007
   4.6100000000000002E-002     3.1158063507064071E-007
   4.7200000000000020E-002     2.1433145036553469E-007
   4.8300000000000010E-002     5.9997523749188986E-007
   4.9400000000000027E-002     1.3758490240434185E-006
   5.0500000000000017E-002     1.6215650475714938E-006
   5.1600000000000007E-002     8.0861315154834301E-007
   5.2700000000000025E-002    -1.6300711536132440E-007
   5.3800000000000014E-002    -7.1679025381854444E-008
   5.4900000000000004E-002     8.4668914723806665E-007
   5.6000000000000022E-002     1.6984521380436490E-006
   5.7100000000000012E-002     1.4025970358488848E-006
   5.8200000000000002E-002     2.2117038156466151E-007
   5.9300000000000019E-002    -3.4409058002893289E-007
   6.0400000000000009E-002     2.4214182303694542E-007
   6.1500000000000027E-002     1.7718684830470011E-006
   6.2600000000000017E-002     2.3068566861184081E-006
   6.3700000000000007E-002     9.3076005214243196E-007
   6.4800000000000024E-002    -2.7381506129131594E-007
   6.5900000000000014E-002    -4.2712161985036801E-007
   6.7000000000000004E-002    -2.4315656332873914E-007
   6.8100000000000022E-002    -1.8692010428367212E-007
   6.9200000000000012E-002     9.1977241822860378E-008
   7.0300000000000029E-002     5.0141005658588256E-007
   7.1400000000000019E-002    -2.3162108675478521E-007
   7.2500000000000009E-002    -1.8923082052424434E-006
   7.3600000000000027E-002    -2.2019321477273479E-006
   7.4700000000000016E-002    -7.9787767504058138E-008
   7.5800000000000006E-002     1.8817661384673556E-006
   7.6900000000000024E-002     4.2160624502685096E-007
   7.8000000000000014E-002    -3.4389272514090408E-006
   7.9100000000000004E-002    -5.3873618526267819E-006
   8.0200000000000021E-002    -3.4482700357330032E-006
   8.1300000000000011E-002    -5.1548024515568613E-008
   8.2400000000000029E-002     1.2123280157538829E-006
   8.3500000000000019E-002    -7.1436841153627029E-007
   8.4600000000000009E-002    -3.8999914977466688E-006
   8.5700000000000026E-002    -5.4249335335043725E-006
   8.6800000000000016E-002    -3.7323995911719976E-006
   8.7900000000000006E-002     7.3335271189023388E-010
   8.9000000000000024E-002     2.7690723527484806E-006
   9.0100000000000013E-002     2.0621687326638494E-006
   9.1200000000000003E-002    -2.3838865672587417E-006
   9.2300000000000021E-002    -6.8500853558361996E-006
   9.3400000000000011E-002    -6.1809287217329256E-006
   9.4500000000000028E-002     4.4376193386597151E-008
   9.5600000000000018E-002     6.4787727751536295E-006
   9.6700000000000008E-002     6.2316203184309416E-006
   9.7800000000000026E-002    -8.1305711319146212E-007
   9.8900000000000016E-002    -6.5974122662737500E-006
  0.10000000000000001         -4.5687484089285135E-006
  0.10110000000000002          1.7138177099695895E-006
  0.10220000000000001          5.6798448895278852E-006
  0.10330000000000003          5.3179887800069991E-006
  0.10440000000000002          2.1718869902542792E-006
  0.10550000000000001         -1.8057548913930077E-006
  0.10660000000000003         -3.7961146972520510E-006
  0.10770000000000002         -1.9510785875809233E-007
  0.10880000000000001          7.1938707151275594E-006
  0.10990000000000003          1.0972891686833464E-005
  0.11100000000000002          5.6941375987662468E-006
  0.11210000000000001         -3.7479621823877096E-006
  0.11320000000000002         -8.3903096310677938E-006
  0.11430000000000001         -4.0518912101106253E-006
  0.11540000000000003          5.9818621593876742E-006
  0.11650000000000002          1.2223712474224158E-005
  0.11760000000000001          8.3864060798077844E-006
  0.11870000000000003         -1.4075553735892754E-006
  0.11980000000000002         -7.0544638219871558E-006
  0.12090000000000001         -4.4291241465543862E-006
  0.12200000000000003          2.2704382445226656E-006
  0.12310000000000001          6.7777259573631454E-006
  0.12420000000000003          5.5671612244623248E-006
  0.12530000000000002         -4.0423984160042892E-007
  0.12640000000000001         -6.1270043261174578E-006
  0.12750000000000003         -6.2626468206872232E-006
  0.12860000000000002         -1.1295486501694540E-006
  0.12970000000000001          4.7891526264720596E-006
  0.13080000000000003          6.8631825342890806E-006
  0.13190000000000002          3.1224310532707023E-006
  0.13300000000000001         -3.7626273297064472E-006
  0.13410000000000000         -8.5553856479236856E-006
  0.13520000000000004         -7.3253149821539409E-006
  0.13630000000000003         -5.0084474878531182E-007
  0.13740000000000002          6.2677295318280812E-006
  0.13850000000000001          6.6379852796671912E-006
  0.13960000000000000         -2.5222172794769904E-008
  0.14070000000000005         -7.2127863859350327E-006
  0.14180000000000004         -7.8244001997518353E-006
  0.14290000000000003         -1.7710415249894140E-006
  0.14400000000000002          4.6758846110606100E-006
  0.14510000000000001          5.8817786339204758E-006
  0.14620000000000000          1.9777125999098644E-006
  0.14730000000000004         -3.0193668862921186E-006
  0.14840000000000003         -5.8792579693545122E-006
  0.14950000000000002         -5.5141672419267707E-006
  0.15060000000000001         -1.8091021729560453E-006
  0.15170000000000000          4.1787347981880885E-006
  0.15280000000000005          8.1617372416076250E-006
  0.15390000000000004          4.7234461817424744E-006
  0.15500000000000003         -4.9776072046370246E-006
  0.15610000000000002         -1.1058370546379592E-005
  0.15720000000000001         -5.6323538046854082E-006
  0.15830000000000000          6.4337054936913773E-006
  0.15940000000000004          1.1778746738855261E-005
  0.16050000000000003          4.3781710701296106E-006
  0.16160000000000002         -6.8027889028599020E-006
  0.16270000000000001         -9.6805806606425904E-006
  0.16380000000000000         -3.3896594686666504E-006
  0.16490000000000005          3.6139670100965304E-006
  0.16600000000000004          5.6716407925705425E-006
  0.16710000000000003          4.4962612264498603E-006
  0.16820000000000002          2.6469078875379637E-006
  0.16930000000000001         -1.0134324384125648E-006
  0.17040000000000000         -6.2727667682338506E-006
  0.17150000000000004         -7.1454464887210634E-006
  0.17260000000000003          6.3280100448537269E-007
  0.17370000000000002          1.0230651241727173E-005
  0.17480000000000001          9.4297365649254061E-006
  0.17590000000000000         -3.0328917546285084E-006
  0.17700000000000005         -1.3168657460482791E-005
  0.17810000000000004         -8.4588309618993662E-006
  0.17920000000000003          5.6140011110983323E-006
  0.18030000000000002          1.2388951290631667E-005
  0.18140000000000001          5.3768858379044104E-006
  0.18250000000000000         -4.8819447329151444E-006
  0.18360000000000004         -6.6481452449806966E-006
  0.18470000000000003         -1.6742494608479319E-006
  0.18580000000000002          1.0849668115042732E-006
  0.18690000000000001          1.2290948347981612E-007
  0.18800000000000000          1.3157958846932161E-006
  0.18910000000000005          5.0136814024881460E-006
  0.19020000000000004          3.5482089515426196E-006
  0.19130000000000003         -5.1215033636253793E-006
  0.19240000000000002         -1.0361763088440057E-005
  0.19350000000000001         -2.8322838261374272E-006
  0.19460000000000005          9.9548251455416903E-006
  0.19570000000000004          1.1559863196453080E-005
  0.19680000000000003         -7.9294528632090078E-007
  0.19790000000000002         -1.1466074283816852E-005
  0.19900000000000001         -7.5023508543381467E-006
  0.20010000000000000          4.2369842958578374E-006
  0.20120000000000005          7.9116380220511928E-006
  0.20230000000000004          9.3971800652070669E-007
  0.20340000000000003         -4.6564050535380375E-006
  0.20450000000000002         -1.6320364011335187E-006
  0.20560000000000000          2.7983439849776914E-006
  0.20670000000000005          5.2257934157751151E-007
  0.20780000000000004         -3.7711286040575942E-006
  0.20890000000000003         -8.6124379095053882E-007
