 -0.12000000000000000          0.0000000000000000     
 -0.11889999999999999          0.0000000000000000     
 -0.11780000000000000         -1.5760657240420753E-033
 -0.11670000000000000         -1.3550493171976541E-008
 -0.11559999999999999          4.5017486627330072E-008
 -0.11449999999999999          5.3513293352125402E-008
 -0.11340000000000000         -3.1081924589670962E-007
 -0.11230000000000000         -2.7573008765102713E-007
 -0.11119999999999999          1.2863783922512084E-006
 -0.11009999999999999          1.6800777302705683E-006
 -0.10900000000000000         -3.4199526908196276E-006
 -0.10790000000000000         -7.7485401561716571E-006
 -0.10679999999999999          3.7166212223382900E-006
 -0.10569999999999999          2.3921140382299200E-005
 -0.10460000000000000          1.2480368241085671E-005
 -0.10349999999999999         -4.3498250306583941E-005
 -0.10239999999999999         -6.9086636358406395E-005
 -0.10130000000000000          1.9003753550350666E-005
 -0.10020000000000000          1.4771892165299505E-004
  -9.9099999999999994E-002     1.1354994785506278E-004
  -9.7999999999999990E-002    -1.2561267067212611E-004
  -9.6899999999999986E-002    -2.8829945949837565E-004
  -9.5799999999999996E-002    -9.6643023425713181E-005
  -9.4699999999999993E-002     2.6992143830284476E-004
  -9.3599999999999989E-002     3.2502668909728527E-004
  -9.2499999999999999E-002    -3.3384858397766948E-005
  -9.1399999999999995E-002    -2.9695563716813922E-004
  -9.0299999999999991E-002    -6.8482215283438563E-005
  -8.9200000000000002E-002     2.7522811433300376E-004
  -8.8099999999999984E-002     1.0228441533399746E-004
  -8.6999999999999994E-002    -4.3246013228781521E-004
  -8.5899999999999990E-002    -4.9852090887725353E-004
  -8.4799999999999986E-002     1.3584295811597258E-004
  -8.3699999999999997E-002     6.4473261591047049E-004
  -8.2599999999999993E-002     3.9464715518988669E-004
  -8.1499999999999989E-002    -3.3394575439160690E-005
  -8.0399999999999999E-002     1.0607418516883627E-004
  -7.9299999999999995E-002     1.7763926007319242E-004
  -7.8199999999999992E-002    -1.0205942671746016E-003
  -7.7100000000000002E-002    -2.9080079402774572E-003
  -7.5999999999999984E-002    -3.2130789477378130E-003
  -7.4899999999999994E-002    -1.2291569728404284E-003
  -7.3799999999999991E-002     5.3333130199462175E-004
  -7.2699999999999987E-002    -3.8427094114013016E-004
  -7.1599999999999997E-002    -2.4793501943349838E-003
  -7.0499999999999993E-002    -2.1058288402855396E-003
  -6.9399999999999989E-002     8.0684997374191880E-004
  -6.8300000000000000E-002     1.7622420564293861E-003
  -6.7199999999999996E-002    -2.1005745511502028E-003
  -6.6099999999999992E-002    -7.3480410501360893E-003
  -6.5000000000000002E-002    -8.6116185411810875E-003
  -6.3899999999999985E-002    -6.1159553006291389E-003
  -6.2799999999999995E-002    -5.1198196597397327E-003
  -6.1699999999999991E-002    -7.9795848578214645E-003
  -6.0599999999999994E-002    -1.1103217490017414E-002
  -5.9499999999999990E-002    -1.1529673822224140E-002
  -5.8399999999999994E-002    -1.2256154790520668E-002
  -5.7299999999999990E-002    -1.7035266384482384E-002
  -5.6199999999999986E-002    -2.2989805787801743E-002
  -5.5099999999999996E-002    -2.4437371641397476E-002
  -5.3999999999999992E-002    -2.3327661678195000E-002
  -5.2899999999999989E-002    -2.8544763103127480E-002
  -5.1799999999999985E-002    -4.2123284190893173E-002
  -5.0699999999999995E-002    -5.3265854716300964E-002
  -4.9599999999999991E-002    -5.2613120526075363E-002
  -4.8499999999999988E-002    -4.7951035201549530E-002
  -4.7399999999999998E-002    -5.6060276925563812E-002
  -4.6299999999999994E-002    -7.9341001808643341E-002
  -4.5199999999999990E-002   -0.10089156031608582     
  -4.4099999999999986E-002   -0.10734082013368607     
  -4.2999999999999997E-002   -0.10737554728984833     
  -4.1899999999999993E-002   -0.11876358091831207     
  -4.0799999999999989E-002   -0.14317186176776886     
  -3.9699999999999985E-002   -0.16606682538986206     
  -3.8599999999999995E-002   -0.18039147555828094     
  -3.7499999999999992E-002   -0.19596013426780701     
  -3.6399999999999988E-002   -0.22035904228687286     
  -3.5299999999999984E-002   -0.24405249953269958     
  -3.4199999999999994E-002   -0.25715702772140503     
  -3.3099999999999991E-002   -0.27054059505462646     
  -3.1999999999999987E-002   -0.30276501178741455     
  -3.0899999999999997E-002   -0.34753888845443726     
  -2.9799999999999993E-002   -0.37493240833282471     
  -2.8699999999999989E-002   -0.37270244956016541     
  -2.7599999999999986E-002   -0.36899796128273010     
  -2.6499999999999996E-002   -0.39639285206794739     
  -2.5399999999999992E-002   -0.44357287883758545     
  -2.4299999999999988E-002   -0.46838787198066711     
  -2.3199999999999985E-002   -0.45502051711082458     
  -2.2099999999999995E-002   -0.43473789095878601     
  -2.0999999999999991E-002   -0.43734732270240784     
  -1.9899999999999987E-002   -0.44940164685249329     
  -1.8799999999999983E-002   -0.43703880906105042     
  -1.7699999999999994E-002   -0.39829394221305847     
  -1.6599999999999990E-002   -0.36199161410331726     
  -1.5499999999999986E-002   -0.33449876308441162     
  -1.4399999999999996E-002   -0.28397721052169800     
  -1.3299999999999992E-002   -0.19304615259170532     
  -1.2199999999999989E-002    -9.4820238649845123E-002
  -1.1099999999999985E-002    -2.5130607187747955E-002
  -9.9999999999999950E-003     3.7627156823873520E-002
  -8.8999999999999913E-003    0.15078134834766388     
  -7.7999999999999875E-003    0.32223492860794067     
  -6.6999999999999837E-003    0.49205005168914795     
  -5.5999999999999939E-003    0.61789315938949585     
  -4.4999999999999901E-003    0.73371541500091553     
  -3.3999999999999864E-003    0.90198212862014771     
  -2.2999999999999826E-003     1.1153516769409180     
  -1.1999999999999927E-003     1.3108881711959839     
  -9.9999999999988987E-005     1.4646006822586060     
   1.0000000000000148E-003     1.6210448741912842     
   2.1000000000000185E-003     1.8215438127517700     
   3.2000000000000084E-003     2.0251328945159912     
   4.3000000000000121E-003     2.1688416004180908     
   5.4000000000000159E-003     2.2672417163848877     
   6.5000000000000058E-003     2.3914194107055664     
   7.6000000000000234E-003     2.5514605045318604     
   8.7000000000000133E-003     2.6720926761627197     
   9.8000000000000032E-003     2.6901924610137939     
   1.0900000000000021E-002     2.6538417339324951     
   1.2000000000000011E-002     2.6454095840454102     
   1.3100000000000001E-002     2.6574478149414062     
   1.4200000000000018E-002     2.5948064327239990     
   1.5300000000000008E-002     2.4227881431579590     
   1.6400000000000026E-002     2.2117846012115479     
   1.7500000000000016E-002     2.0296804904937744     
   1.8600000000000005E-002     1.8257853984832764     
   1.9700000000000023E-002     1.5218765735626221     
   2.0800000000000013E-002     1.1327532529830933     
   2.1900000000000003E-002    0.75943082571029663     
   2.3000000000000020E-002    0.43016874790191650     
   2.4100000000000010E-002     5.7531151920557022E-002
   2.5200000000000000E-002   -0.43065303564071655     
   2.6300000000000018E-002   -0.96465635299682617     
   2.7400000000000008E-002    -1.4223507642745972     
   2.8500000000000025E-002    -1.8055018186569214     
   2.9600000000000015E-002    -2.2252466678619385     
   3.0700000000000005E-002    -2.7302203178405762     
   3.1800000000000023E-002    -3.2194068431854248     
   3.2900000000000013E-002    -3.5895996093750000     
   3.4000000000000002E-002    -3.8795421123504639     
   3.5100000000000020E-002    -4.1984500885009766     
   3.6200000000000010E-002    -4.5416646003723145     
   3.7300000000000028E-002    -4.7867898941040039     
   3.8400000000000017E-002    -4.8799123764038086     
   3.9500000000000007E-002    -4.9199976921081543     
   4.0600000000000025E-002    -5.0019679069519043     
   4.1700000000000015E-002    -5.0607151985168457     
   4.2800000000000005E-002    -4.9590330123901367     
   4.3900000000000022E-002    -4.6989197731018066     
   4.5000000000000012E-002    -4.4308142662048340     
   4.6100000000000002E-002    -4.2211294174194336     
   4.7200000000000020E-002    -3.9610011577606201     
   4.8300000000000010E-002    -3.5390276908874512     
   4.9400000000000027E-002    -3.0153911113739014     
   5.0500000000000017E-002    -2.5371844768524170     
   5.1600000000000007E-002    -2.1233880519866943     
   5.2700000000000025E-002    -1.6477066278457642     
   5.3800000000000014E-002    -1.0390927791595459     
   5.4900000000000004E-002   -0.42164120078086853     
   5.6000000000000022E-002     7.3692306876182556E-002
   5.7100000000000012E-002    0.49556401371955872     
   5.8200000000000002E-002    0.98889750242233276     
   5.9300000000000019E-002     1.5712866783142090     
   6.0400000000000009E-002     2.0790255069732666     
   6.1500000000000027E-002     2.4116985797882080     
   6.2600000000000017E-002     2.6756451129913330     
   6.3700000000000007E-002     3.0157291889190674     
   6.4800000000000024E-002     3.3827831745147705     
   6.5900000000000014E-002     3.6138126850128174     
   6.7000000000000004E-002     3.6723411083221436     
   6.8100000000000022E-002     3.7140004634857178     
   6.9200000000000012E-002     3.8352015018463135     
   7.0300000000000029E-002     3.9250838756561279     
   7.1400000000000019E-002     3.8333218097686768     
   7.2500000000000009E-002     3.6140286922454834     
   7.3600000000000027E-002     3.4559473991394043     
   7.4700000000000016E-002     3.3978955745697021     
   7.5800000000000006E-002     3.2666623592376709     
   7.6900000000000024E-002     2.9485428333282471     
   7.8000000000000014E-002     2.5677976608276367     
   7.9100000000000004E-002     2.3092622756958008     
   8.0200000000000021E-002     2.1470308303833008     
   8.1300000000000011E-002     1.8952673673629761     
   8.2400000000000029E-002     1.5007773637771606     
   8.3500000000000019E-002     1.1280809640884399     
   8.4600000000000009E-002    0.90799331665039062     
   8.5700000000000026E-002    0.73973381519317627     
   8.6800000000000016E-002    0.45544111728668213     
   8.7900000000000006E-002     9.0695619583129883E-002
   8.9000000000000024E-002   -0.16027188301086426     
   9.0100000000000013E-002   -0.24443648755550385     
   9.1200000000000003E-002   -0.33769989013671875     
   9.2300000000000021E-002   -0.57610368728637695     
   9.3400000000000011E-002   -0.84346354007720947     
   9.4500000000000028E-002   -0.94322127103805542     
   9.5600000000000018E-002   -0.89586591720581055     
   9.6700000000000008E-002   -0.91013956069946289     
   9.7800000000000026E-002    -1.0663973093032837     
   9.8900000000000016E-002    -1.1981759071350098     
  0.10000000000000001         -1.1543475389480591     
  0.10110000000000002         -1.0326950550079346     
  0.10220000000000001         -1.0250644683837891     
  0.10330000000000003         -1.1206479072570801     
  0.10440000000000002         -1.1255474090576172     
  0.10550000000000001        -0.96940326690673828     
  0.10660000000000003        -0.82082515954971313     
  0.10770000000000002        -0.83344858884811401     
  0.10880000000000001        -0.90629547834396362     
  0.10990000000000003        -0.83705085515975952     
  0.11100000000000002        -0.63364362716674805     
  0.11210000000000001        -0.50494951009750366     
  0.11320000000000002        -0.54528719186782837     
  0.11430000000000001        -0.59457719326019287     
  0.11540000000000003        -0.48646351695060730     
  0.11650000000000002        -0.30185586214065552     
  0.11760000000000001        -0.23962691426277161     
  0.11870000000000003        -0.31011226773262024     
  0.11980000000000002        -0.32289257645606995     
  0.12090000000000001        -0.18603985011577606     
  0.12200000000000003         -4.7335926443338394E-002
  0.12310000000000001         -6.6243417561054230E-002
  0.12420000000000003        -0.16402149200439453     
  0.12530000000000002        -0.14391903579235077     
  0.12640000000000001          5.4717296734452248E-003
  0.12750000000000003          9.2052616178989410E-002
  0.12860000000000002          1.4936208724975586E-002
  0.12970000000000001         -8.1489279866218567E-002
  0.13080000000000003         -2.9569532722234726E-002
  0.13190000000000002         0.10599569231271744     
  0.13300000000000001         0.13093957304954529     
  0.13410000000000000          2.0408516749739647E-002
  0.13520000000000004         -4.5226510614156723E-002
  0.13630000000000003          4.0338296443223953E-002
  0.13740000000000002         0.14791230857372284     
  0.13850000000000001         0.11410015076398849     
  0.13960000000000000         -8.0237714573740959E-003
  0.14070000000000005         -3.2009117305278778E-002
  0.14180000000000004          7.5301237404346466E-002
  0.14290000000000003         0.14692637324333191     
  0.14400000000000002          7.3934972286224365E-002
  0.14510000000000001         -3.0326627194881439E-002
  0.14620000000000000         -9.7279027104377747E-003
  0.14730000000000004          9.5030814409255981E-002
  0.14840000000000003         0.11461637914180756     
  0.14950000000000002          1.5419030562043190E-002
  0.15060000000000001         -5.0294939428567886E-002
  0.15170000000000000          1.7767479643225670E-002
  0.15280000000000005         0.11124306917190552     
  0.15390000000000004          8.1286497414112091E-002
  0.15500000000000003         -3.1533777713775635E-002
  0.15610000000000002         -5.9438370168209076E-002
  0.15720000000000001          3.6874838173389435E-002
  0.15830000000000000         0.11010171473026276     
  0.15940000000000004          5.0872445106506348E-002
  0.16050000000000003         -5.0501655787229538E-002
  0.16160000000000002         -4.6167965978384018E-002
  0.16270000000000001          4.7093220055103302E-002
  0.16380000000000000          8.2239232957363129E-002
  0.16490000000000005          9.9346665665507317E-003
  0.16600000000000004         -5.3162600845098495E-002
  0.16710000000000003         -1.1118171736598015E-002
  0.16820000000000002          6.4699314534664154E-002
  0.16930000000000001          5.2303638309240341E-002
  0.17040000000000000         -2.9631657525897026E-002
  0.17150000000000004         -5.3162466734647751E-002
  0.17260000000000003          1.8730459734797478E-002
  0.17370000000000002          7.4914850294589996E-002
  0.17480000000000001          2.7712468057870865E-002
  0.17590000000000000         -5.2710030227899551E-002
  0.17700000000000005         -4.6527512371540070E-002
  0.17810000000000004          3.4390386193990707E-002
  0.17920000000000003          6.7830234766006470E-002
  0.18030000000000002          6.9934334605932236E-003
  0.18140000000000001         -5.3385503590106964E-002
  0.18250000000000000         -2.4978408589959145E-002
  0.18360000000000004          4.3469056487083435E-002
  0.18470000000000003          4.6808104962110519E-002
  0.18580000000000002         -1.6213728114962578E-002
  0.18690000000000001         -4.7398742288351059E-002
  0.18800000000000000         -2.4786137510091066E-003
  0.18910000000000005          4.5269567519426346E-002
  0.19020000000000004          2.2403763607144356E-002
  0.19130000000000003         -3.3433504402637482E-002
  0.19240000000000002         -3.6516699939966202E-002
  0.19350000000000001          1.4296892099082470E-002
  0.19460000000000005          3.7679839879274368E-002
  0.19570000000000004         -2.7062075678259134E-003
  0.19680000000000003         -4.4628404080867767E-002
  0.19790000000000002         -2.5695892050862312E-002
  0.19900000000000001          2.1709984168410301E-002
  0.20010000000000000          2.2764112800359726E-002
  0.20120000000000005         -2.5338497012853622E-002
  0.20230000000000004         -5.2158202975988388E-002
  0.20340000000000003         -2.2638201713562012E-002
  0.20450000000000002          1.2473087757825851E-002
  0.20560000000000000         -3.5971750039607286E-003
  0.20670000000000005         -4.9331128597259521E-002
  0.20780000000000004         -6.1564575880765915E-002
  0.20890000000000003         -3.1316868960857391E-002
