 -0.12000000000000000          0.0000000000000000     
 -0.11889999999999999          0.0000000000000000     
 -0.11780000000000000          0.0000000000000000     
 -0.11670000000000000          0.0000000000000000     
 -0.11559999999999999          0.0000000000000000     
 -0.11449999999999999          0.0000000000000000     
 -0.11340000000000000          2.0533333888023789E-018
 -0.11230000000000000          1.2251536454669638E-018
 -0.11119999999999999         -2.0092491702876410E-017
 -0.11009999999999999         -2.0840848620498034E-017
 -0.10900000000000000          7.5648082385363036E-017
 -0.10790000000000000          7.0868831329378655E-017
 -0.10679999999999999         -1.9141102311286910E-016
 -0.10569999999999999          2.9956344560118917E-016
 -0.10460000000000000          1.6836023906320499E-015
 -0.10349999999999999         -1.5620693622061740E-015
 -0.10239999999999999         -1.2462664262396801E-014
 -0.10130000000000000         -9.2464352689260176E-015
 -0.10020000000000000          3.8092155840198372E-014
  -9.9099999999999994E-002     8.5302147019138824E-014
  -9.7999999999999990E-002     2.5351685523409368E-015
  -9.6899999999999986E-002    -2.2073827683245784E-013
  -9.5799999999999996E-002    -3.0220303256361936E-013
  -9.4699999999999993E-002     2.5191022431556541E-014
  -9.3599999999999989E-002     5.1166102604804919E-013
  -9.2499999999999999E-002     6.7821551326396889E-013
  -9.1399999999999995E-002     6.5971349477028651E-013
  -9.0299999999999991E-002     6.6506386986117660E-013
  -8.9200000000000002E-002    -8.1036831975703216E-013
  -8.8099999999999984E-002    -5.5713268200252575E-012
  -8.6999999999999994E-002    -9.6427718240810201E-012
  -8.5899999999999990E-002    -2.2771179473274339E-012
  -8.4799999999999986E-002     2.0021815802517828E-011
  -8.3699999999999997E-002     3.7833257360286865E-011
  -8.2599999999999993E-002     2.1393288182625092E-011
  -8.1499999999999989E-002    -3.0387987265401151E-011
  -8.0399999999999999E-002    -7.6609704691144032E-011
  -7.9299999999999995E-002    -7.8853382157184626E-011
  -7.8199999999999992E-002    -4.3702128721401223E-011
  -7.7100000000000002E-002     1.4185408923894638E-011
  -7.5999999999999984E-002     1.3021589362338659E-010
  -7.4899999999999994E-002     3.1957378410218951E-010
  -7.3799999999999991E-002     4.1642717052425837E-010
  -7.2699999999999987E-002     1.2392888104617583E-010
  -7.1599999999999997E-002    -5.9405425023584257E-010
  -7.0499999999999993E-002    -1.2226473167231688E-009
  -6.9399999999999989E-002    -1.0753077317460225E-009
  -6.8300000000000000E-002    -8.2700214731890043E-011
  -6.7199999999999996E-002     1.0535944339196135E-009
  -6.6099999999999992E-002     1.7162943288795418E-009
  -6.5000000000000002E-002     2.0552701762710512E-009
  -6.3899999999999985E-002     2.2871231575294360E-009
  -6.2799999999999995E-002     1.5559258326192094E-009
  -6.1699999999999991E-002    -1.4017540461708222E-009
  -6.0599999999999994E-002    -5.8784364043162896E-009
  -5.9499999999999990E-002    -8.5155473783515845E-009
  -5.8399999999999994E-002    -6.4707701419308705E-009
  -5.7299999999999990E-002    -9.9477270865122591E-010
  -5.6199999999999986E-002     3.9836289822403614E-009
  -5.5099999999999996E-002     7.2912831328153516E-009
  -5.3999999999999992E-002     1.2107840952069182E-008
  -5.2899999999999989E-002     1.9839548670574914E-008
  -5.1799999999999985E-002     2.4082014604687174E-008
  -5.0699999999999995E-002     1.5000697572986610E-008
  -4.9599999999999991E-002    -8.9684206727724813E-009
  -4.8499999999999988E-002    -3.7253386153679457E-008
  -4.7399999999999998E-002    -5.7518072082984872E-008
  -4.6299999999999994E-002    -6.6478051508056524E-008
  -4.5199999999999990E-002    -6.5362513623767882E-008
  -4.4099999999999986E-002    -4.6994696134561309E-008
  -4.2999999999999997E-002     2.8166635690496378E-009
  -4.1899999999999993E-002     8.5035729568971874E-008
  -4.0799999999999989E-002     1.7364033055855543E-007
  -3.9699999999999985E-002     2.3028060525120964E-007
  -3.8599999999999995E-002     2.3204458443615295E-007
  -3.7499999999999992E-002     1.7786939565667126E-007
  -3.6399999999999988E-002     6.9101488975320535E-008
  -3.5299999999999984E-002    -1.0199848787806332E-007
  -3.4199999999999994E-002    -3.3289859402430011E-007
  -3.3099999999999991E-002    -5.8454168083699187E-007
  -3.1999999999999987E-002    -7.8551391879955190E-007
  -3.0899999999999997E-002    -8.6215345618256833E-007
  -2.9799999999999993E-002    -7.5639547958417097E-007
  -2.8699999999999989E-002    -4.2018893964268500E-007
  -2.7599999999999986E-002     1.8087693831603247E-007
  -2.6499999999999996E-002     1.0371308007961488E-006
  -2.5399999999999992E-002     2.0757775018864777E-006
  -2.4299999999999988E-002     3.1938620850269217E-006
  -2.3199999999999985E-002     4.3135351006640121E-006
  -2.2099999999999995E-002     5.3915846365271136E-006
  -2.0999999999999991E-002     6.3824045355431736E-006
  -1.9899999999999987E-002     7.2358161560259759E-006
  -1.8799999999999983E-002     7.9719320638105273E-006
  -1.7699999999999994E-002     8.7519138105562888E-006
  -1.6599999999999990E-002     9.8392483778297901E-006
  -1.5499999999999986E-002     1.1480561624921393E-005
  -1.4399999999999996E-002     1.3847276932210661E-005
  -1.3299999999999992E-002     1.7095786461140960E-005
  -1.2199999999999989E-002     2.1431478671729565E-005
  -1.1099999999999985E-002     2.7056006729253568E-005
  -9.9999999999999950E-003     3.4060620237141848E-005
  -8.8999999999999913E-003     4.2434541683178395E-005
  -7.7999999999999875E-003     5.2215091272955760E-005
  -6.6999999999999837E-003     6.3611405494157225E-005
  -5.5999999999999939E-003     7.6968404755461961E-005
  -4.4999999999999901E-003     9.2658854555338621E-005
  -3.3999999999999864E-003     1.1107420868938789E-004
  -2.2999999999999826E-003     1.3271432544570416E-004
  -1.1999999999999927E-003     1.5822591376490891E-004
  -9.9999999999988987E-005     1.8832940259017050E-004
   1.0000000000000148E-003     2.2375139815267175E-004
   2.1000000000000185E-003     2.6526238070800900E-004
   3.2000000000000084E-003     3.1371979275718331E-004
   4.3000000000000121E-003     3.7000238080509007E-004
   5.4000000000000159E-003     4.3492249096743762E-004
   6.5000000000000058E-003     5.0930411089211702E-004
   7.6000000000000234E-003     5.9418485034257174E-004
   8.7000000000000133E-003     6.9085822906345129E-004
   9.8000000000000032E-003     8.0065237125381827E-004
   1.0900000000000021E-002     9.2470034724101424E-004
   1.2000000000000011E-002     1.0640528053045273E-003
   1.3100000000000001E-002     1.2200016062706709E-003
   1.4200000000000018E-002     1.3941439101472497E-003
   1.5300000000000008E-002     1.5880698338150978E-003
   1.6400000000000026E-002     1.8030303763225675E-003
   1.7500000000000016E-002     2.0399168133735657E-003
   1.8600000000000005E-002     2.2994820028543472E-003
   1.9700000000000023E-002     2.5823917239904404E-003
   2.0800000000000013E-002     2.8890219982713461E-003
   2.1900000000000003E-002     3.2192585058510303E-003
   2.3000000000000020E-002     3.5726015921682119E-003
   2.4100000000000010E-002     3.9483183063566685E-003
   2.5200000000000000E-002     4.3453080579638481E-003
   2.6300000000000018E-002     4.7618807293474674E-003
   2.7400000000000008E-002     5.1955967210233212E-003
   2.8500000000000025E-002     5.6434059515595436E-003
   2.9600000000000015E-002     6.1016930267214775E-003
   3.0700000000000005E-002     6.5657738596200943E-003
   3.1800000000000023E-002     7.0296274498105049E-003
   3.2900000000000013E-002     7.4862428009510040E-003
   3.4000000000000002E-002     7.9279839992523193E-003
   3.5100000000000020E-002     8.3464207127690315E-003
   3.6200000000000010E-002     8.7318774312734604E-003
   3.7300000000000028E-002     9.0738506987690926E-003
   3.8400000000000017E-002     9.3615530058741570E-003
   3.9500000000000007E-002     9.5838000997900963E-003
   4.0600000000000025E-002     9.7284959629178047E-003
   4.1700000000000015E-002     9.7826346755027771E-003
   4.2800000000000005E-002     9.7329542040824890E-003
   4.3900000000000022E-002     9.5665426924824715E-003
   4.5000000000000012E-002     9.2708785086870193E-003
   4.6100000000000002E-002     8.8335471227765083E-003
   4.7200000000000020E-002     8.2422401756048203E-003
   4.8300000000000010E-002     7.4858358129858971E-003
   4.9400000000000027E-002     6.5559977665543556E-003
   5.0500000000000017E-002     5.4462626576423645E-003
   5.1600000000000007E-002     4.1511766612529755E-003
   5.2700000000000025E-002     2.6674373075366020E-003
   5.3800000000000014E-002     9.9480303470045328E-004
   5.4900000000000004E-002    -8.6269516032189131E-004
   5.6000000000000022E-002    -2.8979617636650801E-003
   5.7100000000000012E-002    -5.1014567725360394E-003
   5.8200000000000002E-002    -7.4597825296223164E-003
   5.9300000000000019E-002    -9.9553354084491730E-003
   6.0400000000000009E-002    -1.2565934099256992E-002
   6.1500000000000027E-002    -1.5267016366124153E-002
   6.2600000000000017E-002    -1.8030745908617973E-002
   6.3700000000000007E-002    -2.0823996514081955E-002
   6.4800000000000024E-002    -2.3609334602952003E-002
   6.5900000000000014E-002    -2.6346869766712189E-002
   6.7000000000000004E-002    -2.8997672721743584E-002
   6.8100000000000022E-002    -3.1524371355772018E-002
   6.9200000000000012E-002    -3.3884171396493912E-002
   7.0300000000000029E-002    -3.6026883870363235E-002
   7.1400000000000019E-002    -3.7905532866716385E-002
   7.2500000000000009E-002    -3.9481941610574722E-002
   7.3600000000000027E-002    -4.0722340345382690E-002
   7.4700000000000016E-002    -4.1591275483369827E-002
   7.5800000000000006E-002    -4.2052205651998520E-002
   7.6900000000000024E-002    -4.2073857039213181E-002
   7.8000000000000014E-002    -4.1634522378444672E-002
   7.9100000000000004E-002    -4.0719948709011078E-002
   8.0200000000000021E-002    -3.9320044219493866E-002
   8.1300000000000011E-002    -3.7432584911584854E-002
   8.2400000000000029E-002    -3.5065393894910812E-002
   8.3500000000000019E-002    -3.2232262194156647E-002
   8.4600000000000009E-002    -2.8950089588761330E-002
   8.5700000000000026E-002    -2.5242561474442482E-002
   8.6800000000000016E-002    -2.1147418767213821E-002
   8.7900000000000006E-002    -1.6716083511710167E-002
   8.9000000000000024E-002    -1.2003154493868351E-002
   9.0100000000000013E-002    -7.0590283721685410E-003
   9.1200000000000003E-002    -1.9349034409970045E-003
   9.2300000000000021E-002     3.3069110941141844E-003
   9.3400000000000011E-002     8.5917785763740540E-003
   9.4500000000000028E-002     1.3844170607626438E-002
   9.5600000000000018E-002     1.8996078521013260E-002
   9.6700000000000008E-002     2.3984711617231369E-002
   9.7800000000000026E-002     2.8746886178851128E-002
   9.8900000000000016E-002     3.3218607306480408E-002
  0.10000000000000001          3.7337716668844223E-002
  0.10110000000000002          4.1048482060432434E-002
  0.10220000000000001          4.4302120804786682E-002
  0.10330000000000003          4.7057837247848511E-002
  0.10440000000000002          4.9287322908639908E-002
  0.10550000000000001          5.0973732024431229E-002
  0.10660000000000003          5.2103802561759949E-002
  0.10770000000000002          5.2662570029497147E-002
  0.10880000000000001          5.2643116563558578E-002
  0.10990000000000003          5.2058991044759750E-002
  0.11100000000000002          5.0942417234182358E-002
  0.11210000000000001          4.9328565597534180E-002
  0.11320000000000002          4.7243796288967133E-002
  0.11430000000000001          4.4714745134115219E-002
  0.11540000000000003          4.1786834597587585E-002
  0.11650000000000002          3.8521289825439453E-002
  0.11760000000000001          3.4977149218320847E-002
  0.11870000000000003          3.1209001317620277E-002
  0.11980000000000002          2.7271172031760216E-002
  0.12090000000000001          2.3218186572194099E-002
  0.12200000000000003          1.9105367362499237E-002
  0.12310000000000001          1.4987866394221783E-002
  0.12420000000000003          1.0920454747974873E-002
  0.12530000000000002          6.9566122256219387E-003
  0.12640000000000001          3.1444383785128593E-003
  0.12750000000000003         -4.7929343418218195E-004
  0.12860000000000002         -3.8886659312993288E-003
  0.12970000000000001         -7.0582539774477482E-003
  0.13080000000000003         -9.9550401791930199E-003
  0.13190000000000002         -1.2547550722956657E-002
  0.13300000000000001         -1.4822987839579582E-002
  0.13410000000000000         -1.6787054017186165E-002
  0.13520000000000004         -1.8446208909153938E-002
  0.13630000000000003         -1.9796762615442276E-002
  0.13740000000000002         -2.0834004506468773E-002
  0.13850000000000001         -2.1566776558756828E-002
  0.13960000000000000         -2.2017588838934898E-002
  0.14070000000000005         -2.2209491580724716E-002
  0.14180000000000004         -2.2159129381179810E-002
  0.14290000000000003         -2.1883780136704445E-002
  0.14400000000000002         -2.1408233791589737E-002
  0.14510000000000001         -2.0759699866175652E-002
  0.14620000000000000         -1.9960077479481697E-002
  0.14730000000000004         -1.9029198214411736E-002
  0.14840000000000003         -1.7992887645959854E-002
  0.14950000000000002         -1.6881182789802551E-002
  0.15060000000000001         -1.5717206522822380E-002
  0.15170000000000000         -1.4513365924358368E-002
  0.15280000000000005         -1.3283018954098225E-002
  0.15390000000000004         -1.2049731798470020E-002
  0.15500000000000003         -1.0838334448635578E-002
  0.15610000000000002         -9.6601936966180801E-003
  0.15720000000000001         -8.5147544741630554E-003
  0.15830000000000000         -7.4070957489311695E-003
  0.15940000000000004         -6.3560483977198601E-003
  0.16050000000000003         -5.3794295527040958E-003
  0.16160000000000002         -4.4767330400645733E-003
  0.16270000000000001         -3.6356120835989714E-003
  0.16380000000000000         -2.8532894793897867E-003
  0.16490000000000005         -2.1419483236968517E-003
  0.16600000000000004         -1.5123132616281509E-003
  0.16710000000000003         -9.5877208514139056E-004
  0.16820000000000002         -4.6725626452825963E-004
  0.16930000000000001         -3.2367410312872380E-005
  0.17040000000000000          3.4218418295495212E-004
  0.17150000000000004          6.5714807715266943E-004
  0.17260000000000003          9.2159782070666552E-004
  0.17370000000000002          1.1415517656132579E-003
  0.17480000000000001          1.3140275841578841E-003
  0.17590000000000000          1.4388540294021368E-003
  0.17700000000000005          1.5297529753297567E-003
  0.17810000000000004          1.6031550476327538E-003
  0.17920000000000003          1.6587047139182687E-003
  0.18030000000000002          1.6818697331473231E-003
  0.18140000000000001          1.6685731243342161E-003
  0.18250000000000000          1.6369970981031656E-003
  0.18360000000000004          1.6076850006356835E-003
  0.18470000000000003          1.5794070204719901E-003
  0.18580000000000002          1.5352937625721097E-003
  0.18690000000000001          1.4700166648253798E-003
  0.18800000000000000          1.3985543046146631E-003
  0.18910000000000005          1.3352438108995557E-003
  0.19020000000000004          1.2756005162373185E-003
  0.19130000000000003          1.2072388781234622E-003
  0.19240000000000002          1.1316984891891479E-003
  0.19350000000000001          1.0628473246470094E-003
  0.19460000000000005          1.0051667923107743E-003
  0.19570000000000004          9.4744673697277904E-004
  0.19680000000000003          8.8149879593402147E-004
  0.19790000000000002          8.1606110325083137E-004
  0.19900000000000001          7.6363235712051392E-004
  0.20010000000000000          7.2052882751449943E-004
  0.20120000000000005          6.7235541064292192E-004
  0.20230000000000004          6.1701278900727630E-004
  0.20340000000000003          5.6905229575932026E-004
  0.20450000000000002          5.3725327597931027E-004
  0.20560000000000000          5.0952599849551916E-004
  0.20670000000000005          4.7023198567330837E-004
  0.20780000000000004          4.2478504474274814E-004
  0.20890000000000003          3.9315037429332733E-004
