 -0.12000000000000000          0.0000000000000000     
 -0.11889999999999999          0.0000000000000000     
 -0.11780000000000000          1.0369223673478700E-005
 -0.11670000000000000         -9.4180077212513424E-006
 -0.11559999999999999         -4.4106258428655565E-005
 -0.11449999999999999          2.5041714252438396E-005
 -0.11340000000000000          1.3560515071731061E-004
 -0.11230000000000000         -5.9877825151488651E-006
 -0.11119999999999999         -3.1868467340245843E-004
 -0.11009999999999999         -1.6310009232256562E-004
 -0.10900000000000000          5.4384500253945589E-004
 -0.10790000000000000          6.4357678638771176E-004
 -0.10679999999999999         -5.6265015155076981E-004
 -0.10569999999999999         -1.4497148804366589E-003
 -0.10460000000000000         -1.1580851605685893E-005
 -0.10349999999999999          2.2621052339673042E-003
 -0.10239999999999999          1.4494899660348892E-003
 -0.10130000000000000         -2.4414842482656240E-003
 -0.10020000000000000         -3.6634695716202259E-003
  -9.9099999999999994E-002     1.1403631651774049E-003
  -9.7999999999999990E-002     5.9094526804983616E-003
  -9.6899999999999986E-002     2.3853990714997053E-003
  -9.5799999999999996E-002    -6.3208420760929585E-003
  -9.4699999999999993E-002    -7.4455696158111095E-003
  -9.3599999999999989E-002     2.8940299525856972E-003
  -9.2499999999999999E-002     1.1079351417720318E-002
  -9.1399999999999995E-002     3.9647212252020836E-003
  -9.0299999999999991E-002    -1.0187014006078243E-002
  -8.9200000000000002E-002    -1.1011836118996143E-002
  -8.8099999999999984E-002     4.1860290803015232E-003
  -8.6999999999999994E-002     1.4264208264648914E-002
  -8.5899999999999990E-002     4.2274645529687405E-003
  -8.4799999999999986E-002    -1.1689492501318455E-002
  -8.3699999999999997E-002    -1.0283054783940315E-002
  -8.2599999999999993E-002     5.6533440947532654E-003
  -8.1499999999999989E-002     1.1434862390160561E-002
  -8.0399999999999999E-002    -1.0989479487761855E-003
  -7.9299999999999995E-002    -1.0591598227620125E-002
  -7.8199999999999992E-002    -7.1713328361511230E-004
  -7.7100000000000002E-002     1.1872940696775913E-002
  -7.5999999999999984E-002     3.5236892290413380E-003
  -7.4899999999999994E-002    -1.5236981213092804E-002
  -7.3799999999999991E-002    -1.2107279151678085E-002
  -7.2699999999999987E-002     1.4272770844399929E-002
  -7.1599999999999997E-002     2.4918388575315475E-002
  -7.0499999999999993E-002    -2.1834615617990494E-003
  -6.9399999999999989E-002    -3.2283246517181396E-002
  -6.8300000000000000E-002    -1.9563283771276474E-002
  -6.7199999999999996E-002     2.2850930690765381E-002
  -6.6099999999999992E-002     3.6042377352714539E-002
  -6.5000000000000002E-002    -3.0813456396572292E-004
  -6.3899999999999985E-002    -3.5867515951395035E-002
  -6.2799999999999995E-002    -2.1448569372296333E-002
  -6.1699999999999991E-002     1.9719056785106659E-002
  -6.0599999999999994E-002     2.8043996542692184E-002
  -5.9499999999999990E-002    -3.5341808106750250E-003
  -5.8399999999999994E-002    -2.2930424660444260E-002
  -5.7299999999999990E-002    -2.7425147127360106E-003
  -5.6199999999999986E-002     1.8074706196784973E-002
  -5.5099999999999996E-002     6.9413013989105821E-004
  -5.3999999999999992E-002    -2.6333101093769073E-002
  -5.2899999999999989E-002    -1.1121996678411961E-002
  -5.1799999999999985E-002     3.1857214868068695E-002
  -5.0699999999999995E-002     3.4312609583139420E-002
  -4.9599999999999991E-002    -1.9443113356828690E-002
  -4.8499999999999988E-002    -5.6296918541193008E-002
  -4.7399999999999998E-002    -1.7173230648040771E-002
  -4.6299999999999994E-002     4.9363911151885986E-002
  -4.5199999999999990E-002     5.0059013068675995E-002
  -4.4099999999999986E-002    -1.7564795911312103E-002
  -4.2999999999999997E-002    -5.9256341308355331E-002
  -4.1899999999999993E-002    -2.0238058641552925E-002
  -4.0799999999999989E-002     3.8129448890686035E-002
  -3.9699999999999985E-002     3.3530045300722122E-002
  -3.8599999999999995E-002    -1.6521083191037178E-002
  -3.7499999999999992E-002    -2.9793146997690201E-002
  -3.6399999999999988E-002     9.1872392222285271E-003
  -3.5299999999999984E-002     2.8689522296190262E-002
  -3.4199999999999994E-002    -8.9093791320919991E-003
  -3.3099999999999991E-002    -4.1702680289745331E-002
  -3.1999999999999987E-002    -5.7583563029766083E-003
  -3.0899999999999997E-002     5.3642872720956802E-002
  -2.9799999999999993E-002     4.2289875447750092E-002
  -2.8699999999999989E-002    -3.4531496465206146E-002
  -2.7599999999999986E-002    -6.7790493369102478E-002
  -2.6499999999999996E-002    -5.0454353913664818E-003
  -2.5399999999999992E-002     6.8384990096092224E-002
  -2.4299999999999988E-002     4.9705207347869873E-002
  -2.3199999999999985E-002    -3.0048770830035210E-002
  -2.2099999999999995E-002    -5.5421873927116394E-002
  -2.0999999999999991E-002     2.6141009293496609E-003
  -1.9899999999999987E-002     5.2172355353832245E-002
  -1.8799999999999983E-002     2.0980667322874069E-002
  -1.7699999999999994E-002    -3.2469045370817184E-002
  -1.6599999999999990E-002    -1.8076706677675247E-002
  -1.5499999999999986E-002     3.9219669997692108E-002
  -1.4399999999999996E-002     4.1692454367876053E-002
  -1.3299999999999992E-002    -2.2353649139404297E-002
  -1.2199999999999989E-002    -5.4664976894855499E-002
  -1.1099999999999985E-002     3.2823805231601000E-003
  -9.9999999999999950E-003     6.9467626512050629E-002
  -8.8999999999999913E-003     4.3131858110427856E-002
  -7.7999999999999875E-003    -4.1711732745170593E-002
  -6.6999999999999837E-003    -6.3165351748466492E-002
  -5.5999999999999939E-003     8.5423309355974197E-003
  -4.4999999999999901E-003     6.2473222613334656E-002
  -3.3999999999999864E-003     2.4150345474481583E-002
  -2.2999999999999826E-003    -4.3424230068922043E-002
  -1.1999999999999927E-003    -3.7716992199420929E-002
  -9.9999999999988987E-005     2.2619316354393959E-002
   1.0000000000000148E-003     3.5101361572742462E-002
   2.1000000000000185E-003    -1.7943533137440681E-002
   3.2000000000000084E-003    -5.0051886588335037E-002
   4.3000000000000121E-003    -8.2739684730768204E-003
   5.4000000000000159E-003     4.2132534086704254E-002
   6.5000000000000058E-003     1.6920382156968117E-002
   7.6000000000000234E-003    -5.0320152193307877E-002
   8.7000000000000133E-003    -5.7232178747653961E-002
   9.8000000000000032E-003     8.8541563600301743E-003
   1.0900000000000021E-002     4.7552034258842468E-002
   1.2000000000000011E-002     1.8243177328258753E-003
   1.3100000000000001E-002    -5.7729091495275497E-002
   1.4200000000000018E-002    -4.2919453233480453E-002
   1.5300000000000008E-002     1.9527703523635864E-002
   1.6400000000000026E-002     3.3216003328561783E-002
   1.7500000000000016E-002    -1.6796845942735672E-002
   1.8600000000000005E-002    -4.7989815473556519E-002
   1.9700000000000023E-002    -1.2909848242998123E-002
   2.0800000000000013E-002     3.2177694141864777E-002
   2.1900000000000003E-002     1.7030602321028709E-002
   2.3000000000000020E-002    -3.1158830970525742E-002
   2.4100000000000010E-002    -3.2986782491207123E-002
   2.5200000000000000E-002     1.6531787812709808E-002
   2.6300000000000018E-002     4.0199965238571167E-002
   2.7400000000000008E-002     3.7331967614591122E-003
   2.8500000000000025E-002    -3.4935194998979568E-002
   2.9600000000000015E-002    -1.3604266569018364E-002
   3.0700000000000005E-002     3.5367958247661591E-002
   3.1800000000000023E-002     4.0635716170072556E-002
   3.2900000000000013E-002    -3.4691796172410250E-003
   3.4000000000000002E-002    -2.6877276599407196E-002
   3.5100000000000020E-002     3.5546266008168459E-003
   3.6200000000000010E-002     4.0629759430885315E-002
   3.7300000000000028E-002     2.4259809404611588E-002
   3.8400000000000017E-002    -1.2942750006914139E-002
   3.9500000000000007E-002    -1.0583447292447090E-002
   4.0600000000000025E-002     2.4744976311922073E-002
   4.1700000000000015E-002     3.3601038157939911E-002
   4.2800000000000005E-002    -3.1426590867340565E-003
   4.3900000000000022E-002    -2.3518379777669907E-002
   4.5000000000000012E-002     8.2393335178494453E-003
   4.6100000000000002E-002     3.6964580416679382E-002
   4.7200000000000020E-002     1.8278639763593674E-002
   4.8300000000000010E-002    -1.9209021702408791E-002
   4.9400000000000027E-002    -2.2004248574376106E-002
   5.0500000000000017E-002     1.0850461199879646E-002
   5.1600000000000007E-002     2.5388246402144432E-002
   5.2700000000000025E-002     8.0501922639086843E-004
   5.3800000000000014E-002    -2.3876238614320755E-002
   5.4900000000000004E-002    -6.9942004047334194E-003
   5.6000000000000022E-002     1.6730723902583122E-002
   5.7100000000000012E-002     6.2991301529109478E-003
   5.8200000000000002E-002    -2.3641413077712059E-002
   5.9300000000000019E-002    -2.1713739261031151E-002
   6.0400000000000009E-002     1.0448334738612175E-002
   6.1500000000000027E-002     2.4019993841648102E-002
   6.2600000000000017E-002    -6.4348150044679642E-003
   6.3700000000000007E-002    -3.4388989210128784E-002
   6.4800000000000024E-002    -1.7749346792697906E-002
   6.5900000000000014E-002     1.5565391629934311E-002
   6.7000000000000004E-002     1.4344188384711742E-002
   6.8100000000000022E-002    -1.6229262575507164E-002
   6.9200000000000012E-002    -2.1715031936764717E-002
   7.0300000000000029E-002     8.3515057340264320E-003
   7.1400000000000019E-002     2.1359266713261604E-002
   7.2500000000000009E-002    -1.0568589903414249E-002
   7.3600000000000027E-002    -3.7855226546525955E-002
   7.4700000000000016E-002    -9.7643043845891953E-003
   7.5800000000000006E-002     3.7763535976409912E-002
   7.6900000000000024E-002     3.1010106205940247E-002
   7.8000000000000014E-002    -2.4646125733852386E-002
   7.9100000000000004E-002    -4.6881880611181259E-002
   8.0200000000000021E-002    -1.5120564494282007E-003
   8.1300000000000011E-002     4.3417032808065414E-002
   8.2400000000000029E-002     2.1844653412699699E-002
   8.3500000000000019E-002    -2.7994334697723389E-002
   8.4600000000000009E-002    -2.6036428287625313E-002
   8.5700000000000026E-002     2.1283013746142387E-002
   8.6800000000000016E-002     3.2046746462583542E-002
   8.7900000000000006E-002    -1.5093852765858173E-002
   8.9000000000000024E-002    -4.2947579175233841E-002
   9.0100000000000013E-002     2.4154672864824533E-003
   9.1200000000000003E-002     5.6440889835357666E-002
   9.2300000000000021E-002     3.0405374243855476E-002
   9.3400000000000011E-002    -4.4290881603956223E-002
   9.4500000000000028E-002    -5.6970976293087006E-002
   9.5600000000000018E-002     1.4302416704595089E-002
   9.6700000000000008E-002     6.4813576638698578E-002
   9.7800000000000026E-002     1.9883720204234123E-002
   9.8900000000000016E-002    -5.0036184489727020E-002
  0.10000000000000001         -3.6987919360399246E-002
  0.10110000000000002          3.3644940704107285E-002
  0.10220000000000001          4.8047166317701340E-002
  0.10330000000000003         -1.8459483981132507E-002
  0.10440000000000002         -5.8272406458854675E-002
  0.10550000000000001         -2.3679917212575674E-003
  0.10660000000000003          6.5579943358898163E-002
  0.10770000000000002          3.4867133945226669E-002
  0.10880000000000001         -5.4886002093553543E-002
  0.10990000000000003         -6.6891543567180634E-002
  0.11100000000000002          2.1537538617849350E-002
  0.11210000000000001          7.8638523817062378E-002
  0.11320000000000002          1.8844779580831528E-002
  0.11430000000000001         -6.5964095294475555E-002
  0.11540000000000003         -4.7234795987606049E-002
  0.11650000000000002          4.2403485625982285E-002
  0.11760000000000001          6.1098635196685791E-002
  0.11870000000000003         -1.9903760403394699E-002
  0.11980000000000002         -7.0412561297416687E-002
  0.12090000000000001         -6.7867361940443516E-003
  0.12200000000000003          7.4017003178596497E-002
  0.12310000000000001          4.1997972875833511E-002
  0.12420000000000003         -5.9568397700786591E-002
  0.12530000000000002         -7.5732119381427765E-002
  0.12640000000000001          2.1950915455818176E-002
  0.12750000000000003          8.7190292775630951E-002
  0.12860000000000002          2.1812386810779572E-002
  0.12970000000000001         -7.3283039033412933E-002
  0.13080000000000003         -5.3429774940013885E-002
  0.13190000000000002          4.7332450747489929E-002
  0.13300000000000001          7.0829994976520538E-002
  0.13410000000000000         -1.9149888306856155E-002
  0.13520000000000004         -7.9735480248928070E-002
  0.13630000000000003         -1.3420270755887032E-002
  0.13740000000000002          7.8098483383655548E-002
  0.13850000000000001          5.0360340625047684E-002
  0.13960000000000000         -5.8321278542280197E-002
  0.14070000000000005         -8.2080766558647156E-002
  0.14180000000000004          1.7882356420159340E-002
  0.14290000000000003          9.1622233390808105E-002
  0.14400000000000002          2.9068822041153908E-002
  0.14510000000000001         -7.2852104902267456E-002
  0.14620000000000000         -6.0823306441307068E-002
  0.14730000000000004          4.0836110711097717E-002
  0.14840000000000003          7.2289086878299713E-002
  0.14950000000000002         -1.1886546388268471E-002
  0.15060000000000001         -7.5413048267364502E-002
  0.15170000000000000         -1.5664830803871155E-002
  0.15280000000000005          7.3870271444320679E-002
  0.15390000000000004          4.9572404474020004E-002
  0.15500000000000003         -5.6223567575216293E-002
  0.15610000000000002         -8.1287987530231476E-002
  0.15720000000000001          1.6502976417541504E-002
  0.15830000000000000          9.1750085353851318E-002
  0.15940000000000004          3.1927585601806641E-002
  0.16050000000000003         -7.2247862815856934E-002
  0.16160000000000002         -6.6245384514331818E-002
  0.16270000000000001          3.5103559494018555E-002
  0.16380000000000000          7.5835987925529480E-002
  0.16490000000000005         -5.3618755191564560E-004
  0.16600000000000004         -7.0033676922321320E-002
  0.16710000000000003         -2.5147086009383202E-002
  0.16820000000000002          5.9688813984394073E-002
  0.16930000000000001          4.8568092286586761E-002
  0.17040000000000000         -4.2324356734752655E-002
  0.17150000000000004         -7.0180818438529968E-002
  0.17260000000000003          1.1038469150662422E-002
  0.17370000000000002          7.8271687030792236E-002
  0.17480000000000001          2.8359606862068176E-002
  0.17590000000000000         -6.3436038792133331E-002
  0.17700000000000005         -5.9249311685562134E-002
  0.17810000000000004          3.1721122562885284E-002
  0.17920000000000003          7.0770032703876495E-002
  0.18030000000000002          2.5163460522890091E-003
  0.18140000000000001         -6.4863622188568115E-002
  0.18250000000000000         -2.9671201482415199E-002
  0.18360000000000004          4.9166850745677948E-002
  0.18470000000000003          4.8443619161844254E-002
  0.18580000000000002         -2.8488278388977051E-002
  0.18690000000000001         -6.0382518917322159E-002
  0.18800000000000000          2.1366779692471027E-003
  0.18910000000000005          6.1965599656105042E-002
  0.19020000000000004          2.7321940287947655E-002
  0.19130000000000003         -4.7844488173723221E-002
  0.19240000000000002         -4.9217697232961655E-002
  0.19350000000000001          2.2780379280447960E-002
  0.19460000000000005          5.7056915014982224E-002
  0.19570000000000004          3.7803947925567627E-003
  0.19680000000000003         -5.2613202482461929E-002
  0.19790000000000002         -2.6648094877600670E-002
  0.19900000000000001          3.8676001131534576E-002
  0.20010000000000000          4.2313039302825928E-002
  0.20120000000000005         -1.9053298979997635E-002
  0.20230000000000004         -4.9577321857213974E-002
  0.20340000000000003         -3.4875355195254087E-003
  0.20450000000000002          4.7017652541399002E-002
  0.20560000000000000          2.5520009920001030E-002
  0.20670000000000005         -3.2959267497062683E-002
  0.20780000000000004         -3.9411034435033798E-002
  0.20890000000000003          1.2776268646121025E-002
