 -0.12000000000000000          0.0000000000000000
 -0.11889999999999999          0.0000000000000000
 -0.11780000000000000          0.0000000000000000
 -0.11670000000000000          0.0000000000000000
 -0.11559999999999999          0.0000000000000000
 -0.11449999999999999          0.0000000000000000
 -0.11340000000000000          0.0000000000000000
 -0.11230000000000000          4.5173367227286533E-021
 -0.11119999999999999         -2.1335585054060316E-021
 -0.11009999999999999         -5.0255070541149363E-020
 -0.10900000000000000          6.3249792005434729E-021
 -0.10790000000000000          3.2296858596705518E-019
 -0.10679999999999999          1.0674466598259625E-019
 -0.10569999999999999         -1.4623058100980340E-018
 -0.10460000000000000         -1.2596277416636066E-018
 -0.10349999999999999          4.7662502582968852E-018
 -0.10239999999999999          7.2483777398296558E-018
 -0.10130000000000000         -1.0592429074003906E-017
 -0.10020000000000000         -2.7792593602401887E-017
  -9.9099999999999994E-002     1.2570456973815223E-017
  -9.7999999999999990E-002     7.9820507126533615E-017
  -9.6899999999999986E-002     1.2145739433938646E-017
  -9.5799999999999996E-002    -1.8955684152154983E-016
  -9.4699999999999993E-002    -1.2844003948025284E-016
  -9.3599999999999989E-002     3.9215216707930351E-016
  -9.2499999999999999E-002     5.3949000130372243E-016
  -9.1399999999999995E-002    -6.0574216558087523E-016
  -9.0299999999999991E-002    -1.6980247147458305E-015
  -8.9200000000000002E-002     1.2997000597612073E-016
  -8.8099999999999984E-002     3.8443729570450478E-015
  -8.6999999999999994E-002     2.7951515512152515E-015
  -8.5899999999999990E-002    -5.4412913722836319E-015
  -8.4799999999999986E-002    -9.5917494256979145E-015
  -8.3699999999999997E-002     2.5228006007616032E-015
  -8.2599999999999993E-002     1.8417230495662226E-014
  -8.1499999999999989E-002     8.2132456556889034E-015
  -8.0399999999999999E-002    -2.5318201040454985E-014
  -7.9299999999999995E-002    -2.8646833847125255E-014
  -7.8199999999999992E-002     2.6885518618802347E-014
  -7.7100000000000002E-002     6.7104518285381748E-014
  -7.5999999999999984E-002    -4.8576949889878387E-015
  -7.4899999999999994E-002    -1.2584735770843070E-013
  -7.3799999999999991E-002    -8.8558927714959407E-014
  -7.2699999999999987E-002     1.4607440962117330E-013
  -7.1599999999999997E-002     2.6607234753124598E-013
  -7.0499999999999993E-002    -1.4645877284384656E-014
  -6.9399999999999989E-002    -4.1285169185244219E-013
  -6.8300000000000000E-002    -2.8991403461936516E-013
  -6.7199999999999996E-002     3.7689518389907861E-013
  -6.6099999999999992E-002     6.6022968342460686E-013
  -6.5000000000000002E-002    -1.0487731559941094E-013
  -6.3899999999999985E-002    -1.0222499929879447E-012
  -6.2799999999999995E-002    -5.2546931649660733E-013
  -6.1699999999999991E-002     1.1612631429375186E-012
  -6.0599999999999994E-002     1.6429054297550927E-012
  -5.9499999999999990E-002    -4.3080518536200985E-013
  -5.8399999999999994E-002    -2.6582687873838440E-012
  -5.7299999999999990E-002    -1.4798661428228055E-012
  -5.6199999999999986E-002     2.3741826647022402E-012
  -5.5099999999999996E-002     3.6570000500057986E-012
  -5.3999999999999992E-002    -3.4670332468671183E-013
  -5.2899999999999989E-002    -4.7691954552231408E-012
  -5.1799999999999985E-002    -2.8353903426536764E-012
  -5.0699999999999995E-002     3.9462998840944508E-012
  -4.9599999999999991E-002     6.1618180176303827E-012
  -4.8499999999999988E-002    -6.3209946174827558E-013
  -4.7399999999999998E-002    -7.9609114439493922E-012
  -4.6299999999999994E-002    -4.8449634061642488E-012
  -4.5199999999999990E-002     5.9953235952148187E-012
  -4.4099999999999986E-002     1.0003479815334781E-011
  -4.2999999999999997E-002     7.0889848895541729E-013
  -4.1899999999999993E-002    -9.9522057261935970E-012
  -4.0799999999999989E-002    -7.5308361977000082E-012
  -3.9699999999999985E-002     4.1720299090441948E-012
  -3.8599999999999995E-002     8.2175282203889033E-012
  -3.7499999999999992E-002    -6.3661126066885676E-013
  -3.6399999999999988E-002    -8.0505428712296379E-012
  -3.5299999999999984E-002    -1.8630891100712699E-012
  -3.4199999999999994E-002     9.1502144403121655E-012
  -3.3099999999999991E-002     8.9026069502451399E-012
  -3.1999999999999987E-002    -8.5962698547978333E-013
  -3.0899999999999997E-002    -4.3739460837965982E-012
  -2.9799999999999993E-002     6.2886008249732339E-013
  -2.8699999999999989E-002    -1.9735153181793530E-012
  -2.7599999999999986E-002    -1.6759421975209854E-011
  -2.6499999999999996E-002    -2.0911496492748149E-011
  -2.5399999999999992E-002     2.9903826810617762E-012
  -2.4299999999999988E-002     3.0760477498503747E-011
  -2.3199999999999985E-002     2.1639436770248821E-011
  -2.2099999999999995E-002    -1.9663180805817859E-011
  -2.0999999999999991E-002    -3.8400966434481987E-011
  -1.9899999999999987E-002    -5.0446994671882184E-012
  -1.8799999999999983E-002     3.2657657828005782E-011
  -1.7699999999999994E-002     9.1450215455868289E-012
  -1.6599999999999990E-002    -5.9821446407593015E-011
  -1.5499999999999986E-002    -8.4301787772744774E-011
  -1.4399999999999996E-002    -1.9537363046828737E-011
  -1.3299999999999992E-002     6.4499086627201052E-011
  -1.2199999999999989E-002     6.8718343515516978E-011
  -1.1099999999999985E-002    -7.2006012263869934E-012
  -9.9999999999999950E-003    -7.1521143174546609E-011
  -8.8999999999999913E-003    -6.8469604985743615E-011
  -7.7999999999999875E-003    -4.3149130102282385E-011
  -6.6999999999999837E-003    -6.1016129648816531E-011
  -5.5999999999999939E-003    -1.0969726516041334E-010
  -4.4999999999999901E-003    -1.3071883853132960E-010
  -3.3999999999999864E-003    -1.1177520714555911E-010
  -2.2999999999999826E-003    -9.1601094764914848E-011
  -1.1999999999999927E-003    -7.9534871744169067E-011
  -9.9999999999988987E-005    -4.8858965484566141E-011
   1.0000000000000148E-003    -2.2472889868452306E-011
   2.1000000000000185E-003    -9.5855746951034604E-011
   3.2000000000000084E-003    -3.0151953156476452E-010
   4.3000000000000121E-003    -5.0180709587621664E-010
   5.4000000000000159E-003    -5.2326609711883521E-010
   6.5000000000000058E-003    -3.9032546639283794E-010
   7.6000000000000234E-003    -3.2394684157388554E-010
   8.7000000000000133E-003    -4.5071701926246988E-010
   9.8000000000000032E-003    -6.2086580321363272E-010
   1.0900000000000021E-002    -6.1613997237586204E-010
   1.2000000000000011E-002    -4.6553422228257091E-010
   1.3100000000000001E-002    -4.4962122913716485E-010
   1.4200000000000018E-002    -7.4333800226256130E-010
   1.5300000000000008E-002    -1.1744546446479376E-009
   1.6400000000000026E-002    -1.4643887213949824E-009
   1.7500000000000016E-002    -1.5392394026036982E-009
   1.8600000000000005E-002    -1.5484398208087669E-009
   1.9700000000000023E-002    -1.5788111928927151E-009
   2.0800000000000013E-002    -1.6126345814271303E-009
   2.1900000000000003E-002    -1.6283914217041229E-009
   2.3000000000000020E-002    -1.7089780701695645E-009
   2.4100000000000010E-002    -1.8969059656370746E-009
   2.5200000000000000E-002    -2.1027442009824426E-009
   2.6300000000000018E-002    -2.2751545092347669E-009
   2.7400000000000008E-002    -2.5587223451140062E-009
   2.8500000000000025E-002    -2.9655979894016582E-009
   2.9600000000000015E-002    -3.3153517708939262E-009
   3.0700000000000005E-002    -3.3726679227186196E-009
   3.1800000000000023E-002    -3.1800362343403776E-009
   3.2900000000000013E-002    -3.0595093125640460E-009
   3.4000000000000002E-002    -3.0217897073470112E-009
   3.5100000000000020E-002    -3.0976115006353666E-009
   3.6200000000000010E-002    -3.0135753892324146E-009
   3.7300000000000028E-002    -2.7887960829531266E-009
   3.8400000000000017E-002    -2.6569186850622373E-009
   3.9500000000000007E-002    -2.6223314630868799E-009
   4.0600000000000025E-002    -2.8406414998016771E-009
   4.1700000000000015E-002    -3.0764302216823580E-009
   4.2800000000000005E-002    -2.7260664836603610E-009
   4.3900000000000022E-002    -1.2968052187645185E-009
   4.5000000000000012E-002    -5.6934276737585776E-011
   4.6100000000000002E-002    -1.6356313525811572E-010
   4.7200000000000020E-002    -6.1398885975449957E-010
   4.8300000000000010E-002     2.0123661070847731E-010
   4.9400000000000027E-002     1.8281686164911548E-009
   5.0500000000000017E-002     4.0973744397376777E-009
   5.1600000000000007E-002     4.4572190383007637E-009
   5.2700000000000025E-002     3.6411997861307555E-009
   5.3800000000000014E-002     4.0746312990336264E-009
   5.4900000000000004E-002     5.9686291464799979E-009
   5.6000000000000022E-002     8.7296561090965952E-009
   5.7100000000000012E-002     8.9387732771228912E-009
   5.8200000000000002E-002     8.2121731637130324E-009
   5.9300000000000019E-002     9.6185779341340094E-009
   6.0400000000000009E-002     1.0815655926421641E-008
   6.1500000000000027E-002     1.1605469474318397E-008
   6.2600000000000017E-002     1.2670120952407160E-008
   6.3700000000000007E-002     1.3509656504595569E-008
   6.4800000000000024E-002     1.5272108910835414E-008
   6.5900000000000014E-002     1.6380141687477590E-008
   6.7000000000000004E-002     1.4172089279895772E-008
   6.8100000000000022E-002     1.2129205195776649E-008
   6.9200000000000012E-002     1.2958441431010215E-008
   7.0300000000000029E-002     1.6207295061576588E-008
   7.1400000000000019E-002     1.7299402799153540E-008
   7.2500000000000009E-002     1.2699818974226673E-008
   7.3600000000000027E-002     7.3090133945186153E-009
   7.4700000000000016E-002     7.3507107067882771E-009
   7.5800000000000006E-002     1.0842799547106097E-008
   7.6900000000000024E-002     1.2893017320436684E-008
   7.8000000000000014E-002     1.0494761504276084E-008
   7.9100000000000004E-002     4.7957349202931709E-009
   8.0200000000000021E-002    -4.7863635277423100E-010
   8.1300000000000011E-002    -3.4839642282236127E-009
   8.2400000000000029E-002    -3.3819329559037214E-009
   8.3500000000000019E-002    -2.0051906801654695E-009
   8.4600000000000009E-002    -1.6054034768231418E-009
   8.5700000000000026E-002    -4.7239261391496257E-009
   8.6800000000000016E-002    -1.1580957526291513E-008
   8.7900000000000006E-002    -1.7478335223586328E-008
   8.9000000000000024E-002    -1.7252503425879695E-008
   9.0100000000000013E-002    -1.1880767480931809E-008
   9.1200000000000003E-002    -8.3382669657794395E-009
   9.2300000000000021E-002    -1.3632478257363800E-008
   9.3400000000000011E-002    -2.4226769923529901E-008
   9.4500000000000028E-002    -3.0228630265582979E-008
   9.5600000000000018E-002    -2.6274820541516419E-008
   9.6700000000000008E-002    -1.5773725436929453E-008
   9.7800000000000026E-002    -1.0804280137222122E-008
   9.8900000000000016E-002    -1.5204070891172705E-008
  0.10000000000000001         -2.4277786891957476E-008
  0.10110000000000002         -2.9111188126762499E-008
  0.10220000000000001         -2.5592445496158689E-008
  0.10330000000000003         -1.6319182449819891E-008
  0.10440000000000002         -6.9236003596984119E-009
  0.10550000000000001         -4.9554200742818466E-009
  0.10660000000000003         -1.3934218223710104E-008
  0.10770000000000002         -2.1426435736771055E-008
  0.10880000000000001         -1.7896615744916744E-008
  0.10990000000000003         -3.9470844370725899E-009
  0.11100000000000002          8.0734752216926609E-009
  0.11210000000000001          7.6840205309736120E-009
  0.11320000000000002         -2.7579165617908075E-009
  0.11430000000000001         -1.1299301938549888E-008
  0.11540000000000003         -8.9422655946691521E-009
  0.11650000000000002          3.1814215706305049E-009
  0.11760000000000001          1.5931828301063433E-008
  0.11870000000000003          2.0287258095663674E-008
  0.11980000000000002          1.4478110266225031E-008
  0.12090000000000001          4.9554991221611999E-009
  0.12200000000000003         -1.2088599565807101E-010
  0.12310000000000001          4.1641534664904611E-009
  0.12420000000000003          1.5918871554276848E-008
  0.12530000000000002          2.5500543898715478E-008
  0.12640000000000001          2.4133248288649156E-008
  0.12750000000000003          1.0735179856169452E-008
  0.12860000000000002         -2.4791793062917122E-009
  0.12970000000000001         -1.6344059439177272E-009
  0.13080000000000003          1.2526616188779371E-008
  0.13190000000000002          2.4865213887892423E-008
  0.13300000000000001          2.3735887921816357E-008
  0.13410000000000000          1.0885789158976422E-008
  0.13520000000000004         -1.9449746258004552E-009
  0.13630000000000003         -5.4935331839089940E-009
  0.13740000000000002          5.6314714003136146E-010
  0.13850000000000001          1.0326007604533061E-008
  0.13960000000000000          1.6093379073822689E-008
  0.14070000000000005          1.2654775893850001E-008
  0.14180000000000004          1.3546557209309640E-009
  0.14290000000000003         -9.0096836657949098E-009
  0.14400000000000002         -9.3763112829492457E-009
  0.14510000000000001          9.6277286143475749E-010
  0.14620000000000000          1.1678247702207045E-008
  0.14730000000000004          1.2036876384513562E-008
  0.14840000000000003          1.7712357136545620E-009
  0.14950000000000002         -9.8852925844994388E-009
  0.15060000000000001         -1.4290281846740527E-008
  0.15170000000000000         -9.2817140640022444E-009
  0.15280000000000005          1.7859104473050280E-010
  0.15390000000000004          7.2535333295320470E-009
  0.15500000000000003          6.2330389738463055E-009
  0.15610000000000002         -2.6109592266010395E-009
  0.15720000000000001         -1.2869140419979885E-008
  0.15830000000000000         -1.3965940404148114E-008
  0.15940000000000004         -3.1732287908425860E-009
  0.16050000000000003          9.4993923838160299E-009
  0.16160000000000002          1.1143137967906114E-008
  0.16270000000000001         -2.2789735376615994E-010
  0.16380000000000000         -1.3133265142073469E-008
  0.16490000000000005         -1.5720829082965793E-008
  0.16600000000000004         -7.5367889706967617E-009
  0.16710000000000003          3.0384676996675353E-009
  0.16820000000000002          8.2267836987170995E-009
  0.16930000000000001          6.5934022686064964E-009
  0.17040000000000000          3.5601949166519375E-010
  0.17150000000000004         -7.2814527740661106E-009
  0.17260000000000003         -1.0688157914273688E-008
  0.17370000000000002         -4.7132102665159437E-009
  0.17480000000000001          7.0485608461012816E-009
  0.17590000000000000          1.2133782867351783E-008
  0.17700000000000005          2.9230342590835789E-009
  0.17810000000000004         -1.1658420895344079E-008
  0.17920000000000003         -1.4859407926337553E-008
  0.18030000000000002         -2.6345754466916560E-009
  0.18140000000000001          1.0869245059552668E-008
  0.18250000000000000          1.1279423617338580E-008
  0.18360000000000004          8.4439072400854798E-010
  0.18470000000000003         -6.8785563911433201E-009
  0.18580000000000002         -5.6403615111833005E-009
  0.18690000000000001         -1.4872976183966102E-009
  0.18800000000000000         -1.1498139246279848E-010
  0.18910000000000005          9.5579633097031547E-010
  0.19020000000000004          3.7644727335361949E-009
  0.19130000000000003          3.8151473091829757E-009
  0.19240000000000002         -2.3900370571539042E-009
  0.19350000000000001         -8.5831644014433550E-009
  0.19460000000000005         -4.8307895461618955E-009
  0.19570000000000004          6.1276601570625644E-009
  0.19680000000000003          1.0054391097469306E-008
  0.19790000000000002         -1.4941789472366906E-010
  0.19900000000000001         -1.1909724761949292E-008
  0.20010000000000000         -9.4020577989795129E-009
  0.20120000000000005          3.5391878316914926E-009
  0.20230000000000004          9.5818837309025184E-009
  0.20340000000000003          2.3230266599227889E-009
  0.20450000000000002         -6.3245595427474655E-009
  0.20560000000000000         -4.4323127390555328E-009
  0.20670000000000005          2.9611635365967004E-009
  0.20780000000000004          2.9046387517439598E-009
  0.20890000000000003         -4.0120902156104421E-009
