 -0.12000000000000000          0.0000000000000000
 -0.11889999999999999          0.0000000000000000
 -0.11780000000000000          0.0000000000000000
 -0.11670000000000000          0.0000000000000000
 -0.11559999999999999         -1.6396099769230323E-014
 -0.11449999999999999          2.1678969722356035E-014
 -0.11340000000000000          1.2450507476131217E-013
 -0.11230000000000000         -1.4875999195494705E-013
 -0.11119999999999999         -7.5565861077167562E-013
 -0.11009999999999999          1.9396078710168241E-013
 -0.10900000000000000          3.1764747082663192E-012
 -0.10790000000000000          2.0208476819022492E-012
 -0.10679999999999999         -8.5105186786726961E-012
 -0.10569999999999999         -1.4544769902369303E-011
 -0.10460000000000000          8.3655634502965981E-012
 -0.10349999999999999          4.6377145179743451E-011
 -0.10239999999999999          3.1755837542890575E-011
 -0.10130000000000000         -6.6460323355777007E-011
 -0.10020000000000000         -1.4168193007702001E-010
  -9.9099999999999994E-002    -3.8163618099051888E-011
  -9.7999999999999990E-002     2.0275020551352441E-010
  -9.6899999999999986E-002     2.9167251947015416E-010
  -9.5799999999999996E-002     3.1752465240453276E-011
  -9.4699999999999993E-002    -3.4510547197719177E-010
  -9.3599999999999989E-002    -3.9535819063019062E-010
  -9.2499999999999999E-002    -5.2329231226000417E-011
  -9.1399999999999995E-002     2.5030352790444965E-010
  -9.0299999999999991E-002     1.9362096648212201E-010
  -8.9200000000000002E-002     5.4075438571388190E-011
  -8.8099999999999984E-002     2.4755580918522924E-010
  -8.6999999999999994E-002     5.6480004007042339E-010
  -8.5899999999999990E-002     3.5876590587236024E-010
  -8.4799999999999986E-002    -4.5047959806865379E-010
  -8.3699999999999997E-002    -1.0953533635671420E-009
  -8.2599999999999993E-002    -9.6009944439146011E-010
  -8.1499999999999989E-002    -3.4731625908612784E-010
  -8.0399999999999999E-002     2.2505763919156152E-010
  -7.9299999999999995E-002     9.2577479016142661E-010
  -7.8199999999999992E-002     1.8414186842008462E-009
  -7.7100000000000002E-002     1.5221517379870875E-009
  -7.5999999999999984E-002    -2.3158108763965402E-009
  -7.4899999999999994E-002    -1.0041559583839899E-008
  -7.3799999999999991E-002    -1.9254560612580462E-008
  -7.2699999999999987E-002    -2.7822247616882123E-008
  -7.1599999999999997E-002    -3.6855020368875557E-008
  -7.0499999999999993E-002    -4.8887887516002593E-008
  -6.9399999999999989E-002    -6.3468519329035189E-008
  -6.8300000000000000E-002    -7.7072868975847086E-008
  -6.7199999999999996E-002    -8.8544872767215566E-008
  -6.6099999999999992E-002    -1.0255890003918466E-007
  -6.5000000000000002E-002    -1.2546379934974539E-007
  -6.3899999999999985E-002    -1.5878870840424497E-007
  -6.2799999999999995E-002    -1.9951411900365201E-007
  -6.1699999999999991E-002    -2.4643509277666453E-007
  -6.0599999999999994E-002    -3.0301100650831359E-007
  -5.9499999999999990E-002    -3.7302132227523543E-007
  -5.8399999999999994E-002    -4.5698186568188248E-007
  -5.7299999999999990E-002    -5.5577334023837466E-007
  -5.6199999999999986E-002    -6.7517709112507873E-007
  -5.5099999999999996E-002    -8.2239961329833022E-007
  -5.3999999999999992E-002    -9.9918963769596303E-007
  -5.2899999999999989E-002    -1.2042094112985069E-006
  -5.1799999999999985E-002    -1.4437680420087418E-006
  -5.0699999999999995E-002    -1.7342944147458184E-006
  -4.9599999999999991E-002    -2.0892625798296649E-006
  -4.8499999999999988E-002    -2.5078993530769367E-006
  -4.7399999999999998E-002    -2.9845678000128828E-006
  -4.6299999999999994E-002    -3.5290706819068873E-006
  -4.5199999999999990E-002    -4.1695643631101120E-006
  -4.4099999999999986E-002    -4.9321242840960622E-006
  -4.2999999999999997E-002    -5.8245768741471693E-006
  -4.1899999999999993E-002    -6.8469535108306445E-006
  -4.0799999999999989E-002    -8.0130403148359619E-006
  -3.9699999999999985E-002    -9.3523813120555133E-006
  -3.8599999999999995E-002    -1.0892681530094706E-005
  -3.7499999999999992E-002    -1.2651219549297821E-005
  -3.6399999999999988E-002    -1.4646877389168367E-005
  -3.5299999999999984E-002    -1.6909078112803400E-005
  -3.4199999999999994E-002    -1.9466599042061716E-005
  -3.3099999999999991E-002    -2.2335407265927643E-005
  -3.1999999999999987E-002    -2.5531577193760313E-005
  -3.0899999999999997E-002    -2.9093922421452589E-005
  -2.9799999999999993E-002    -3.3076787076424807E-005
  -2.8699999999999989E-002    -3.7513476854655892E-005
  -2.7599999999999986E-002    -4.2401243263157085E-005
  -2.6499999999999996E-002    -4.7735487896716222E-005
  -2.5399999999999992E-002    -5.3549130825558677E-005
  -2.4299999999999988E-002    -5.9899528423557058E-005
  -2.3199999999999985E-002    -6.6816726757679135E-005
  -2.2099999999999995E-002    -7.4284485890530050E-005
  -2.0999999999999991E-002    -8.2278202171437442E-005
  -1.9899999999999987E-002    -9.0801164333242923E-005
  -1.8799999999999983E-002    -9.9868157121818513E-005
  -1.7699999999999994E-002    -1.0946355178020895E-004
  -1.6599999999999990E-002    -1.1954074579989538E-004
  -1.5499999999999986E-002    -1.3005638902541250E-004
  -1.4399999999999996E-002    -1.4097701932769269E-004
  -1.3299999999999992E-002    -1.5224090020637959E-004
  -1.2199999999999989E-002    -1.6373851394746453E-004
  -1.1099999999999985E-002    -1.7535037477500737E-004
  -9.9999999999999950E-003    -1.8699256179388613E-004
  -8.8999999999999913E-003    -1.9858920131810009E-004
  -7.7999999999999875E-003    -2.1000411652494222E-004
  -6.6999999999999837E-003    -2.2102902585174888E-004
  -5.5999999999999939E-003    -2.3145882005337626E-004
  -4.4999999999999901E-003    -2.4113936524372548E-004
  -3.3999999999999864E-003    -2.4993310216814280E-004
  -2.2999999999999826E-003    -2.5763543089851737E-004
  -1.1999999999999927E-003    -2.6398923364467919E-004
  -9.9999999999988987E-005    -2.6875670300796628E-004
   1.0000000000000148E-003    -2.7175157447345555E-004
   2.1000000000000185E-003    -2.7278391644358635E-004
   3.2000000000000084E-003    -2.7161187608726323E-004
   4.3000000000000121E-003    -2.6799095212481916E-004
   5.4000000000000159E-003    -2.6174596860073507E-004
   6.5000000000000058E-003    -2.5275506777688861E-004
   7.6000000000000234E-003    -2.4087219208013266E-004
   8.7000000000000133E-003    -2.2590204025618732E-004
   9.8000000000000032E-003    -2.0770047558471560E-004
   1.0900000000000021E-002    -1.8624377844389528E-004
   1.2000000000000011E-002    -1.6157080244738609E-004
   1.3100000000000001E-002    -1.3369652151595801E-004
   1.4200000000000018E-002    -1.0261119314236566E-004
   1.5300000000000008E-002    -6.8391236709430814E-005
   1.6400000000000026E-002    -3.1237817893270403E-005
   1.7500000000000016E-002     8.5966494225431234E-006
   1.8600000000000005E-002     5.0889608246507123E-005
   1.9700000000000023E-002     9.5390903879888356E-005
   2.0800000000000013E-002     1.4173284580465406E-004
   2.1900000000000003E-002     1.8944287148769945E-004
   2.3000000000000020E-002     2.3806824174243957E-004
   2.4100000000000010E-002     2.8721458511427045E-004
   2.5200000000000000E-002     3.3643480855971575E-004
   2.6300000000000018E-002     3.8513747858814895E-004
   2.7400000000000008E-002     4.3267340515740216E-004
   2.8500000000000025E-002     4.7848341637291014E-004
   2.9600000000000015E-002     5.2210508147254586E-004
   3.0700000000000005E-002     5.6303484598174691E-004
   3.1800000000000023E-002     6.0066481819376349E-004
   3.2900000000000013E-002     6.3440203666687012E-004
   3.4000000000000002E-002     6.6379539202898741E-004
   3.5100000000000020E-002     6.8849197123199701E-004
   3.6200000000000010E-002     7.0810649776831269E-004
   3.7300000000000028E-002     7.2222528979182243E-004
   3.8400000000000017E-002     7.3055230313912034E-004
   3.9500000000000007E-002     7.3297607013955712E-004
   4.0600000000000025E-002     7.2945025749504566E-004
   4.1700000000000015E-002     7.1987119736149907E-004
   4.2800000000000005E-002     7.0416758535429835E-004
   4.3900000000000022E-002     6.8245898000895977E-004
   4.5000000000000012E-002     6.5506424289196730E-004
   4.6100000000000002E-002     6.2231492483988404E-004
   4.7200000000000020E-002     5.8445974718779325E-004
   4.8300000000000010E-002     5.4180447477847338E-004
   4.9400000000000027E-002     4.9486442003399134E-004
   5.0500000000000017E-002     4.4428301043808460E-004
   5.1600000000000007E-002     3.9063527947291732E-004
   5.2700000000000025E-002     3.3441267441958189E-004
   5.3800000000000014E-002     2.7618888998404145E-004
   5.4900000000000004E-002     2.1671019203495234E-004
   5.6000000000000022E-002     1.5673121379222721E-004
   5.7100000000000012E-002     9.6845637017395347E-005
   5.8200000000000002E-002     3.7550358683802187E-005
   5.9300000000000019E-002    -2.0558092728606425E-005
   6.0400000000000009E-002    -7.6762706157751381E-005
   6.1500000000000027E-002    -1.3044169463682920E-004
   6.2600000000000017E-002    -1.8119919695891440E-004
   6.3700000000000007E-002    -2.2872278350405395E-004
   6.4800000000000024E-002    -2.7260251226834953E-004
   6.5900000000000014E-002    -3.1239006784744561E-004
   6.7000000000000004E-002    -3.4780334681272507E-004
   6.8100000000000022E-002    -3.7877252907492220E-004
   6.9200000000000012E-002    -4.0524845826439559E-004
   7.0300000000000029E-002    -4.2707927059382200E-004
   7.1400000000000019E-002    -4.4415355660021305E-004
   7.2500000000000009E-002    -4.5659238821826875E-004
   7.3600000000000027E-002    -4.6467059291899204E-004
   7.4700000000000016E-002    -4.6857431880198419E-004
   7.5800000000000006E-002    -4.6836040564812720E-004
   7.6900000000000024E-002    -4.6417937846854329E-004
   7.8000000000000014E-002    -4.5642678742296994E-004
   7.9100000000000004E-002    -4.4557865476235747E-004
   8.0200000000000021E-002    -4.3194610043428838E-004
   8.1300000000000011E-002    -4.1571183828637004E-004
   8.2400000000000029E-002    -3.9717240724712610E-004
   8.3500000000000019E-002    -3.7681421963497996E-004
   8.4600000000000009E-002    -3.5509932786226273E-004
   8.5700000000000026E-002    -3.3229344990104437E-004
   8.6800000000000016E-002    -3.0859053367748857E-004
   8.7900000000000006E-002    -2.8433144325390458E-004
   8.9000000000000024E-002    -2.5996199110522866E-004
   9.0100000000000013E-002    -2.3578842228744179E-004
   9.1200000000000003E-002    -2.1190838015172631E-004
   9.2300000000000021E-002    -1.8843228463083506E-004
   9.3400000000000011E-002    -1.6565457917749882E-004
   9.4500000000000028E-002    -1.4390439901035279E-004
   9.5600000000000018E-002    -1.2329814489930868E-004
   9.6700000000000008E-002    -1.0377017315477133E-004
   9.7800000000000026E-002    -8.5339321231003851E-005
   9.8900000000000016E-002    -6.8203677074052393E-005
  0.10000000000000001         -5.2526083891279995E-005
  0.10110000000000002         -3.8243528251769021E-005
  0.10220000000000001         -2.5199222363880835E-005
  0.10330000000000003         -1.3387840226641856E-005
  0.10440000000000002         -2.9403081498458050E-006
  0.10550000000000001          6.1344380810623989E-006
  0.10660000000000003          1.4036531865713187E-005
  0.10770000000000002          2.0955110812792554E-005
  0.10880000000000001          2.6870124202105217E-005
  0.10990000000000003          3.1680396205047145E-005
  0.11100000000000002          3.5468190617393702E-005
  0.11210000000000001          3.8492016756208614E-005
  0.11320000000000002          4.0914750570664182E-005
  0.11430000000000001          4.2681633203756064E-005
  0.11540000000000003          4.3723397538997233E-005
  0.11650000000000002          4.4173000787850469E-005
  0.11760000000000001          4.4260486902203411E-005
  0.11870000000000003          4.4061460357625037E-005
  0.11980000000000002          4.3482927139848471E-005
  0.12090000000000001          4.2507977923378348E-005
  0.12200000000000003          4.1309704101877287E-005
  0.12310000000000001          4.0060753235593438E-005
  0.12420000000000003          3.8732327084289864E-005
  0.12530000000000002          3.7198511563474312E-005
  0.12640000000000001          3.5487944842316210E-005
  0.12750000000000003          3.3791915484471247E-005
  0.12860000000000002          3.2215401006396860E-005
  0.12970000000000001          3.0653896828880534E-005
  0.13080000000000003          2.8982663934584707E-005
  0.13190000000000002          2.7270833015791140E-005
  0.13300000000000001          2.5694373107398860E-005
  0.13410000000000000          2.4284223400172777E-005
  0.13520000000000004          2.2896736481925473E-005
  0.13630000000000003          2.1445710444822907E-005
  0.13740000000000002          2.0041225070599467E-005
  0.13850000000000001          1.8822551282937638E-005
  0.13960000000000000          1.7748096070135944E-005
  0.14070000000000005          1.6662168491166085E-005
  0.14180000000000004          1.5533008991042152E-005
  0.14290000000000003          1.4495119103230536E-005
  0.14400000000000002          1.3638058590004221E-005
  0.14510000000000001          1.2869079000665806E-005
  0.14620000000000000          1.2057693311362527E-005
  0.14730000000000004          1.1232526048843283E-005
  0.14840000000000003          1.0527509402891155E-005
  0.14950000000000002          9.9668841357924975E-006
  0.15060000000000001          9.4241158876684494E-006
  0.15170000000000000          8.8160413724835962E-006
  0.15280000000000005          8.2279084381298162E-006
  0.15390000000000004          7.7770364441676065E-006
  0.15500000000000003          7.4264657996536698E-006
  0.15610000000000002          7.0361629695980810E-006
  0.15720000000000001          6.5724921114451718E-006
  0.15830000000000000          6.1550540522148367E-006
  0.15940000000000004          5.8720879678730853E-006
  0.16050000000000003          5.6471390053047799E-006
  0.16160000000000002          5.3558401305053849E-006
  0.16270000000000001          5.0097078201361001E-006
  0.16380000000000000          4.7287176130339503E-006
  0.16490000000000005          4.5538527047028765E-006
  0.16600000000000004          4.3882282625418156E-006
  0.16710000000000003          4.1492135096632410E-006
  0.16820000000000002          3.8914258766453713E-006
  0.16930000000000001          3.7156914913794026E-006
  0.17040000000000000          3.6110714063397609E-006
  0.17150000000000004          3.4742977277346654E-006
  0.17260000000000003          3.2697803362680133E-006
  0.17370000000000002          3.0807209441263694E-006
  0.17480000000000001          2.9773339065286564E-006
  0.17590000000000000          2.9091202122799587E-006
  0.17700000000000005          2.7847836463479325E-006
  0.17810000000000004          2.6118079858861165E-006
  0.17920000000000003          2.4808682610455435E-006
  0.18030000000000002          2.4242031031462830E-006
  0.18140000000000001          2.3675406737311278E-006
  0.18250000000000000          2.2453841665992513E-006
  0.18360000000000004          2.0997274532419397E-006
  0.18470000000000003          2.0131196833972353E-006
  0.18580000000000002          1.9833007627312327E-006
  0.18690000000000001          1.9294495814392576E-006
  0.18800000000000000          1.8146375850847107E-006
  0.18910000000000005          1.6964969518085127E-006
  0.19020000000000004          1.6348062672477681E-006
  0.19130000000000003          1.6026853018047404E-006
  0.19240000000000002          1.5324985724873841E-006
  0.19350000000000001          1.4180590142132132E-006
  0.19460000000000005          1.3167658607926569E-006
  0.19570000000000004          1.2565122915475513E-006
  0.19680000000000003          1.1942546507270890E-006
  0.19790000000000002          1.0848970077859121E-006
  0.19900000000000001          9.4835183972463710E-007
  0.20010000000000000          8.3318599308768171E-007
  0.20120000000000005          7.3808257639029762E-007
  0.20230000000000004          6.1288193364816834E-007
  0.20340000000000003          4.3261735527266865E-007
  0.20450000000000002          2.2896230689184449E-007
  0.20560000000000000          3.4101564239108484E-008
  0.20670000000000005         -1.7283372244492057E-007
  0.20780000000000004         -4.3727968090934155E-007
  0.20890000000000003         -7.6711484098268556E-007
