 -0.12000000000000000          0.0000000000000000
 -0.11889999999999999          0.0000000000000000
 -0.11780000000000000          0.0000000000000000
 -0.11670000000000000          0.0000000000000000
 -0.11559999999999999          0.0000000000000000
 -0.11449999999999999          0.0000000000000000
 -0.11340000000000000          0.0000000000000000
 -0.11230000000000000          0.0000000000000000
 -0.11119999999999999          0.0000000000000000
 -0.11009999999999999          0.0000000000000000
 -0.10900000000000000          0.0000000000000000
 -0.10790000000000000          0.0000000000000000
 -0.10679999999999999          0.0000000000000000
 -0.10569999999999999          0.0000000000000000
 -0.10460000000000000          0.0000000000000000
 -0.10349999999999999          0.0000000000000000
 -0.10239999999999999          0.0000000000000000
 -0.10130000000000000          1.9314105141579740E-038
 -0.10020000000000000         -7.5781245646954937E-038
  -9.9099999999999994E-002    -2.3686038080682780E-037
  -9.7999999999999990E-002     2.3040964569823248E-036
  -9.6899999999999986E-002     5.7888099187154492E-038
  -9.5799999999999996E-002    -3.4944927313520773E-035
  -9.4699999999999993E-002     2.8432812013913262E-035
  -9.3599999999999989E-002     3.9417016363108729E-034
  -9.2499999999999999E-002    -4.1312666307702752E-034
  -9.1399999999999995E-002    -3.7573894485607154E-033
  -9.0299999999999991E-002     3.4174497066143566E-033
  -8.9200000000000002E-002     3.1596321305999537E-032
  -8.8099999999999984E-002    -1.6454005685521986E-032
  -8.6999999999999994E-002    -2.3471848019253141E-031
  -8.5899999999999990E-002    -3.1435676043964255E-033
  -8.4799999999999986E-002     1.5118058236603417E-030
  -8.3699999999999997E-002     9.6947589434350048E-031
  -8.2599999999999993E-002    -8.1690650771976640E-030
  -8.1499999999999989E-002    -1.1438201759376858E-029
  -8.0399999999999999E-002     3.4766291521501837E-029
  -7.9299999999999995E-002     8.7477766319040935E-029
  -7.8199999999999992E-002    -9.6454874864632262E-029
  -7.7100000000000002E-002    -5.0348628385968174E-028
  -7.5999999999999984E-002    -2.3845821860893801E-029
  -7.4899999999999994E-002     2.2161860759338584E-027
  -7.3799999999999991E-002     2.2836540981876654E-027
  -7.2699999999999987E-002    -6.9387912481888652E-027
  -7.1599999999999997E-002    -1.6393019567070477E-026
  -7.0499999999999993E-002     9.9998481239864050E-027
  -6.9399999999999989E-002     7.3272944588025249E-026
  -6.8300000000000000E-002     4.2752329084404379E-026
  -6.7199999999999996E-002    -2.1728796460192461E-025
  -6.6099999999999992E-002    -3.9428345331119862E-025
  -6.5000000000000002E-002     2.9600883806818857E-025
  -6.3899999999999985E-002     1.6577880368783354E-024
  -6.2799999999999995E-002     9.6609921517767416E-025
  -6.1699999999999991E-002    -4.1325034666940884E-024
  -6.0599999999999994E-002    -7.9081025940390345E-024
  -5.9499999999999990E-002     3.0338756194392843E-024
  -5.8399999999999994E-002     2.7065596777079453E-023
  -5.7299999999999990E-002     2.4240636966106886E-023
  -5.6199999999999986E-002    -4.6631420353019467E-023
  -5.5099999999999996E-002    -1.2461346681140651E-022
  -5.3999999999999992E-002    -2.9612468919465319E-023
  -5.2899999999999989E-002     2.9122245509412016E-022
  -5.1799999999999985E-002     4.4413207227499123E-022
  -5.0699999999999995E-002    -1.6841951872350450E-022
  -4.9599999999999991E-002    -1.3077785059238930E-021
  -4.8499999999999988E-002    -1.2784096561846216E-021
  -4.7399999999999998E-002     1.4145186312988494E-021
  -4.6299999999999994E-002     4.7750341796944653E-021
  -4.5199999999999990E-002     3.0985763674097687E-021
  -4.4099999999999986E-002    -6.3425289196821651E-021
  -4.2999999999999997E-002    -1.5058559710825044E-020
  -4.1899999999999993E-002    -7.0256690340355109E-021
  -4.0799999999999989E-002     2.1064175301295590E-020
  -3.9699999999999985E-002     4.2842239782967121E-020
  -3.8599999999999995E-002     1.8789821204448300E-020
  -3.7499999999999992E-002    -5.4608447788007789E-020
  -3.6399999999999988E-002    -1.1360083650027298E-019
  -3.5299999999999984E-002    -6.7716501074148589E-020
  -3.4199999999999994E-002     1.0299800955917413E-019
  -3.3099999999999991E-002     2.8347321910887990E-019
  -3.1999999999999987E-002     2.7091395492272829E-019
  -3.0899999999999997E-002    -7.3058937533201816E-020
  -2.9799999999999993E-002    -6.4252401793156342E-019
  -2.8699999999999989E-002    -9.8929219278420602E-019
  -2.7599999999999986E-002    -4.7437034861477977E-019
  -2.6499999999999996E-002     1.1668177667424272E-018
  -2.5399999999999992E-002     3.0402353398090364E-018
  -2.4299999999999988E-002     2.9736241394413662E-018
  -2.3199999999999985E-002    -9.1920569647047083E-019
  -2.2099999999999995E-002    -7.4135301393901557E-018
  -2.0999999999999991E-002    -1.0854287986158593E-017
  -1.9899999999999987E-002    -4.4719956446321716E-018
  -1.8799999999999983E-002     1.2324352543607221E-017
  -1.7699999999999994E-002     2.8849955418371270E-017
  -1.6599999999999990E-002     2.7392006575354706E-017
  -1.5499999999999986E-002    -2.9333704289072388E-018
  -1.4399999999999996E-002    -5.2092175531559748E-017
  -1.3299999999999992E-002    -8.7133385928988319E-017
  -1.2199999999999989E-002    -6.7578889187793948E-017
  -1.1099999999999985E-002     2.7003612190536558E-017
  -9.9999999999999950E-003     1.6931205263301261E-016
  -8.8999999999999913E-003     2.7278261961939275E-016
  -7.7999999999999875E-003     2.1641703713748194E-016
  -6.6999999999999837E-003    -8.0199865390340235E-017
  -5.5999999999999939E-003    -5.5099588510098803E-016
  -4.4999999999999901E-003    -9.1909342820901269E-016
  -3.3999999999999864E-003    -7.7278473901550774E-016
  -2.2999999999999826E-003     1.7499339377782282E-016
  -1.1999999999999927E-003     1.7388306328589248E-015
  -9.9999999999988987E-005     3.0624018810187711E-015
   1.0000000000000148E-003     2.8381505435079056E-015
   2.1000000000000185E-003     5.3840319185794616E-017
   3.2000000000000084E-003    -4.9650212631850103E-015
   4.3000000000000121E-003    -9.8359049786780721E-015
   5.4000000000000159E-003    -1.0521836494529341E-014
   6.5000000000000058E-003    -3.3292731635783945E-015
   7.6000000000000234E-003     1.1960220411711547E-014
   8.7000000000000133E-003     2.9482076095753776E-014
   9.8000000000000032E-003     3.7523566339629083E-014
   1.0900000000000021E-002     2.3234964164264502E-014
   1.2000000000000011E-002    -1.8785540749919130E-014
   1.3100000000000001E-002    -7.7669736419337665E-014
   1.4200000000000018E-002    -1.2313797713697089E-013
   1.5300000000000008E-002    -1.1368793547631567E-013
   1.6400000000000026E-002    -1.7686942405462092E-014
   1.7500000000000016E-002     1.5864660117288071E-013
   1.8600000000000005E-002     3.5069600760710695E-013
   1.9700000000000023E-002     4.4054324532978584E-013
   2.0800000000000013E-002     3.0007699341853822E-013
   2.1900000000000003E-002    -1.3280373437236925E-013
   2.3000000000000020E-002    -7.7358632737459243E-013
   2.4100000000000010E-002    -1.3536780203715626E-012
   2.5200000000000000E-002    -1.4736806610085584E-012
   2.6300000000000018E-002    -7.6680605224851983E-013
   2.7400000000000008E-002     8.6273723625199250E-013
   2.8500000000000025E-002     3.0244749846947139E-012
   2.9600000000000015E-002     4.7866181504541139E-012
   3.0700000000000005E-002     4.8986145001483905E-012
   3.1800000000000023E-002     2.3125481564412187E-012
   3.2900000000000013E-002    -3.1295920716045700E-012
   3.4000000000000002E-002    -1.0129812787196268E-011
   3.5100000000000020E-002    -1.5848237652771324E-011
   3.6200000000000010E-002    -1.6574937602986672E-011
   3.7300000000000028E-002    -9.1790542181002799E-012
   3.8400000000000017E-002     7.0257003340068458E-012
   3.9500000000000007E-002     2.8727551587559574E-011
   4.0600000000000025E-002     4.8272965486040320E-011
   4.1700000000000015E-002     5.5237394519513927E-011
   4.2800000000000005E-002     4.0006040147311239E-011
   4.3900000000000022E-002    -1.4370667199628540E-012
   4.5000000000000012E-002    -6.3189335708369043E-011
   4.6100000000000002E-002    -1.2770241808457428E-010
   4.7200000000000020E-002    -1.6843330896687547E-010
   4.8300000000000010E-002    -1.5741830061699602E-010
   4.9400000000000027E-002    -7.6404355064951801E-011
   5.0500000000000017E-002     7.1805277002123802E-011
   5.1600000000000007E-002     2.5637347800255839E-010
   5.2700000000000025E-002     4.2017672674532491E-010
   5.3800000000000014E-002     4.9261683621182328E-010
   5.4900000000000004E-002     4.1231978942235514E-010
   5.6000000000000022E-002     1.5443658851754805E-010
   5.7100000000000012E-002    -2.4606180981656678E-010
   5.8200000000000002E-002    -6.8483241300043574E-010
   5.9300000000000019E-002    -1.0000580363822564E-009
   6.0400000000000009E-002    -1.0082000789779499E-009
   6.1500000000000027E-002    -5.5864901593594141E-010
   6.2600000000000017E-002     4.0509212650974291E-010
   6.3700000000000007E-002     1.7948584840610238E-009
   6.4800000000000024E-002     3.3552471911946213E-009
   6.5900000000000014E-002     4.6811527987244972E-009
   6.7000000000000004E-002     5.2776054637604375E-009
   6.8100000000000022E-002     4.6519326168947828E-009
   6.9200000000000012E-002     2.4170980772453277E-009
   7.0300000000000029E-002    -1.6215144782449897E-009
   7.1400000000000019E-002    -7.4229267177372549E-009
   7.2500000000000009E-002    -1.4729590880335763E-008
   7.3600000000000027E-002    -2.3151974559709743E-008
   7.4700000000000016E-002    -3.2304072306033049E-008
   7.5800000000000006E-002    -4.1959822283388348E-008
   7.6900000000000024E-002    -5.2192707045151110E-008
   7.8000000000000014E-002    -6.3462614718901023E-008
   7.9100000000000004E-002    -7.6628097644970694E-008
   8.0200000000000021E-002    -9.2882785907022480E-008
   8.1300000000000011E-002    -1.1363656682306100E-007
   8.2400000000000029E-002    -1.4038080564660049E-007
   8.3500000000000019E-002    -1.7458242496104504E-007
   8.4600000000000009E-002    -2.1764806490409683E-007
   8.5700000000000026E-002    -2.7097752308691270E-007
   8.6800000000000016E-002    -3.3610530181249487E-007
   8.7900000000000006E-002    -4.1489627733426460E-007
   8.9000000000000024E-002    -5.0975074827874778E-007
   9.0100000000000013E-002    -6.2377023368753726E-007
   9.1200000000000003E-002    -7.6084677402832313E-007
   9.2300000000000021E-002    -9.2567893261730205E-007
   9.3400000000000011E-002    -1.1237186754442519E-006
   9.4500000000000028E-002    -1.3611095255328109E-006
   9.5600000000000018E-002    -1.6446571180495084E-006
   9.6700000000000008E-002    -1.9818785403913353E-006
   9.7800000000000026E-002    -2.3811353457858786E-006
   9.8900000000000016E-002    -2.8518361432361417E-006
  0.10000000000000001         -3.4046788641717285E-006
  0.10110000000000002         -4.0518880268791690E-006
  0.10220000000000001         -4.8073784455482382E-006
  0.10330000000000003         -5.6868343563110102E-006
  0.10440000000000002         -6.7076775849272963E-006
  0.10550000000000001         -7.8890079748816788E-006
  0.10660000000000003         -9.2515274445759133E-006
  0.10770000000000002         -1.0817455404321663E-005
  0.10880000000000001         -1.2610517842404079E-005
  0.10990000000000003         -1.4655935046903323E-005
  0.11100000000000002         -1.6980427972157486E-005
  0.11210000000000001         -1.9612161850091070E-005
  0.11320000000000002         -2.2580707081942819E-005
  0.11430000000000001         -2.5916706363204867E-005
  0.11540000000000003         -2.9651564545929432E-005
  0.11650000000000002         -3.3817043004091829E-005
  0.11760000000000001         -3.8444679375970736E-005
  0.11870000000000003         -4.3565109081100672E-005
  0.11980000000000002         -4.9207294068764895E-005
  0.12090000000000001         -5.5397893447661772E-005
  0.12200000000000003         -6.2160273955669254E-005
  0.12310000000000001         -6.9513705966528505E-005
  0.12420000000000003         -7.7472053817473352E-005
  0.12530000000000002         -8.6042789916973561E-005
  0.12640000000000001         -9.5226176199503243E-005
  0.12750000000000003         -1.0501385258976370E-004
  0.12860000000000002         -1.1538760008988902E-004
  0.12970000000000001         -1.2631822028197348E-004
  0.13080000000000003         -1.3776448031421751E-004
  0.13190000000000002         -1.4967191964387894E-004
  0.13300000000000001         -1.6197131481021643E-004
  0.13410000000000000         -1.7457779904361814E-004
  0.13520000000000004         -1.8739044026006013E-004
  0.13630000000000003         -2.0029106235597283E-004
  0.13740000000000002         -2.1314376499503851E-004
  0.13850000000000001         -2.2579480719286948E-004
  0.13960000000000000         -2.3807318939361721E-004
  0.14070000000000005         -2.4979183217510581E-004
  0.14180000000000004         -2.6074831839650869E-004
  0.14290000000000003         -2.7072566444985569E-004
  0.14400000000000002         -2.7949479408562183E-004
  0.14510000000000001         -2.8681635740213096E-004
  0.14620000000000000         -2.9244419420138001E-004
  0.14730000000000004         -2.9612853541038930E-004
  0.14840000000000003         -2.9761824407614768E-004
  0.14950000000000002         -2.9666529735550284E-004
  0.15060000000000001         -2.9302918119356036E-004
  0.15170000000000000         -2.8648227453231812E-004
  0.15280000000000005         -2.7681500068865716E-004
  0.15390000000000004         -2.6384054217487574E-004
  0.15500000000000003         -2.4739996297284961E-004
  0.15610000000000002         -2.2736817481927574E-004
  0.15720000000000001         -2.0365815726108849E-004
  0.15830000000000000         -1.7622498853597790E-004
  0.15940000000000004         -1.4507042942568660E-004
  0.16050000000000003         -1.1024739069398493E-004
  0.16160000000000002         -7.1863491029944271E-005
  0.16270000000000001         -3.0082495868555270E-005
  0.16380000000000000          1.4874854969093576E-005
  0.16490000000000005          6.2729784986004233E-005
  0.16600000000000004          1.1314466246403754E-004
  0.16710000000000003          1.6572378808632493E-004
  0.16820000000000002          2.2001769684720784E-004
  0.16930000000000001          2.7552756364457309E-004
  0.17040000000000000          3.3171122777275741E-004
  0.17150000000000004          3.8798790774308145E-004
  0.17260000000000003          4.4374447315931320E-004
  0.17370000000000002          4.9834407400339842E-004
  0.17480000000000001          5.5113591952249408E-004
  0.17590000000000000          6.0146470787003636E-004
  0.17700000000000005          6.4868008485063910E-004
  0.17810000000000004          6.9214770337566733E-004
  0.17920000000000003          7.3125900235027075E-004
  0.18030000000000002          7.6544209150597453E-004
  0.18140000000000001          7.9417257802560925E-004
  0.18250000000000000          8.1698276335373521E-004
  0.18360000000000004          8.3347089821472764E-004
  0.18470000000000003          8.4331212565302849E-004
  0.18580000000000002          8.4626232273876667E-004
  0.18690000000000001          8.4215932292863727E-004
  0.18800000000000000          8.3093077410012484E-004
  0.18910000000000005          8.1259856233373284E-004
  0.19020000000000004          7.8728090738877654E-004
  0.19130000000000003          7.5518887024372816E-004
  0.19240000000000002          7.1662326809018850E-004
  0.19350000000000001          6.7196920281276107E-004
  0.19460000000000005          6.2169344164431095E-004
  0.19570000000000004          5.6633743224665523E-004
  0.19680000000000003          5.0650944467633963E-004
  0.19790000000000002          4.4287278433330357E-004
  0.19900000000000001          3.7613682798109949E-004
  0.20010000000000000          3.0704442178830504E-004
  0.20120000000000005          2.3635874094907194E-004
  0.20230000000000004          1.6485275409650058E-004
  0.20340000000000003          9.3298804131336510E-005
  0.20450000000000002          2.2458354578702711E-005
  0.20560000000000000         -4.6930766984587535E-005
  0.20670000000000005         -1.1416821507737041E-004
  0.20780000000000004         -1.7860242223832756E-004
  0.20890000000000003         -2.3963690910022706E-004
