 -0.12000000000000000          0.0000000000000000     
 -0.11889999999999999          0.0000000000000000     
 -0.11780000000000000          1.0369223673478700E-005
 -0.11670000000000000         -5.7232368817494716E-006
 -0.11559999999999999         -4.2934650991810486E-005
 -0.11449999999999999         -3.8957938386374735E-007
 -0.11340000000000000          9.4690716650802642E-005
 -0.11230000000000000          3.1441515602637082E-005
 -0.11119999999999999         -1.4012589235790074E-004
 -0.11009999999999999         -9.9468052212614566E-006
 -0.10900000000000000          3.5118305822834373E-004
 -0.10790000000000000          7.0352543843910098E-005
 -0.10679999999999999         -1.0058366460725665E-003
 -0.10569999999999999         -1.1534411460161209E-003
 -0.10460000000000000          9.8876503761857748E-004
 -0.10349999999999999          3.2284290064126253E-003
 -0.10239999999999999          1.7115187365561724E-003
 -0.10130000000000000         -2.9275352135300636E-003
 -0.10020000000000000         -4.6732625924050808E-003
  -9.9099999999999994E-002    -3.8570162723772228E-004
  -9.7999999999999990E-002     4.0956581942737103E-003
  -9.6899999999999986E-002     1.4647929929196835E-003
  -9.5799999999999996E-002    -4.8546516336500645E-003
  -9.4699999999999993E-002    -3.7123099900782108E-003
  -9.3599999999999989E-002     6.4507853239774704E-003
  -9.2499999999999999E-002     1.1895681731402874E-002
  -9.1399999999999995E-002     2.4195099249482155E-003
  -9.0299999999999991E-002    -1.0690496303141117E-002
  -8.9200000000000002E-002    -7.6328422874212265E-003
  -8.8099999999999984E-002     1.0320319794118404E-002
  -8.6999999999999994E-002     1.8833955749869347E-002
  -8.5899999999999990E-002     4.0515661239624023E-003
  -8.4799999999999986E-002    -1.5296828001737595E-002
  -8.3699999999999997E-002    -1.2509934604167938E-002
  -8.2599999999999993E-002     8.8678151369094849E-003
  -8.1499999999999989E-002     1.9944021478295326E-002
  -8.0399999999999999E-002     8.7499916553497314E-003
  -7.9299999999999995E-002    -3.2657007686793804E-003
  -7.8199999999999992E-002     4.3235621415078640E-003
  -7.7100000000000002E-002     1.9254690036177635E-002
  -7.5999999999999984E-002     1.8021937459707260E-002
  -7.4899999999999994E-002     6.3531855121254921E-003
  -7.3799999999999991E-002     1.1512287892401218E-002
  -7.2699999999999987E-002     3.5368539392948151E-002
  -7.1599999999999997E-002     4.5220341533422470E-002
  -7.0499999999999993E-002     2.4615025147795677E-002
  -6.9399999999999989E-002     6.7414576187729836E-003
  -6.8300000000000000E-002     3.0033474788069725E-002
  -6.7199999999999996E-002     7.6328597962856293E-002
  -6.6099999999999992E-002     9.0159378945827484E-002
  -6.5000000000000002E-002     6.0222923755645752E-002
  -6.3899999999999985E-002     4.2104501277208328E-002
  -6.2799999999999995E-002     8.0374293029308319E-002
  -6.1699999999999991E-002    0.14099857211112976     
  -6.0599999999999994E-002    0.15796442329883575     
  -5.9499999999999990E-002    0.12972638010978699     
  -5.8399999999999994E-002    0.12231674045324326     
  -5.7299999999999990E-002    0.17255882918834686     
  -5.6199999999999986E-002    0.23566071689128876     
  -5.5099999999999996E-002    0.25512737035751343     
  -5.3999999999999992E-002    0.24714265763759613     
  -5.2899999999999989E-002    0.27072954177856445     
  -5.1799999999999985E-002    0.33316937088966370     
  -5.0699999999999995E-002    0.38101887702941895     
  -4.9599999999999991E-002    0.39013993740081787     
  -4.8499999999999988E-002    0.40864282846450806     
  -4.7399999999999998E-002    0.47824978828430176     
  -4.6299999999999994E-002    0.55755019187927246     
  -4.5199999999999990E-002    0.57790875434875488     
  -4.4099999999999986E-002    0.55553269386291504     
  -4.2999999999999997E-002    0.58032470941543579     
  -4.1899999999999993E-002    0.68313527107238770     
  -4.0799999999999989E-002    0.77865856885910034     
  -3.9699999999999985E-002    0.78003686666488647     
  -3.8599999999999995E-002    0.72472494840621948     
  -3.7499999999999992E-002    0.72224479913711548     
  -3.6399999999999988E-002    0.79713302850723267     
  -3.5299999999999984E-002    0.85599452257156372     
  -3.4199999999999994E-002    0.82507127523422241     
  -3.3099999999999991E-002    0.74988496303558350     
  -3.1999999999999987E-002    0.71408212184906006     
  -3.0899999999999997E-002    0.70765173435211182     
  -2.9799999999999993E-002    0.65054708719253540     
  -2.8699999999999989E-002    0.52566164731979370     
  -2.7599999999999986E-002    0.40665146708488464     
  -2.6499999999999996E-002    0.33221235871315002     
  -2.5399999999999992E-002    0.23243680596351624     
  -2.4299999999999988E-002     2.9646551236510277E-002
  -2.3199999999999985E-002   -0.23393326997756958     
  -2.2099999999999995E-002   -0.44917851686477661     
  -2.0999999999999991E-002   -0.60146194696426392     
  -1.9899999999999987E-002   -0.79780536890029907     
  -1.8799999999999983E-002    -1.1134747266769409     
  -1.7699999999999994E-002    -1.4762719869613647     
  -1.6599999999999990E-002    -1.7721315622329712     
  -1.5499999999999986E-002    -2.0095798969268799     
  -1.4399999999999996E-002    -2.2959380149841309     
  -1.3299999999999992E-002    -2.6651203632354736     
  -1.2199999999999989E-002    -3.0235238075256348     
  -1.1099999999999985E-002    -3.2912604808807373     
  -9.9999999999999950E-003    -3.5216088294982910     
  -8.8999999999999913E-003    -3.8059115409851074     
  -7.7999999999999875E-003    -4.1213531494140625     
  -6.6999999999999837E-003    -4.3521509170532227     
  -5.5999999999999939E-003    -4.4591555595397949     
  -4.4999999999999901E-003    -4.5316996574401855     
  -3.3999999999999864E-003    -4.6405611038208008     
  -2.2999999999999826E-003    -4.7265968322753906     
  -1.1999999999999927E-003    -4.6806454658508301     
  -9.9999999999988987E-005    -4.5107822418212891     
   1.0000000000000148E-003    -4.3088641166687012     
   2.1000000000000185E-003    -4.1091427803039551     
   3.2000000000000084E-003    -3.8305969238281250     
   4.3000000000000121E-003    -3.4044456481933594     
   5.4000000000000159E-003    -2.8866977691650391     
   6.5000000000000058E-003    -2.3681480884552002     
   7.6000000000000234E-003    -1.8455841541290283     
   8.7000000000000133E-003    -1.2231408357620239     
   9.8000000000000032E-003   -0.47094678878784180     
   1.0900000000000021E-002    0.31888335943222046     
   1.2000000000000011E-002     1.0611604452133179     
   1.3100000000000001E-002     1.7852671146392822     
   1.4200000000000018E-002     2.5748481750488281     
   1.5300000000000008E-002     3.4225127696990967     
   1.6400000000000026E-002     4.2290024757385254     
   1.7500000000000016E-002     4.9402589797973633     
   1.8600000000000005E-002     5.6103401184082031     
   1.9700000000000023E-002     6.2899465560913086     
   2.0800000000000013E-002     6.9321498870849609     
   2.1900000000000003E-002     7.4442930221557617     
   2.3000000000000020E-002     7.8165321350097656     
   2.4100000000000010E-002     8.1213073730468750     
   2.5200000000000000E-002     8.3960227966308594     
   2.6300000000000018E-002     8.5726079940795898     
   2.7400000000000008E-002     8.5802869796752930     
   2.8500000000000025E-002     8.4385595321655273     
   2.9600000000000015E-002     8.2168703079223633     
   3.0700000000000005E-002     7.9310722351074219     
   3.1800000000000023E-002     7.5327153205871582     
   3.2900000000000013E-002     6.9997949600219727     
   3.4000000000000002E-002     6.3755879402160645     
   3.5100000000000020E-002     5.7069845199584961     
   3.6200000000000010E-002     4.9751319885253906     
   3.7300000000000028E-002     4.1456041336059570     
   3.8400000000000017E-002     3.2466135025024414     
   3.9500000000000007E-002     2.3560471534729004     
   4.0600000000000025E-002     1.4953180551528931     
   4.1700000000000015E-002    0.62001615762710571     
   4.2800000000000005E-002   -0.29547256231307983     
   4.3900000000000022E-002    -1.2022147178649902     
   4.5000000000000012E-002    -2.0463101863861084     
   4.6100000000000002E-002    -2.8081185817718506     
   4.7200000000000020E-002    -3.5110712051391602     
   4.8300000000000010E-002    -4.1656875610351562     
   4.9400000000000027E-002    -4.7558846473693848     
   5.0500000000000017E-002    -5.2520160675048828     
   5.1600000000000007E-002    -5.6568260192871094     
   5.2700000000000025E-002    -5.9831705093383789     
   5.3800000000000014E-002    -6.2191123962402344     
   5.4900000000000004E-002    -6.3509836196899414     
   5.6000000000000022E-002    -6.3862371444702148     
   5.7100000000000012E-002    -6.3491635322570801     
   5.8200000000000002E-002    -6.2453894615173340     
   5.9300000000000019E-002    -6.0686178207397461     
   6.0400000000000009E-002    -5.8153662681579590     
   6.1500000000000027E-002    -5.5041918754577637     
   6.2600000000000017E-002    -5.1453323364257812     
   6.3700000000000007E-002    -4.7367672920227051     
   6.4800000000000024E-002    -4.2840380668640137     
   6.5900000000000014E-002    -3.8190791606903076     
   6.7000000000000004E-002    -3.3609135150909424     
   6.8100000000000022E-002    -2.8951885700225830     
   6.9200000000000012E-002    -2.4025764465332031     
   7.0300000000000029E-002    -1.9034851789474487     
   7.1400000000000019E-002    -1.4364111423492432     
   7.2500000000000009E-002    -1.0104372501373291     
   7.3600000000000027E-002   -0.59822732210159302     
   7.4700000000000016E-002   -0.19268006086349487     
   7.5800000000000006E-002    0.17167355120182037     
   7.6900000000000024E-002    0.47125533223152161     
   7.8000000000000014E-002    0.73695057630538940     
   7.9100000000000004E-002     1.0104033946990967     
   8.0200000000000021E-002     1.2681348323822021     
   8.1300000000000011E-002     1.4449496269226074     
   8.2400000000000029E-002     1.5330641269683838     
   8.3500000000000019E-002     1.6040906906127930     
   8.4600000000000009E-002     1.7125037908554077     
   8.5700000000000026E-002     1.8132896423339844     
   8.6800000000000016E-002     1.8278524875640869     
   8.7900000000000006E-002     1.7672241926193237     
   8.9000000000000024E-002     1.7189435958862305     
   9.0100000000000013E-002     1.7154215574264526     
   9.1200000000000003E-002     1.6869827508926392     
   9.2300000000000021E-002     1.5772264003753662     
   9.3400000000000011E-002     1.4419755935668945     
   9.4500000000000028E-002     1.3664647340774536     
   9.5600000000000018E-002     1.3325593471527100     
   9.6700000000000008E-002     1.2418380975723267     
   9.7800000000000026E-002     1.0712056159973145     
   9.8900000000000016E-002    0.91743522882461548     
  0.10000000000000001         0.85831159353256226     
  0.10110000000000002         0.83258807659149170     
  0.10220000000000001         0.73224985599517822     
  0.10330000000000003         0.56913536787033081     
  0.10440000000000002         0.45802605152130127     
  0.10550000000000001         0.44061294198036194     
  0.10660000000000003         0.41759216785430908     
  0.10770000000000002         0.30589893460273743     
  0.10880000000000001         0.17504484951496124     
  0.10990000000000003         0.14155896008014679     
  0.11100000000000002         0.18448634445667267     
  0.11210000000000001         0.16592215001583099     
  0.11320000000000002          4.1934452950954437E-002
  0.11430000000000001         -6.1081096529960632E-002
  0.11540000000000003         -3.4767478704452515E-002
  0.11650000000000002          4.5604497194290161E-002
  0.11760000000000001          2.9673887416720390E-002
  0.11870000000000003         -8.2019604742527008E-002
  0.11980000000000002        -0.14194674789905548     
  0.12090000000000001         -8.1470564007759094E-002
  0.12200000000000003         -1.2508193030953407E-002
  0.12310000000000001         -5.2486281841993332E-002
  0.12420000000000003        -0.14130765199661255     
  0.12530000000000002        -0.13806727528572083     
  0.12640000000000001         -4.5472506433725357E-002
  0.12750000000000003         -9.8914923146367073E-003
  0.12860000000000002         -9.1407775878906250E-002
  0.12970000000000001        -0.16513676941394806     
  0.13080000000000003        -0.10952200740575790     
  0.13190000000000002          1.0927522089332342E-003
  0.13300000000000001          4.6709626913070679E-003
  0.13410000000000000        -0.10053842514753342     
  0.13520000000000004        -0.15037699043750763     
  0.13630000000000003         -6.4214423298835754E-002
  0.13740000000000002          3.1762730330228806E-002
  0.13850000000000001         -2.8949265833944082E-003
  0.13960000000000000        -0.10761871188879013     
  0.14070000000000005        -0.11469936370849609     
  0.14180000000000004         -8.2106860354542732E-003
  0.14290000000000003          5.1778461784124374E-002
  0.14400000000000002         -2.3294534534215927E-002
  0.14510000000000001        -0.11380911618471146     
  0.14620000000000000         -7.6403550803661346E-002
  0.14730000000000004          3.5087373107671738E-002
  0.14840000000000003          5.2827082574367523E-002
  0.14950000000000002         -4.6069152653217316E-002
  0.15060000000000001        -0.10578054934740067     
  0.15170000000000000         -3.2642681151628494E-002
  0.15280000000000005          6.1303738504648209E-002
  0.15390000000000004          3.2814461737871170E-002
  0.15500000000000003         -7.0640683174133301E-002
  0.15610000000000002         -8.5445083677768707E-002
  0.15720000000000001          1.4078899286687374E-002
  0.15830000000000000          7.5257204473018646E-002
  0.15940000000000004          3.3349189907312393E-003
  0.16050000000000003         -9.1624207794666290E-002
  0.16160000000000002         -6.3341774046421051E-002
  0.16270000000000001          4.6375643461942673E-002
  0.16380000000000000          7.2210036218166351E-002
  0.16490000000000005         -2.1853324025869370E-002
  0.16600000000000004         -8.9821726083755493E-002
  0.16710000000000003         -2.8996735811233521E-002
  0.16820000000000002          6.4769931137561798E-002
  0.16930000000000001          4.7966416925191879E-002
  0.17040000000000000         -5.0536718219518661E-002
  0.17150000000000004         -7.7320456504821777E-002
  0.17260000000000003          7.9302825033664703E-003
  0.17370000000000002          7.2715774178504944E-002
  0.17480000000000001          1.7922643572092056E-002
  0.17590000000000000         -7.0375904440879822E-002
  0.17700000000000005         -5.5768646299839020E-002
  0.17810000000000004          3.8682807236909866E-002
  0.17920000000000003          6.8410299718379974E-002
  0.18030000000000002         -1.0183804668486118E-002
  0.18140000000000001         -7.5281046330928802E-002
  0.18250000000000000         -2.8913229703903198E-002
  0.18360000000000004          5.5128972977399826E-002
  0.18470000000000003          4.8282183706760406E-002
  0.18580000000000002         -3.5592600703239441E-002
  0.18690000000000001         -6.5656200051307678E-002
  0.18800000000000000          2.8661277610808611E-003
  0.18910000000000005          6.2657266855239868E-002
  0.19020000000000004          2.2501323372125626E-002
  0.19130000000000003         -5.3859047591686249E-002
  0.19240000000000002         -4.9114555120468140E-002
  0.19350000000000001          2.7501869946718216E-002
  0.19460000000000005          5.7745620608329773E-002
  0.19570000000000004         -2.5380537845194340E-003
  0.19680000000000003         -5.8732595294713974E-002
  0.19790000000000002         -2.5645462796092033E-002
  0.19900000000000001          4.3599564582109451E-002
  0.20010000000000000          4.2844761162996292E-002
  0.20120000000000005         -2.4440126493573189E-002
  0.20230000000000004         -5.4336708039045334E-002
  0.20340000000000003         -3.2803248614072800E-003
  0.20450000000000002          4.8707630485296249E-002
  0.20560000000000000          2.3750407621264458E-002
  0.20670000000000005         -3.6746699362993240E-002
  0.20780000000000004         -4.0245916694402695E-002
  0.20890000000000003          1.5430505387485027E-002
