 -0.12000000000000000          0.0000000000000000     
 -0.11889999999999999          0.0000000000000000     
 -0.11780000000000000          0.0000000000000000     
 -0.11670000000000000          0.0000000000000000     
 -0.11559999999999999          6.4928498775401744E-013
 -0.11449999999999999         -1.1329151592548437E-012
 -0.11340000000000000         -6.7333504223665575E-012
 -0.11230000000000000          1.0982585500751707E-011
 -0.11119999999999999          4.9937921853260292E-011
 -0.11009999999999999         -3.9287413600153087E-011
 -0.10900000000000000         -2.7724814111174112E-010
 -0.10790000000000000         -3.7450900020052913E-011
 -0.10679999999999999          1.0864608102068019E-009
 -0.10569999999999999          1.1499434737771708E-009
 -0.10460000000000000         -2.5528137381769511E-009
 -0.10349999999999999         -6.2735669992264320E-009
 -0.10239999999999999          7.4657569015812442E-010
 -0.10130000000000000          1.8076176999670679E-008
 -0.10020000000000000          1.8575724070046817E-008
  -9.9099999999999994E-002    -2.2345570727111408E-008
  -9.7999999999999990E-002    -6.8387301155325986E-008
  -9.6899999999999986E-002    -3.2670062211082040E-008
  -9.5799999999999996E-002     9.9011515430902364E-008
  -9.4699999999999993E-002     1.7896529413974349E-007
  -9.3599999999999989E-002     3.6256750490792911E-008
  -9.2499999999999999E-002    -2.5261928726649785E-007
  -9.1399999999999995E-002    -3.4893793099399772E-007
  -9.0299999999999991E-002    -4.5199580966936992E-008
  -8.9200000000000002E-002     3.8948462588450639E-007
  -8.8099999999999984E-002     4.6560910504922504E-007
  -8.6999999999999994E-002     1.0877401024345090E-007
  -8.5899999999999990E-002    -2.0525241950508644E-007
  -8.4799999999999986E-002    -1.1960170809288684E-007
  -8.3699999999999997E-002     2.7202148089600087E-008
  -8.2599999999999993E-002    -3.5596380598690303E-007
  -8.1499999999999989E-002    -1.1590127542149276E-006
  -8.0399999999999999E-002    -1.4852860203973250E-006
  -7.9299999999999995E-002    -6.4671263544369140E-007
  -7.8199999999999992E-002     1.1499427046146593E-006
  -7.7100000000000002E-002     3.3313483527308563E-006
  -7.5999999999999984E-002     5.6706235227466095E-006
  -7.4899999999999994E-002     7.9256333265220746E-006
  -7.3799999999999991E-002     9.2077661975054070E-006
  -7.2699999999999987E-002     8.7718881331966259E-006
  -7.1599999999999997E-002     7.5659700087271631E-006
  -7.0499999999999993E-002     7.8176462920964696E-006
  -6.9399999999999989E-002     1.0308441233064514E-005
  -6.8300000000000000E-002     1.3066931387584191E-005
  -6.7199999999999996E-002     1.4201061276253313E-005
  -6.6099999999999992E-002     1.5505918781855144E-005
  -6.5000000000000002E-002     2.1150764951016754E-005
  -6.3899999999999985E-002     3.2118725357577205E-005
  -6.2799999999999995E-002     4.3944513890892267E-005
  -6.1699999999999991E-002     5.1823786634486169E-005
  -6.0599999999999994E-002     5.6874618167057633E-005
  -5.9499999999999990E-002     6.4990868850145489E-005
  -5.8399999999999994E-002     7.9750869190320373E-005
  -5.7299999999999990E-002     9.9170341854915023E-005
  -5.6199999999999986E-002     1.2023172166664153E-004
  -5.5099999999999996E-002     1.4367718540597707E-004
  -5.3999999999999992E-002     1.7200448201037943E-004
  -5.2899999999999989E-002     2.0509964087978005E-004
  -5.1799999999999985E-002     2.4177579325623810E-004
  -5.0699999999999995E-002     2.8481215122155845E-004
  -4.9599999999999991E-002     3.3949341741390526E-004
  -4.8499999999999988E-002     4.0561094647273421E-004
  -4.7399999999999998E-002     4.7589791938662529E-004
  -4.6299999999999994E-002     5.4684659698978066E-004
  -4.5199999999999990E-002     6.2782119493931532E-004
  -4.4099999999999986E-002     7.3277507908642292E-004
  -4.2999999999999997E-002     8.6298707174137235E-004
  -4.1899999999999993E-002     1.0050976416096091E-003
  -4.0799999999999989E-002     1.1495363432914019E-003
  -3.9699999999999985E-002     1.3048545224592090E-003
  -3.8599999999999995E-002     1.4875846682116389E-003
  -3.7499999999999992E-002     1.7018088838085532E-003
  -3.6399999999999988E-002     1.9374645780771971E-003
  -3.5299999999999984E-002     2.1883295848965645E-003
  -3.4199999999999994E-002     2.4615447036921978E-003
  -3.3099999999999991E-002     2.7649416588246822E-003
  -3.1999999999999987E-002     3.0940934084355831E-003
  -3.0899999999999997E-002     3.4413340035825968E-003
  -2.9799999999999993E-002     3.8121885154396296E-003
  -2.8699999999999989E-002     4.2195259593427181E-003
  -2.7599999999999986E-002     4.6606152318418026E-003
  -2.6499999999999996E-002     5.1136747933924198E-003
  -2.5399999999999992E-002     5.5648684501647949E-003
  -2.4299999999999988E-002     6.0275909490883350E-003
  -2.3199999999999985E-002     6.5220515243709087E-003
  -2.2099999999999995E-002     7.0410128682851791E-003
  -2.0999999999999991E-002     7.5521185062825680E-003
  -1.9899999999999987E-002     8.0355703830718994E-003
  -1.8799999999999983E-002     8.5015986114740372E-003
  -1.7699999999999994E-002     8.9620957151055336E-003
  -1.6599999999999990E-002     9.3991076573729515E-003
  -1.5499999999999986E-002     9.7794299945235252E-003
  -1.4399999999999996E-002     1.0092475451529026E-002
  -1.3299999999999992E-002     1.0350544936954975E-002
  -1.2199999999999989E-002     1.0548486374318600E-002
  -1.1099999999999985E-002     1.0646499693393707E-002
  -9.9999999999999950E-003     1.0608092881739140E-002
  -8.8999999999999913E-003     1.0438764467835426E-002
  -7.7999999999999875E-003     1.0163260623812675E-002
  -6.6999999999999837E-003     9.7693689167499542E-003
  -5.5999999999999939E-003     9.2039396986365318E-003
  -4.4999999999999901E-003     8.4304269403219223E-003
  -3.3999999999999864E-003     7.4651413597166538E-003
  -2.2999999999999826E-003     6.3377111218869686E-003
  -1.1999999999999927E-003     5.0358935259282589E-003
  -9.9999999999988987E-005     3.5204810556024313E-003
   1.0000000000000148E-003     1.7840621294453740E-003
   2.1000000000000185E-003    -1.3930520799476653E-004
   3.2000000000000084E-003    -2.2288060281425714E-003
   4.3000000000000121E-003    -4.5063388533890247E-003
   5.4000000000000159E-003    -6.9882860407233238E-003
   6.5000000000000058E-003    -9.6316020935773849E-003
   7.6000000000000234E-003    -1.2362888082861900E-002
   8.7000000000000133E-003    -1.5158012509346008E-002
   9.8000000000000032E-003    -1.8049051985144615E-002
   1.0900000000000021E-002    -2.1038807928562164E-002
   1.2000000000000011E-002    -2.4047389626502991E-002
   1.3100000000000001E-002    -2.6972960680723190E-002
   1.4200000000000018E-002    -2.9779370874166489E-002
   1.5300000000000008E-002    -3.2484669238328934E-002
   1.6400000000000026E-002    -3.5070944577455521E-002
   1.7500000000000016E-002    -3.7448417395353317E-002
   1.8600000000000005E-002    -3.9530813694000244E-002
   1.9700000000000023E-002    -4.1299812495708466E-002
   2.0800000000000013E-002    -4.2760189622640610E-002
   2.1900000000000003E-002    -4.3860461562871933E-002
   2.3000000000000020E-002    -4.4507399201393127E-002
   2.4100000000000010E-002    -4.4662319123744965E-002
   2.5200000000000000E-002    -4.4366236776113510E-002
   2.6300000000000018E-002    -4.3642520904541016E-002
   2.7400000000000008E-002    -4.2425364255905151E-002
   2.8500000000000025E-002    -4.0633372962474823E-002
   2.9600000000000015E-002    -3.8283247500658035E-002
   3.0700000000000005E-002    -3.5473849624395370E-002
   3.1800000000000023E-002    -3.2258585095405579E-002
   3.2900000000000013E-002    -2.8595726937055588E-002
   3.4000000000000002E-002    -2.4453310295939445E-002
   3.5100000000000020E-002    -1.9909510388970375E-002
   3.6200000000000010E-002    -1.5094129368662834E-002
   3.7300000000000028E-002    -1.0060795582830906E-002
   3.8400000000000017E-002    -4.7886879183351994E-003
   3.9500000000000007E-002     6.8749557249248028E-004
   4.0600000000000025E-002     6.2239570543169975E-003
   4.1700000000000015E-002     1.1681322939693928E-002
   4.2800000000000005E-002     1.7036434262990952E-002
   4.3900000000000022E-002     2.2316770628094673E-002
   4.5000000000000012E-002     2.7450812980532646E-002
   4.6100000000000002E-002     3.2268527895212173E-002
   4.7200000000000020E-002     3.6656655371189117E-002
   4.8300000000000010E-002     4.0635097771883011E-002
   4.9400000000000027E-002     4.4240314513444901E-002
   5.0500000000000017E-002     4.7392323613166809E-002
   5.1600000000000007E-002     4.9952480942010880E-002
   5.2700000000000025E-002     5.1886420696973801E-002
   5.3800000000000014E-002     5.3278286010026932E-002
   5.4900000000000004E-002     5.4166693240404129E-002
   5.6000000000000022E-002     5.4461181163787842E-002
   5.7100000000000012E-002     5.4080508649349213E-002
   5.8200000000000002E-002     5.3096320480108261E-002
   5.9300000000000019E-002     5.1658041775226593E-002
   6.0400000000000009E-002     4.9803398549556732E-002
   6.1500000000000027E-002     4.7445952892303467E-002
   6.2600000000000017E-002     4.4559717178344727E-002
   6.3700000000000007E-002     4.1284285485744476E-002
   6.4800000000000024E-002     3.7791535258293152E-002
   6.5900000000000014E-002     3.4106574952602386E-002
   6.7000000000000004E-002     3.0161820352077484E-002
   6.8100000000000022E-002     2.5990726426243782E-002
   6.9200000000000012E-002     2.1764419972896576E-002
   7.0300000000000029E-002     1.7614042386412621E-002
   7.1400000000000019E-002     1.3508811593055725E-002
   7.2500000000000009E-002     9.3865152448415756E-003
   7.3600000000000027E-002     5.3353849798440933E-003
   7.4700000000000016E-002     1.5390707412734628E-003
   7.5800000000000006E-002    -1.9395317649468780E-003
   7.6900000000000024E-002    -5.2039562724530697E-003
   7.8000000000000014E-002    -8.3222966641187668E-003
   7.9100000000000004E-002    -1.1183242313563824E-002
   8.0200000000000021E-002    -1.3630331493914127E-002
   8.1300000000000011E-002    -1.5673639252781868E-002
   8.2400000000000029E-002    -1.7455291002988815E-002
   8.3500000000000019E-002    -1.9023157656192780E-002
   8.4600000000000009E-002    -2.0263846963644028E-002
   8.5700000000000026E-002    -2.1092694252729416E-002
   8.6800000000000016E-002    -2.1602435037493706E-002
   8.7900000000000006E-002    -2.1937049925327301E-002
   8.9000000000000024E-002    -2.2085893899202347E-002
   9.0100000000000013E-002    -2.1922709420323372E-002
   9.1200000000000003E-002    -2.1435512229800224E-002
   9.2300000000000021E-002    -2.0790429785847664E-002
   9.3400000000000011E-002    -2.0121127367019653E-002
   9.4500000000000028E-002    -1.9359165802598000E-002
   9.5600000000000018E-002    -1.8368117511272430E-002
   9.6700000000000008E-002    -1.7182722687721252E-002
   9.7800000000000026E-002    -1.5990264713764191E-002
   9.8900000000000016E-002    -1.4883027411997318E-002
  0.10000000000000001         -1.3757092878222466E-002
  0.10110000000000002         -1.2506267987191677E-002
  0.10220000000000001         -1.1208782903850079E-002
  0.10330000000000003         -1.0022859089076519E-002
  0.10440000000000002         -8.9592942968010902E-003
  0.10550000000000001         -7.8856237232685089E-003
  0.10660000000000003         -6.7535773850977421E-003
  0.10770000000000002         -5.6933513842523098E-003
  0.10880000000000001         -4.8233373090624809E-003
  0.10990000000000003         -4.0686121210455894E-003
  0.11100000000000002         -3.2753841951489449E-003
  0.11210000000000001         -2.4493383243680000E-003
  0.11320000000000002         -1.7524170689284801E-003
  0.11430000000000001         -1.2589317047968507E-003
  0.11540000000000003         -8.4104697452858090E-004
  0.11650000000000002         -3.5973286139778793E-004
  0.11760000000000001          1.3025867519900203E-004
  0.11870000000000003          4.7288474161177874E-004
  0.11980000000000002          6.5553432796150446E-004
  0.12090000000000001          8.3010934758931398E-004
  0.12200000000000003          1.0831025429069996E-003
  0.12310000000000001          1.3100667856633663E-003
  0.12420000000000003          1.3855707366019487E-003
  0.12530000000000002          1.3644444989040494E-003
  0.12640000000000001          1.4038713416084647E-003
  0.12750000000000003          1.5265103429555893E-003
  0.12860000000000002          1.5907635679468513E-003
  0.12970000000000001          1.5137869631871581E-003
  0.13080000000000003          1.4020814560353756E-003
  0.13190000000000002          1.3913182774558663E-003
  0.13300000000000001          1.4438006328418851E-003
  0.13410000000000000          1.4126868918538094E-003
  0.13520000000000004          1.2713011819869280E-003
  0.13630000000000003          1.1547635076567531E-003
  0.13740000000000002          1.1522832792252302E-003
  0.13850000000000001          1.1723976349458098E-003
  0.13960000000000000          1.0875721927732229E-003
  0.14070000000000005          9.3256257241591811E-004
  0.14180000000000004          8.5115374531596899E-004
  0.14290000000000003          8.7554962374269962E-004
  0.14400000000000002          8.7853759760037065E-004
  0.14510000000000001          7.6988874934613705E-004
  0.14620000000000000          6.3400453655049205E-004
  0.14730000000000004          5.9917877661064267E-004
  0.14840000000000003          6.4220378408208489E-004
  0.14950000000000002          6.2689505284652114E-004
  0.15060000000000001          5.1337474724277854E-004
  0.15170000000000000          4.1633684304542840E-004
  0.15280000000000005          4.2678104364313185E-004
  0.15390000000000004          4.7397890011779964E-004
  0.15500000000000003          4.3663708493113518E-004
  0.15610000000000002          3.2816245220601559E-004
  0.15720000000000001          2.7269087149761617E-004
  0.15830000000000000          3.1370835495181382E-004
  0.15940000000000004          3.5039699287153780E-004
  0.16050000000000003          2.9494427144527435E-004
  0.16160000000000002          2.0527932792901993E-004
  0.16270000000000001          1.9186787540093064E-004
  0.16380000000000000          2.4743308313190937E-004
  0.16490000000000005          2.6142841670662165E-004
  0.16600000000000004          1.9162980606779456E-004
  0.16710000000000003          1.2668606359511614E-004
  0.16820000000000002          1.4715771249029785E-004
  0.16930000000000001          2.0241810125298798E-004
  0.17040000000000000          1.9089590932708234E-004
  0.17150000000000004          1.1628630454652011E-004
  0.17260000000000003          7.9779871157370508E-005
  0.17370000000000002          1.2401887215673923E-004
  0.17480000000000001          1.6976856568362564E-004
  0.17590000000000000          1.3868170208297670E-004
  0.17700000000000005          7.0819085522089154E-005
  0.17810000000000004          6.0023037804057822E-005
  0.17920000000000003          1.1116210225736722E-004
  0.18030000000000002          1.3691629283130169E-004
  0.18140000000000001          9.3011862190905958E-005
  0.18250000000000000          4.2597388528520241E-005
  0.18360000000000004          5.6138927902793512E-005
  0.18470000000000003          1.0516568727325648E-004
  0.18580000000000002          1.1006036220351234E-004
  0.18690000000000001          6.2257116951514035E-005
  0.18800000000000000          3.3210584660992026E-005
  0.18910000000000005          6.2584054830949754E-005
  0.19020000000000004          1.0043202928500250E-004
  0.19130000000000003          8.7801774498075247E-005
  0.19240000000000002          4.6740424295421690E-005
  0.19350000000000001          4.2926556488964707E-005
  0.19460000000000005          8.3822240412700921E-005
  0.19570000000000004          1.0991397721227258E-004
  0.19680000000000003          8.8089545897673815E-005
  0.19790000000000002          6.1213715525809675E-005
  0.19900000000000001          8.0729514593258500E-005
  0.20010000000000000          1.2902473099529743E-004
  0.20120000000000005          1.4890183228999376E-004
  0.20230000000000004          1.3093558663967997E-004
  0.20340000000000003          1.2539429008029401E-004
  0.20450000000000002          1.6520301869604737E-004
  0.20560000000000000          2.1968192595522851E-004
  0.20670000000000005          2.4528440553694963E-004
  0.20780000000000004          2.5118340272456408E-004
  0.20890000000000003          2.8175555053167045E-004
