 -0.12000000000000000          0.0000000000000000
 -0.11889999999999999          0.0000000000000000
 -0.11780000000000000          0.0000000000000000
 -0.11670000000000000          0.0000000000000000
 -0.11559999999999999          0.0000000000000000
 -0.11449999999999999          0.0000000000000000
 -0.11340000000000000         -1.0370384665327475E-019
 -0.11230000000000000         -4.6409876227256865E-020
 -0.11119999999999999          8.2720842650112477E-019
 -0.11009999999999999          8.0862028226977456E-019
 -0.10900000000000000         -2.4883402283185032E-018
 -0.10790000000000000         -2.5798934056964849E-018
 -0.10679999999999999          4.4458095879805804E-018
 -0.10569999999999999         -8.2915699519060062E-018
 -0.10460000000000000         -4.1711803306570549E-017
 -0.10349999999999999          3.4793552522030194E-017
 -0.10239999999999999          2.8669153588801880E-016
 -0.10130000000000000          2.5638893219999620E-016
 -0.10020000000000000         -6.8406153180152721E-016
  -9.9099999999999994E-002    -1.7783005682559623E-015
  -9.7999999999999990E-002    -6.4952386925635152E-016
  -9.6899999999999986E-002     3.2767259923878163E-015
  -9.5799999999999996E-002     5.7871662648666111E-015
  -9.4699999999999993E-002     2.2170111188909601E-015
  -9.3599999999999989E-002    -5.0691186477872484E-015
  -9.2499999999999999E-002    -9.9055200755140613E-015
  -9.1399999999999995E-002    -1.3656571601111840E-014
  -9.0299999999999991E-002    -1.9275620460673312E-014
  -8.9200000000000002E-002    -7.1703193987231011E-015
  -8.8099999999999984E-002     5.4147827985729508E-014
  -8.6999999999999994E-002     1.3642907604419913E-013
  -8.5899999999999990E-002     1.1752887075014429E-013
  -8.4799999999999986E-002    -9.3426372053170142E-014
  -8.3699999999999997E-002    -3.7053083583142576E-013
  -8.2599999999999993E-002    -4.1808898465674205E-013
  -8.1499999999999989E-002    -1.0171621574531220E-013
  -8.0399999999999999E-002     3.5628268456149026E-013
  -7.9299999999999995E-002     6.6289031555588629E-013
  -7.8199999999999992E-002     8.2279587873893001E-013
  -7.7100000000000002E-002     9.0005504134807457E-013
  -7.5999999999999984E-002     4.4932571660778742E-013
  -7.4899999999999994E-002    -1.1745863613341068E-012
  -7.3799999999999991E-002    -3.4557834024950829E-012
  -7.2699999999999987E-002    -4.2359778879008658E-012
  -7.1599999999999997E-002    -1.7172206582052874E-012
  -7.0499999999999993E-002     2.9525650587641783E-012
  -6.9399999999999989E-002     6.3249388365660408E-012
  -6.8300000000000000E-002     6.5535099048885659E-012
  -6.7199999999999996E-002     5.3395517174426033E-012
  -6.6099999999999992E-002     4.4603648031993348E-012
  -6.5000000000000002E-002     1.5831603606200617E-012
  -6.3899999999999985E-002    -7.2067816124510298E-012
  -6.2799999999999995E-002    -1.9912894250184721E-011
  -6.1699999999999991E-002    -2.7178292602569876E-011
  -6.0599999999999994E-002    -2.1546889272805458E-011
  -5.9499999999999990E-002    -6.1066100093265518E-012
  -5.8399999999999994E-002     1.0584709324301667E-011
  -5.7299999999999990E-002     2.7202143315641081E-011
  -5.6199999999999986E-002     5.0021015107759581E-011
  -5.5099999999999996E-002     7.6653031144680028E-011
  -5.3999999999999992E-002     8.5816131978333487E-011
  -5.2899999999999989E-002     5.3101415625755877E-011
  -5.1799999999999985E-002    -2.2090562018517446E-011
  -5.0699999999999995E-002    -1.1234462665710154E-010
  -4.9599999999999991E-002    -1.8649702615558539E-010
  -4.8499999999999988E-002    -2.2949642186631536E-010
  -4.7399999999999998E-002    -2.3298971085772280E-010
  -4.6299999999999994E-002    -1.7724323397860786E-010
  -4.5199999999999990E-002    -3.9997276324310604E-011
  -4.4099999999999986E-002     1.7328681545247804E-010
  -4.2999999999999997E-002     4.1959866137197821E-010
  -4.1899999999999993E-002     6.4424421353237449E-010
  -4.0799999999999989E-002     8.0668854929299982E-010
  -3.9699999999999985E-002     8.7561802253333099E-010
  -3.8599999999999995E-002     8.1776579952119732E-010
  -3.7499999999999992E-002     6.2022081914747673E-010
  -3.6399999999999988E-002     3.2891583900962473E-010
  -3.5299999999999984E-002     4.5457870107012965E-011
  -3.4199999999999994E-002    -1.2486589540117166E-010
  -3.3099999999999991E-002    -1.0975974296112412E-010
  -3.1999999999999987E-002     1.4636117318111985E-010
  -3.0899999999999997E-002     6.9390487800191636E-010
  -2.9799999999999993E-002     1.5184250523603282E-009
  -2.8699999999999989E-002     2.4584141389283332E-009
  -2.7599999999999986E-002     3.2189622078959701E-009
  -2.6499999999999996E-002     3.4918223867919096E-009
  -2.5399999999999992E-002     3.0425144625922940E-009
  -2.4299999999999988E-002     1.6652109691150940E-009
  -2.3199999999999985E-002    -8.9586416063269780E-010
  -2.2099999999999995E-002    -4.8898272098085727E-009
  -2.0999999999999991E-002    -1.0389062943261251E-008
  -1.9899999999999987E-002    -1.7221786663412786E-008
  -1.8799999999999983E-002    -2.5130816538876388E-008
  -1.7699999999999994E-002    -3.4010241733994917E-008
  -1.6599999999999990E-002    -4.3996287502068299E-008
  -1.5499999999999986E-002    -5.5407792132200484E-008
  -1.4399999999999996E-002    -6.8721291768270021E-008
  -1.3299999999999992E-002    -8.4655937371280743E-008
  -1.2199999999999989E-002    -1.0424356844396243E-007
  -1.1099999999999985E-002    -1.2877180211035011E-007
  -9.9999999999999950E-003    -1.5969094135925843E-007
  -8.8999999999999913E-003    -1.9860898703427665E-007
  -7.7999999999999875E-003    -2.4732585757192282E-007
  -6.6999999999999837E-003    -3.0777545134696993E-007
  -5.5999999999999939E-003    -3.8194298213056754E-007
  -4.4999999999999901E-003    -4.7200052222251543E-007
  -3.3999999999999864E-003    -5.8066461861017160E-007
  -2.2999999999999826E-003    -7.1144188495964045E-007
  -1.1999999999999927E-003    -8.6852043068574858E-007
  -9.9999999999988987E-005    -1.0565529464656720E-006
   1.0000000000000148E-003    -1.2807645362045150E-006
   2.1000000000000185E-003    -1.5473498251594719E-006
   3.2000000000000084E-003    -1.8637235825735843E-006
   4.3000000000000121E-003    -2.2382910174201243E-006
   5.4000000000000159E-003    -2.6801303647516761E-006
   6.5000000000000058E-003    -3.1991289688448887E-006
   7.6000000000000234E-003    -3.8063842566771200E-006
   8.7000000000000133E-003    -4.5144920477468986E-006
   9.8000000000000032E-003    -5.3374492381408345E-006
   1.0900000000000021E-002    -6.2903345678932965E-006
   1.2000000000000011E-002    -7.3894307206501253E-006
   1.3100000000000001E-002    -8.6525124061154202E-006
   1.4200000000000018E-002    -1.0098952770931646E-005
   1.5300000000000008E-002    -1.1749647455872037E-005
   1.6400000000000026E-002    -1.3626924555865116E-005
   1.7500000000000016E-002    -1.5754352716612630E-005
   1.8600000000000005E-002    -1.8156664737034589E-005
   1.9700000000000023E-002    -2.0859317373833619E-005
   2.0800000000000013E-002    -2.3887823772383854E-005
   2.1900000000000003E-002    -2.7267738914815709E-005
   2.3000000000000020E-002    -3.1024530471768230E-005
   2.4100000000000010E-002    -3.5183627915102988E-005
   2.5200000000000000E-002    -3.9768747228663415E-005
   2.6300000000000018E-002    -4.4801268813898787E-005
   2.7400000000000008E-002    -5.0299990107305348E-005
   2.8500000000000025E-002    -5.6281351135112345E-005
   2.9600000000000015E-002    -6.2758757849223912E-005
   3.0700000000000005E-002    -6.9740934122819453E-005
   3.1800000000000023E-002    -7.7229851740412414E-005
   3.2900000000000013E-002    -8.5220417531672865E-005
   3.4000000000000002E-002    -9.3699985882267356E-005
   3.5100000000000020E-002    -1.0264706361340359E-004
   3.6200000000000010E-002    -1.1203012400073931E-004
   3.7300000000000028E-002    -1.2180624617030844E-004
   3.8400000000000017E-002    -1.3192128972150385E-004
   3.9500000000000007E-002    -1.4230971282813698E-004
   4.0600000000000025E-002    -1.5289236034732312E-004
   4.1700000000000015E-002    -1.6357617278117687E-004
   4.2800000000000005E-002    -1.7425416444893926E-004
   4.3900000000000022E-002    -1.8480599101167172E-004
   4.5000000000000012E-002    -1.9509709090925753E-004
   4.6100000000000002E-002    -2.0498048979789019E-004
   4.7200000000000020E-002    -2.1429495245683938E-004
   4.8300000000000010E-002    -2.2286662715487182E-004
   4.9400000000000027E-002    -2.3051106836646795E-004
   5.0500000000000017E-002    -2.3703588522039354E-004
   5.1600000000000007E-002    -2.4224192020483315E-004
   5.2700000000000025E-002    -2.4592649424448609E-004
   5.3800000000000014E-002    -2.4788465816527605E-004
   5.4900000000000004E-002    -2.4791448959149420E-004
   5.6000000000000022E-002    -2.4581910111010075E-004
   5.7100000000000012E-002    -2.4140762980096042E-004
   5.8200000000000002E-002    -2.3450369189959019E-004
   5.9300000000000019E-002    -2.2495043231174350E-004
   6.0400000000000009E-002    -2.1261056826915592E-004
   6.1500000000000027E-002    -1.9737269030883908E-004
   6.2600000000000017E-002    -1.7915357602760196E-004
   6.3700000000000007E-002    -1.5790120232850313E-004
   6.4800000000000024E-002    -1.3360164302866906E-004
   6.5900000000000014E-002    -1.0628135350998491E-004
   6.7000000000000004E-002    -7.6012431236449629E-005
   6.8100000000000022E-002    -4.2911829950753599E-005
   6.9200000000000012E-002    -7.1412177931051701E-006
   7.0300000000000029E-002     3.1096806196728721E-005
   7.1400000000000019E-002     7.1550188295077533E-005
   7.2500000000000009E-002     1.1391399311833084E-004
   7.3600000000000027E-002     1.5783509297762066E-004
   7.4700000000000016E-002     2.0292443514335901E-004
   7.5800000000000006E-002     2.4876135285012424E-004
   7.6900000000000024E-002     2.9489045846275985E-004
   7.8000000000000014E-002     3.4082413185387850E-004
   7.9100000000000004E-002     3.8604854489676654E-004
   8.0200000000000021E-002     4.3003729660995305E-004
   8.1300000000000011E-002     4.7225967864505947E-004
   8.2400000000000029E-002     5.1218742737546563E-004
   8.3500000000000019E-002     5.4929940961301327E-004
   8.4600000000000009E-002     5.8309029554948211E-004
   8.5700000000000026E-002     6.1308062868192792E-004
   8.6800000000000016E-002     6.3882576068863273E-004
   8.7900000000000006E-002     6.5992231247946620E-004
   8.9000000000000024E-002     6.7602010676637292E-004
   9.0100000000000013E-002     6.8683014251291752E-004
   9.1200000000000003E-002     6.9212482776492834E-004
   9.2300000000000021E-002     6.9173809606581926E-004
   9.3400000000000011E-002     6.8557134363800287E-004
   9.4500000000000028E-002     6.7360280081629753E-004
   9.5600000000000018E-002     6.5589608857408166E-004
   9.6700000000000008E-002     6.3259672606363893E-004
   9.7800000000000026E-002     6.0391455190256238E-004
   9.8900000000000016E-002     5.7012354955077171E-004
  0.10000000000000001          5.3156289504840970E-004
  0.10110000000000002          4.8864376731216908E-004
  0.10220000000000001          4.4184358557686210E-004
  0.10330000000000003          3.9168729563243687E-004
  0.10440000000000002          3.3873040229082108E-004
  0.10550000000000001          2.8355908580124378E-004
  0.10660000000000003          2.2678353707306087E-004
  0.10770000000000002          1.6902621428016573E-004
  0.10880000000000001          1.1091609485447407E-004
  0.10990000000000003          5.3084066166775301E-005
  0.11100000000000002         -3.8571670302189887E-006
  0.11210000000000001         -5.9325473557692021E-005
  0.11320000000000002         -1.1278210149612278E-004
  0.11430000000000001         -1.6372806567233056E-004
  0.11540000000000003         -2.1169621322769672E-004
  0.11650000000000002         -2.5626918068155646E-004
  0.11760000000000001         -2.9708852525800467E-004
  0.11870000000000003         -3.3386886934749782E-004
  0.11980000000000002         -3.6639068275690079E-004
  0.12090000000000001         -3.9449651376344264E-004
  0.12200000000000003         -4.1808281093835831E-004
  0.12310000000000001         -4.3710882891900837E-004
  0.12420000000000003         -4.5159328146837652E-004
  0.12530000000000002         -4.6161731006577611E-004
  0.12640000000000001         -4.6731741167604923E-004
  0.12750000000000003         -4.6887810458429158E-004
  0.12860000000000002         -4.6652380842715502E-004
  0.12970000000000001         -4.6051116078160703E-004
  0.13080000000000003         -4.5112625230103731E-004
  0.13190000000000002         -4.3868346256203949E-004
  0.13300000000000001         -4.2352030868642032E-004
  0.13410000000000000         -4.0598638588562608E-004
  0.13520000000000004         -3.8643457810394466E-004
  0.13630000000000003         -3.6521439324133098E-004
  0.13740000000000002         -3.4266928560100496E-004
  0.13850000000000001         -3.1913493876345456E-004
  0.13960000000000000         -2.9493693727999926E-004
  0.14070000000000005         -2.7038340340368450E-004
  0.14180000000000004         -2.4575844872742891E-004
  0.14290000000000003         -2.2131932200863957E-004
  0.14400000000000002         -1.9729931955225766E-004
  0.14510000000000001         -1.7391033179592341E-004
  0.14620000000000000         -1.5133939450606704E-004
  0.14730000000000004         -1.2974215496797115E-004
  0.14840000000000003         -1.0924222442554310E-004
  0.14950000000000002         -8.9937457232736051E-005
  0.15060000000000001         -7.1905436925590038E-005
  0.15170000000000000         -5.5201748182298616E-005
  0.15280000000000005         -3.9858645322965458E-005
  0.15390000000000004         -2.5885006834869273E-005
  0.15500000000000003         -1.3271381249069236E-005
  0.15610000000000002         -1.9939693629567046E-006
  0.15720000000000001          7.9867013482726179E-006
  0.15830000000000000          1.6721332940505818E-005
  0.15940000000000004          2.4267696062452160E-005
  0.16050000000000003          3.0689101549796760E-005
  0.16160000000000002          3.6056218959856778E-005
  0.16270000000000001          4.0449041989631951E-005
  0.16380000000000000          4.3952371925115585E-005
  0.16490000000000005          4.6646680857520550E-005
  0.16600000000000004          4.8605794290779158E-005
  0.16710000000000003          4.9904374463949353E-005
  0.16820000000000002          5.0621303671505302E-005
  0.16930000000000001          5.0834911235142499E-005
  0.17040000000000000          5.0613245548447594E-005
  0.17150000000000004          5.0014772568829358E-005
  0.17260000000000003          4.9097467126557603E-005
  0.17370000000000002          4.7921432269504294E-005
  0.17480000000000001          4.6541572373826057E-005
  0.17590000000000000          4.4999887904850766E-005
  0.17700000000000005          4.3330710468580946E-005
  0.17810000000000004          4.1569379391148686E-005
  0.17920000000000003          3.9754122553858906E-005
  0.18030000000000002          3.7915906432317570E-005
  0.18140000000000001          3.6073553928872570E-005
  0.18250000000000000          3.4241234970977530E-005
  0.18360000000000004          3.2436877518193796E-005
  0.18470000000000003          3.0678271286888048E-005
  0.18580000000000002          2.8974258384550922E-005
  0.18690000000000001          2.7327358111506328E-005
  0.18800000000000000          2.5743765945662744E-005
  0.18910000000000005          2.4236336685135029E-005
  0.19020000000000004          2.2812517272541299E-005
  0.19130000000000003          2.1465122699737549E-005
  0.19240000000000002          2.0182136722723953E-005
  0.19350000000000001          1.8963330148835666E-005
  0.19460000000000005          1.7820815628510900E-005
  0.19570000000000004          1.6761361621320248E-005
  0.19680000000000003          1.5775631254655309E-005
  0.19790000000000002          1.4848435057501774E-005
  0.19900000000000001          1.3974828107166104E-005
  0.20010000000000000          1.3159678019292187E-005
  0.20120000000000005          1.2403866094246041E-005
  0.20230000000000004          1.1700158211169764E-005
  0.20340000000000003          1.1042749065381940E-005
  0.20450000000000002          1.0433673196530435E-005
  0.20560000000000000          9.8733526101568714E-006
  0.20670000000000005          9.3509979706141166E-006
  0.20780000000000004          8.8528749984106980E-006
  0.20890000000000003          8.3790519056492485E-006
