 -0.12000000000000000          0.0000000000000000
 -0.11889999999999999          0.0000000000000000
 -0.11780000000000000          0.0000000000000000
 -0.11670000000000000          0.0000000000000000
 -0.11559999999999999          0.0000000000000000
 -0.11449999999999999          0.0000000000000000
 -0.11340000000000000          0.0000000000000000
 -0.11230000000000000          4.5173367227286533E-021
 -0.11119999999999999         -2.1335585054060316E-021
 -0.11009999999999999         -5.0255093159369238E-020
 -0.10900000000000000          6.3249081147095817E-021
 -0.10790000000000000          3.2296879276220831E-019
 -0.10679999999999999          1.0674503433646278E-019
 -0.10569999999999999         -1.4623059134956105E-018
 -0.10460000000000000         -1.2596261906999581E-018
 -0.10349999999999999          4.7662514990678041E-018
 -0.10239999999999999          7.2483628505786299E-018
 -0.10130000000000000         -1.0592433209906969E-017
 -0.10020000000000000         -2.7792567132622285E-017
  -9.9099999999999994E-002     1.2570451183550935E-017
  -9.7999999999999990E-002     7.9820487274198914E-017
  -9.6899999999999986E-002     1.2145859375127466E-017
  -9.5799999999999996E-002    -1.8955670917265182E-016
  -9.4699999999999993E-002    -1.2844009241981205E-016
  -9.3599999999999989E-002     3.9215229942820152E-016
  -9.2499999999999999E-002     5.3949026600151845E-016
  -9.1399999999999995E-002    -6.0574322437205929E-016
  -9.0299999999999991E-002    -1.6980255617787777E-015
  -8.9200000000000002E-002     1.2997041625770455E-016
  -8.8099999999999984E-002     3.8443754981438896E-015
  -8.6999999999999994E-002     2.7951547275888037E-015
  -8.5899999999999990E-002    -5.4413002661295781E-015
  -8.4799999999999986E-002    -9.5917426494343365E-015
  -8.3699999999999997E-002     2.5228179649370219E-015
  -8.2599999999999993E-002     1.8417230495662226E-014
  -8.1499999999999989E-002     8.2132575141501650E-015
  -8.0399999999999999E-002    -2.5318190876059618E-014
  -7.9299999999999995E-002    -2.8646860952179568E-014
  -7.8199999999999992E-002     2.6885462714627828E-014
  -7.7100000000000002E-002     6.7104619929335418E-014
  -7.5999999999999984E-002    -4.8576907538231025E-015
  -7.4899999999999994E-002    -1.2584727639326776E-013
  -7.3799999999999991E-002    -8.8558900609905095E-014
  -7.2699999999999987E-002     1.4607455869897201E-013
  -7.1599999999999997E-002     2.6607229332113735E-013
  -7.0499999999999993E-002    -1.4646290636462916E-014
  -6.9399999999999989E-002    -4.1285120396146457E-013
  -6.8300000000000000E-002    -2.8991365514860479E-013
  -6.7199999999999996E-002     3.7689499416369843E-013
  -6.6099999999999992E-002     6.6022854501232575E-013
  -6.5000000000000002E-002    -1.0487738336204672E-013
  -6.3899999999999985E-002    -1.0222491256262067E-012
  -6.2799999999999995E-002    -5.2546834071465209E-013
  -6.1699999999999991E-002     1.1612621671555634E-012
  -6.0599999999999994E-002     1.6429056465955272E-012
  -5.9499999999999990E-002    -4.3080491431146672E-013
  -5.8399999999999994E-002    -2.6582687873838440E-012
  -5.7299999999999990E-002    -1.4798648417801985E-012
  -5.6199999999999986E-002     2.3741883025535371E-012
  -5.5099999999999996E-002     3.6569926774310257E-012
  -5.3999999999999992E-002    -3.4671514249039193E-013
  -5.2899999999999989E-002    -4.7691898173718439E-012
  -5.1799999999999985E-002    -2.8353621533971918E-012
  -5.0699999999999995E-002     3.9462998840944508E-012
  -4.9599999999999991E-002     6.1617963335869330E-012
  -4.8499999999999988E-002    -6.3214413087778198E-013
  -4.7399999999999998E-002    -7.9608594022451129E-012
  -4.6299999999999994E-002    -4.8448896804165198E-012
  -4.5199999999999990E-002     5.9953465803008754E-012
  -4.4099999999999986E-002     1.0003358384691463E-011
  -4.2999999999999997E-002     7.0874453224692435E-013
  -4.1899999999999993E-002    -9.9524017499463824E-012
  -4.0799999999999989E-002    -7.5308067074009166E-012
  -3.9699999999999985E-002     4.1724605541471060E-012
  -3.8599999999999995E-002     8.2181275673498533E-012
  -3.7499999999999992E-002    -6.3641670058900424E-013
  -3.6399999999999988E-002    -8.0516036546351977E-012
  -3.5299999999999984E-002    -1.8645905132397278E-012
  -3.4199999999999994E-002     9.1504139335119028E-012
  -3.3099999999999991E-002     8.9049496942994466E-012
  -3.1999999999999987E-002    -8.5712508054655578E-013
  -3.0899999999999997E-002    -4.3748980133040405E-012
  -2.9799999999999993E-002     6.2667395144683224E-013
  -2.8699999999999989E-002    -1.9753673523303927E-012
  -2.7599999999999986E-002    -1.6764046747996808E-011
  -2.6499999999999996E-002    -2.0917271387199676E-011
  -2.5399999999999992E-002     2.9942175041458574E-012
  -2.4299999999999988E-002     3.0768766007271964E-011
  -2.3199999999999985E-002     2.1648766113102624E-011
  -2.2099999999999995E-002    -1.9667056178063191E-011
  -2.0999999999999991E-002    -3.8431577364939074E-011
  -1.9899999999999987E-002    -5.0983444896401942E-012
  -1.8799999999999983E-002     3.2654840637080795E-011
  -1.7699999999999994E-002     9.2144503832658486E-012
  -1.6599999999999990E-002    -5.9762590709500074E-011
  -1.5499999999999986E-002    -8.4332964223055029E-011
  -1.4399999999999996E-002    -1.9595804146010920E-011
  -1.3299999999999992E-002     6.4436289637370692E-011
  -1.2199999999999989E-002     6.8664129937445750E-011
  -1.1099999999999985E-002    -7.3283167728588339E-012
  -9.9999999999999950E-003    -7.1437647464200893E-011
  -8.8999999999999913E-003    -6.8146689680137484E-011
  -7.7999999999999875E-003    -4.3199541166494271E-011
  -6.6999999999999837E-003    -6.1488959757216577E-011
  -5.5999999999999939E-003    -1.1013896045186655E-010
  -4.4999999999999901E-003    -1.2982837027664118E-010
  -3.3999999999999864E-003    -1.1040854341892725E-010
  -2.2999999999999826E-003    -9.1320548345485975E-011
  -1.1999999999999927E-003    -8.1284333430797773E-011
  -9.9999999999988987E-005    -4.9763981130324098E-011
   1.0000000000000148E-003    -2.1534015889890235E-011
   2.1000000000000185E-003    -9.5361912810787430E-011
   3.2000000000000084E-003    -3.0106811488295193E-010
   4.3000000000000121E-003    -5.0027587628065362E-010
   5.4000000000000159E-003    -5.2164289554568199E-010
   6.5000000000000058E-003    -3.9087880154831112E-010
   7.6000000000000234E-003    -3.3101685281700099E-010
   8.7000000000000133E-003    -4.5681342042414030E-010
   9.8000000000000032E-003    -6.1871197054585991E-010
   1.0900000000000021E-002    -6.0987942474000079E-010
   1.2000000000000011E-002    -4.6180953505725597E-010
   1.3100000000000001E-002    -4.3967562923796777E-010
   1.4200000000000018E-002    -7.3125266952800416E-010
   1.5300000000000008E-002    -1.1777603337037590E-009
   1.6400000000000026E-002    -1.4753358534846939E-009
   1.7500000000000016E-002    -1.5513753615081782E-009
   1.8600000000000005E-002    -1.5475003500853290E-009
   1.9700000000000023E-002    -1.5767968042368352E-009
   2.0800000000000013E-002    -1.5991407087412313E-009
   2.1900000000000003E-002    -1.6326938689914527E-009
   2.3000000000000020E-002    -1.7413559483259178E-009
   2.4100000000000010E-002    -1.8958414838010640E-009
   2.5200000000000000E-002    -2.1139292538663312E-009
   2.6300000000000018E-002    -2.2304142976992125E-009
   2.7400000000000008E-002    -2.4654382979605316E-009
   2.8500000000000025E-002    -2.9394242595515152E-009
   2.9600000000000015E-002    -3.4147942251649965E-009
   3.0700000000000005E-002    -3.5120950592215650E-009
   3.1800000000000023E-002    -3.2423452811514153E-009
   3.2900000000000013E-002    -2.9712059479436448E-009
   3.4000000000000002E-002    -3.0437090625667906E-009
   3.5100000000000020E-002    -3.1506852682383624E-009
   3.6200000000000010E-002    -3.0988891452921052E-009
   3.7300000000000028E-002    -2.5707060924418101E-009
   3.8400000000000017E-002    -2.3386599323771406E-009
   3.9500000000000007E-002    -2.5044102347493435E-009
   4.0600000000000025E-002    -2.8172777444268604E-009
   4.1700000000000015E-002    -2.8436772936402122E-009
   4.2800000000000005E-002    -2.4579922541789756E-009
   4.3900000000000022E-002    -1.7009207375906499E-009
   4.5000000000000012E-002    -9.9195429648091249E-010
   4.6100000000000002E-002    -3.5157576849798033E-010
   4.7200000000000020E-002     2.6197863323140780E-010
   4.8300000000000010E-002     6.5478494848392188E-010
   4.9400000000000027E-002     1.9687187435835085E-009
   5.0500000000000017E-002     3.1293880820015829E-009
   5.1600000000000007E-002     4.1543750661787726E-009
   5.2700000000000025E-002     4.8551829223697496E-009
   5.3800000000000014E-002     4.9277861791097166E-009
   5.4900000000000004E-002     5.4404298843735432E-009
   5.6000000000000022E-002     7.2863430844449795E-009
   5.7100000000000012E-002     8.6547338185027911E-009
   5.8200000000000002E-002     9.5163379398854886E-009
   5.9300000000000019E-002     9.3418197621986110E-009
   6.0400000000000009E-002     9.2441521104547064E-009
   6.1500000000000027E-002     1.1055560023010003E-008
   6.2600000000000017E-002     1.4544503379454454E-008
   6.3700000000000007E-002     1.5302873634936986E-008
   6.4800000000000024E-002     1.4932290071101306E-008
   6.5900000000000014E-002     1.3734136494747418E-008
   6.7000000000000004E-002     1.3919245311910800E-008
   6.8100000000000022E-002     1.4418758631506989E-008
   6.9200000000000012E-002     1.3711962232321184E-008
   7.0300000000000029E-002     1.3158410361313599E-008
   7.1400000000000019E-002     1.4322262487098669E-008
   7.2500000000000009E-002     1.4326435149314420E-008
   7.3600000000000027E-002     1.1640353569930539E-008
   7.4700000000000016E-002     8.8128615516325226E-009
   7.5800000000000006E-002     8.7851139696226710E-009
   7.6900000000000024E-002     1.0481016943231225E-008
   7.8000000000000014E-002     1.0154942664541977E-008
   7.9100000000000004E-002     5.1485797847306003E-009
   8.0200000000000021E-002    -1.9940276096974685E-009
   8.1300000000000011E-002    -5.1149218194268542E-009
   8.2400000000000029E-002    -1.7506415206369752E-009
   8.3500000000000019E-002     2.3514667990554017E-009
   8.4600000000000009E-002     7.6945522176075087E-010
   8.5700000000000026E-002    -7.0478987090893952E-009
   8.6800000000000016E-002    -1.4975123363569764E-008
   8.7900000000000006E-002    -1.7174128785768517E-008
   8.9000000000000024E-002    -1.4326319686119859E-008
   9.0100000000000013E-002    -1.1197889726588528E-008
   9.1200000000000003E-002    -1.2232842294679358E-008
   9.2300000000000021E-002    -1.7549682596040839E-008
   9.3400000000000011E-002    -2.3560525974630764E-008
   9.4500000000000028E-002    -2.6723657953198199E-008
   9.5600000000000018E-002    -2.4735914649909319E-008
   9.6700000000000008E-002    -1.7109087480093876E-008
   9.7800000000000026E-002    -1.0381159931682760E-008
   9.8900000000000016E-002    -1.3413724353483758E-008
  0.10000000000000001         -2.3904632939775183E-008
  0.10110000000000002         -3.0109603699202125E-008
  0.10220000000000001         -2.6328597968472423E-008
  0.10330000000000003         -1.4728105846018025E-008
  0.10440000000000002         -6.1410876384115909E-009
  0.10550000000000001         -7.8825257432413309E-009
  0.10660000000000003         -1.5448472723278428E-008
  0.10770000000000002         -1.9183241661835382E-008
  0.10880000000000001         -1.7012700581631179E-008
  0.10990000000000003         -7.0409282848515886E-009
  0.11100000000000002          4.2159573609978906E-009
  0.11210000000000001          1.0357547708395032E-008
  0.11320000000000002          4.1397347771976456E-009
  0.11430000000000001         -7.6258901415826585E-009
  0.11540000000000003         -1.2463639897930534E-008
  0.11650000000000002         -2.4745283599969525E-009
  0.11760000000000001          1.4644826684673262E-008
  0.11870000000000003          2.4379241736482982E-008
  0.11980000000000002          1.6525435242442654E-008
  0.12090000000000001          1.0333106592597119E-009
  0.12200000000000003         -5.3922661891192547E-009
  0.12310000000000001          4.9085082665101254E-009
  0.12420000000000003          2.1266846061962497E-008
  0.12530000000000002          2.8766113047140607E-008
  0.12640000000000001          2.0754672647171901E-008
  0.12750000000000003          8.9583638285262168E-009
  0.12860000000000002          2.1725683474471680E-009
  0.12970000000000001          2.0732937588974210E-009
  0.13080000000000003          7.5188184567309690E-009
  0.13190000000000002          1.5832915423175109E-008
  0.13300000000000001          2.1083046419789753E-008
  0.13410000000000000          1.7592514112152458E-008
  0.13520000000000004          5.7357252281065030E-009
  0.13630000000000003         -4.8054045187484462E-009
  0.13740000000000002         -2.6188999857623685E-009
  0.13850000000000001          1.0712241760302277E-008
  0.13960000000000000          1.9347400126434877E-008
  0.14070000000000005          1.1921676978943196E-008
  0.14180000000000004         -4.2759640273004607E-009
  0.14290000000000003         -1.2167531870943549E-008
  0.14400000000000002         -5.5164139922680988E-009
  0.14510000000000001          5.3411706169015361E-009
  0.14620000000000000          9.2188923161984349E-009
  0.14730000000000004          5.4443400898662730E-009
  0.14840000000000003          2.9273472534896428E-011
  0.14950000000000002         -4.2207313200037788E-009
  0.15060000000000001         -8.3453715049586208E-009
  0.15170000000000000         -1.0282718676535296E-008
  0.15280000000000005         -4.4651149444518978E-009
  0.15390000000000004          6.3873248912216241E-009
  0.15500000000000003          9.5871781624623509E-009
  0.15610000000000002         -1.2109109270852514E-009
  0.15720000000000001         -1.4819754312611622E-008
  0.15830000000000000         -1.5337445091745394E-008
  0.15940000000000004         -1.6871577468435817E-009
  0.16050000000000003          9.6853813857933346E-009
  0.16160000000000002          6.5560650241991425E-009
  0.16270000000000001         -4.9614095054550944E-009
  0.16380000000000000         -1.0911270109659199E-008
  0.16490000000000005         -7.1271784030102481E-009
  0.16600000000000004         -1.4201815279335506E-009
  0.16710000000000003         -1.1315602968520189E-011
  0.16820000000000002         -4.1861115268604365E-011
  0.16930000000000001          1.4515801893821845E-009
  0.17040000000000000          7.5426492829322456E-010
  0.17150000000000004         -5.3075752681763788E-009
  0.17260000000000003         -1.0021944163440821E-008
  0.17370000000000002         -3.9956842279309512E-009
  0.17480000000000001          9.1146468150782312E-009
  0.17590000000000000          1.4011234839017561E-008
  0.17700000000000005          2.8873647917038170E-009
  0.17810000000000004         -1.1853232173564265E-008
  0.17920000000000003         -1.3223927730621199E-008
  0.18030000000000002         -9.0415308573454922E-010
  0.18140000000000001          8.8142710907845867E-009
  0.18250000000000000          5.2472146627735583E-009
  0.18360000000000004         -3.7191820734250314E-009
  0.18470000000000003         -5.4725419751378013E-009
  0.18580000000000002         -2.2859061865609931E-010
  0.18690000000000001          2.4978172863399095E-009
  0.18800000000000000          4.7898041088956234E-010
  0.18910000000000005          4.8998027857294346E-010
  0.19020000000000004          4.7012402859536451E-009
  0.19130000000000003          5.0517043881370682E-009
  0.19240000000000002         -3.1532494393360366E-009
  0.19350000000000001         -1.0743325340456522E-008
  0.19460000000000005         -5.9282139197591732E-009
  0.19570000000000004          7.1209700358565442E-009
  0.19680000000000003          1.1658822351989784E-008
  0.19790000000000002          1.3982234259302118E-009
  0.19900000000000001         -9.8370582790607841E-009
  0.20010000000000000         -7.1172978621802940E-009
  0.20120000000000005          4.7509880474194688E-009
  0.20230000000000004          9.1749683406305849E-009
  0.20340000000000003          1.3437325696585845E-009
  0.20450000000000002         -6.2928240396331603E-009
  0.20560000000000000         -3.7432767996392613E-009
  0.20670000000000005          2.4410542476260844E-009
  0.20780000000000004          1.5414582943407140E-009
  0.20890000000000003         -3.8494665233201886E-009
