 -0.12000000000000000          0.0000000000000000
 -0.11889999999999999          0.0000000000000000
 -0.11780000000000000         -2.8803398555155013E-010
 -0.11670000000000000         -3.7413219744486526E-010
 -0.11559999999999999          3.5014199872840379E-010
 -0.11449999999999999          9.4073016043694224E-010
 -0.11340000000000000          9.4344004830659856E-011
 -0.11230000000000000         -1.0913597803252628E-009
 -0.11119999999999999         -5.3994958504333113E-010
 -0.11009999999999999          4.0800537948193494E-010
 -0.10900000000000000         -1.7057472101456028E-009
 -0.10790000000000000         -5.1608433082606098E-009
 -0.10679999999999999         -2.5409692128164352E-009
 -0.10569999999999999          7.8289570382139573E-009
 -0.10460000000000000          1.4875282339232854E-008
 -0.10349999999999999          7.4609012301607436E-009
 -0.10239999999999999         -7.8669240011208785E-009
 -0.10130000000000000         -1.2319269160343538E-008
 -0.10020000000000000         -5.1220849783817357E-010
  -9.9099999999999994E-002     1.0257104499089564E-008
  -9.7999999999999990E-002     3.9316976341297050E-009
  -9.6899999999999986E-002    -1.0295769570234370E-008
  -9.5799999999999996E-002    -1.0654827242717602E-008
  -9.4699999999999993E-002     4.9943960078735472E-009
  -9.3599999999999989E-002     1.5762271488029000E-008
  -9.2499999999999999E-002     8.8266656206315020E-009
  -9.1399999999999995E-002    -2.6693327548343859E-009
  -9.0299999999999991E-002    -2.5358068977965331E-009
  -8.9200000000000002E-002     1.5049547164025512E-009
  -8.8099999999999984E-002    -9.5547294520770265E-009
  -8.6999999999999994E-002    -3.3973915236629182E-008
  -8.5899999999999990E-002    -5.0857114075597565E-008
  -8.4799999999999986E-002    -5.4564850415772526E-008
  -8.3699999999999997E-002    -6.5483156674872589E-008
  -8.2599999999999993E-002    -9.6674341421021381E-008
  -8.1499999999999989E-002    -1.2998641807371314E-007
  -8.0399999999999999E-002    -1.4490642286091315E-007
  -7.9299999999999995E-002    -1.5748256032566132E-007
  -7.8199999999999992E-002    -2.0287137658669963E-007
  -7.7100000000000002E-002    -2.8165871412966226E-007
  -7.5999999999999984E-002    -3.5502640116646944E-007
  -7.4899999999999994E-002    -4.0535360312787816E-007
  -7.3799999999999991E-002    -4.7339014486169617E-007
  -7.2699999999999987E-002    -6.0896633158336044E-007
  -7.1599999999999997E-002    -8.0216420883516548E-007
  -7.0499999999999993E-002    -9.9893850347143598E-007
  -6.9399999999999989E-002    -1.1834122233267408E-006
  -6.8300000000000000E-002    -1.4076350680625183E-006
  -6.7199999999999996E-002    -1.7256284081668127E-006
  -6.6099999999999992E-002    -2.1305838799889898E-006
  -6.5000000000000002E-002    -2.5860933874355396E-006
  -6.3899999999999985E-002    -3.0978658287494909E-006
  -6.2799999999999995E-002    -3.7148834053368773E-006
  -6.1699999999999991E-002    -4.4658104343398008E-006
  -6.0599999999999994E-002    -5.3392113841255195E-006
  -5.9499999999999990E-002    -6.3407364905287977E-006
  -5.8399999999999994E-002    -7.5280327109794598E-006
  -5.7299999999999990E-002    -8.9556288003223017E-006
  -5.6199999999999986E-002    -1.0613592166919261E-005
  -5.5099999999999996E-002    -1.2469089597288985E-005
  -5.3999999999999992E-002    -1.4562010619556531E-005
  -5.2899999999999989E-002    -1.7006905181915499E-005
  -5.1799999999999985E-002    -1.9883864297298715E-005
  -5.0699999999999995E-002    -2.3173781301011331E-005
  -4.9599999999999991E-002    -2.6839208658202551E-005
  -4.8499999999999988E-002    -3.0936942494008690E-005
  -4.7399999999999998E-002    -3.5597320675151423E-005
  -4.6299999999999994E-002    -4.0901679312810302E-005
  -4.5199999999999990E-002    -4.6839279093546793E-005
  -4.4099999999999986E-002    -5.3402578487293795E-005
  -4.2999999999999997E-002    -6.0669895901810378E-005
  -4.1899999999999993E-002    -6.8749301135540009E-005
  -4.0799999999999989E-002    -7.7678938396275043E-005
  -3.9699999999999985E-002    -8.7439038907177746E-005
  -3.8599999999999995E-002    -9.8054588306695223E-005
  -3.7499999999999992E-002    -1.0961812949972227E-004
  -3.6399999999999988E-002    -1.2218955089338124E-004
  -3.5299999999999984E-002    -1.3573023898061365E-004
  -3.4199999999999994E-002    -1.5017796249594539E-004
  -3.3099999999999991E-002    -1.6554954345338047E-004
  -3.1999999999999987E-002    -1.8190105038229376E-004
  -3.0899999999999997E-002    -1.9920022168662399E-004
  -2.9799999999999993E-002    -2.1730444859713316E-004
  -2.8699999999999989E-002    -2.3608304036315531E-004
  -2.7599999999999986E-002    -2.5549545534886420E-004
  -2.6499999999999996E-002    -2.7549968217499554E-004
  -2.5399999999999992E-002    -2.9592090868391097E-004
  -2.4299999999999988E-002    -3.1648448202759027E-004
  -2.3199999999999985E-002    -3.3696304308250546E-004
  -2.2099999999999995E-002    -3.5721459425985813E-004
  -2.0999999999999991E-002    -3.7705618888139725E-004
  -1.9899999999999987E-002    -3.9616250433027744E-004
  -1.8799999999999983E-002    -4.1414241422899067E-004
  -1.7699999999999994E-002    -4.3067528167739511E-004
  -1.6599999999999990E-002    -4.4549690210260451E-004
  -1.5499999999999986E-002    -4.5828154543414712E-004
  -1.4399999999999996E-002    -4.6860022121109068E-004
  -1.3299999999999992E-002    -4.7602364793419838E-004
  -1.2199999999999989E-002    -4.8021972179412842E-004
  -1.1099999999999985E-002    -4.8088253242895007E-004
  -9.9999999999999950E-003    -4.7762415488250554E-004
  -8.8999999999999913E-003    -4.7001498751342297E-004
  -7.7999999999999875E-003    -4.5772135490551591E-004
  -6.6999999999999837E-003    -4.4053656165488064E-004
  -5.5999999999999939E-003    -4.1827061795629561E-004
  -4.4999999999999901E-003    -3.9066385943442583E-004
  -3.3999999999999864E-003    -3.5747891524806619E-004
  -2.2999999999999826E-003    -3.1863345066085458E-004
  -1.1999999999999927E-003    -2.7419862453825772E-004
  -9.9999999999988987E-005    -2.2426752548199147E-004
   1.0000000000000148E-003    -1.6890499682631344E-004
   2.1000000000000185E-003    -1.0825994831975549E-004
   3.2000000000000084E-003    -4.2665611545089632E-005
   4.3000000000000121E-003     2.7419109756010585E-005
   5.4000000000000159E-003     1.0152819595532492E-004
   6.5000000000000058E-003     1.7919583478942513E-004
   7.6000000000000234E-003     2.5982223451137543E-004
   8.7000000000000133E-003     3.4263145062141120E-004
   9.8000000000000032E-003     4.2678444879129529E-004
   1.0900000000000021E-002     5.1148695638403296E-004
   1.2000000000000011E-002     5.9593835612758994E-004
   1.3100000000000001E-002     6.7922711605206132E-004
   1.4200000000000018E-002     7.6034071389585733E-004
   1.5300000000000008E-002     8.3828478818759322E-004
   1.6400000000000026E-002     9.1215240536257625E-004
   1.7500000000000016E-002     9.8105834331363440E-004
   1.8600000000000005E-002     1.0440746555104852E-003
   1.9700000000000023E-002     1.1002919636666775E-003
   2.0800000000000013E-002     1.1489260941743851E-003
   2.1900000000000003E-002     1.1893295450136065E-003
   2.3000000000000020E-002     1.2208971893414855E-003
   2.4100000000000010E-002     1.2430439237505198E-003
   2.5200000000000000E-002     1.2553016422316432E-003
   2.6300000000000018E-002     1.2574149295687675E-003
   2.7400000000000008E-002     1.2493005488067865E-003
   2.8500000000000025E-002     1.2309427838772535E-003
   2.9600000000000015E-002     1.2023767922073603E-003
   3.0700000000000005E-002     1.1637990828603506E-003
   3.1800000000000023E-002     1.1156046530231833E-003
   3.2900000000000013E-002     1.0583389084786177E-003
   3.4000000000000002E-002     9.9260604474693537E-004
   3.5100000000000020E-002     9.1908691683784127E-004
   3.6200000000000010E-002     8.3860225277021527E-004
   3.7300000000000028E-002     7.5209786882624030E-004
   3.8400000000000017E-002     6.6056207288056612E-004
   3.9500000000000007E-002     5.6498637422919273E-004
   4.0600000000000025E-002     4.6639682841487229E-004
   4.1700000000000015E-002     3.6591297248378396E-004
   4.2800000000000005E-002     2.6468347641639411E-004
   4.3900000000000022E-002     1.6379677981603891E-004
   4.5000000000000012E-002     6.4273219322785735E-005
   4.6100000000000002E-002    -3.2906915294006467E-005
   4.7200000000000020E-002    -1.2678802886512130E-004
   4.8300000000000010E-002    -2.1645583910867572E-004
   4.9400000000000027E-002    -3.0109769431874156E-004
   5.0500000000000017E-002    -3.8001927896402776E-004
   5.1600000000000007E-002    -4.5261465129442513E-004
   5.2700000000000025E-002    -5.1837356295436621E-004
   5.3800000000000014E-002    -5.7690247194841504E-004
   5.4900000000000004E-002    -6.2793382676318288E-004
   5.6000000000000022E-002    -6.7129830131307244E-004
   5.7100000000000012E-002    -7.0690683787688613E-004
   5.8200000000000002E-002    -7.3476537363603711E-004
   5.9300000000000019E-002    -7.5500295497477055E-004
   6.0400000000000009E-002    -7.6786475256085396E-004
   6.1500000000000027E-002    -7.7367306221276522E-004
   6.2600000000000017E-002    -7.7279855031520128E-004
   6.3700000000000007E-002    -7.6565810013562441E-004
   6.4800000000000024E-002    -7.5272563844919205E-004
   6.5900000000000014E-002    -7.3452759534120560E-004
   6.7000000000000004E-002    -7.1163487154990435E-004
   6.8100000000000022E-002    -6.8464584182947874E-004
   6.9200000000000012E-002    -6.5415876451879740E-004
   7.0300000000000029E-002    -6.2075129244476557E-004
   7.1400000000000019E-002    -5.8498576981946826E-004
   7.2500000000000009E-002    -5.4742553038522601E-004
   7.3600000000000027E-002    -5.0863024080172181E-004
   7.4700000000000016E-002    -4.6911952085793018E-004
   7.5800000000000006E-002    -4.2935600504279137E-004
   7.6900000000000024E-002    -3.8976556970737875E-004
   7.8000000000000014E-002    -3.5075869527645409E-004
   7.9100000000000004E-002    -3.1270913314074278E-004
   8.0200000000000021E-002    -2.7591446996666491E-004
   8.1300000000000011E-002    -2.4060139548964798E-004
   8.2400000000000029E-002    -2.0697535364888608E-004
   8.3500000000000019E-002    -1.7524255963508040E-004
   8.4600000000000009E-002    -1.4556861424352974E-004
   8.5700000000000026E-002    -1.1802610242739320E-004
   8.6800000000000016E-002    -9.2624919489026070E-005
   8.7900000000000006E-002    -6.9381581852212548E-005
   8.9000000000000024E-002    -4.8327441618312150E-005
   9.0100000000000013E-002    -2.9447390261339024E-005
   9.1200000000000003E-002    -1.2649146810872480E-005
   9.2300000000000021E-002     2.1774594642920420E-006
   9.3400000000000011E-002     1.5096201423148159E-005
   9.4500000000000028E-002     2.6161314963246696E-005
   9.5600000000000018E-002     3.5499972000252455E-005
   9.6700000000000008E-002     4.3301948608132079E-005
   9.7800000000000026E-002     4.9717924412107095E-005
   9.8900000000000016E-002     5.4813870519865304E-005
  0.10000000000000001          5.8656303735915571E-005
  0.10110000000000002          6.1399667174555361E-005
  0.10220000000000001          6.3241488533094525E-005
  0.10330000000000003          6.4306943386327475E-005
  0.10440000000000002          6.4636617025826126E-005
  0.10550000000000001          6.4294479670934379E-005
  0.10660000000000003          6.3428109569940716E-005
  0.10770000000000002          6.2185150454752147E-005
  0.10880000000000001          6.0613801906583831E-005
  0.10990000000000003          5.8708719734568149E-005
  0.11100000000000002          5.6535005569458008E-005
  0.11210000000000001          5.4237876611296088E-005
  0.11320000000000002          5.1911807531723753E-005
  0.11430000000000001          4.9527581722941250E-005
  0.11540000000000003          4.7035773604875430E-005
  0.11650000000000002          4.4496217014966533E-005
  0.11760000000000001          4.2036452214233577E-005
  0.11870000000000003          3.9701568312011659E-005
  0.11980000000000002          3.7422403693199158E-005
  0.12090000000000001          3.5151813790434971E-005
  0.12200000000000003          3.2955576898530126E-005
  0.12310000000000001          3.0919734854251146E-005
  0.12420000000000003          2.9022639864706434E-005
  0.12530000000000002          2.7174706701771356E-005
  0.12640000000000001          2.5368897695443593E-005
  0.12750000000000003          2.3701551981503144E-005
  0.12860000000000002          2.2224099666345865E-005
  0.12970000000000001          2.0853876776527613E-005
  0.13080000000000003          1.9487561075948179E-005
  0.13190000000000002          1.8152715711039491E-005
  0.13300000000000001          1.6965173927019350E-005
  0.13410000000000000          1.5951427485560998E-005
  0.13520000000000004          1.5003729458840098E-005
  0.13630000000000003          1.4036313586984761E-005
  0.13740000000000002          1.3104193385515828E-005
  0.13850000000000001          1.2307009455980733E-005
  0.13960000000000000          1.1628380889305845E-005
  0.14070000000000005          1.0958518032566644E-005
  0.14180000000000004          1.0261413081025239E-005
  0.14290000000000003          9.6254407253582031E-006
  0.14400000000000002          9.1184410848654807E-006
  0.14510000000000001          8.6736590674263425E-006
  0.14620000000000000          8.1857588156708516E-006
  0.14730000000000004          7.6693731898558326E-006
  0.14840000000000003          7.2348007051914465E-006
  0.14950000000000002          6.9161310420895461E-006
  0.15060000000000001          6.6152110775874462E-006
  0.15170000000000000          6.2490953496308066E-006
  0.15280000000000005          5.8723740039567929E-006
  0.15390000000000004          5.5876430451462511E-006
  0.15500000000000003          5.3833582569495775E-006
  0.15610000000000002          5.1504193834261969E-006
  0.15720000000000001          4.8504812184546608E-006
  0.15830000000000000          4.5753213271382265E-006
  0.15940000000000004          4.4040366447006818E-006
  0.16050000000000003          4.2782303353305906E-006
  0.16160000000000002          4.0875634113035630E-006
  0.16270000000000001          3.8357247831299901E-006
  0.16380000000000000          3.6334272408566903E-006
  0.16490000000000005          3.5305486107972683E-006
  0.16600000000000004          3.4428774142725160E-006
  0.16710000000000003          3.2812613426358439E-006
  0.16820000000000002          3.0827461614535423E-006
  0.16930000000000001          2.9469006221916061E-006
  0.17040000000000000          2.8816232315875823E-006
  0.17150000000000004          2.7962448712059995E-006
  0.17260000000000003          2.6458967568032676E-006
  0.17370000000000002          2.4991402369778370E-006
  0.17480000000000001          2.4266141736006830E-006
  0.17590000000000000          2.3876630166341783E-006
  0.17700000000000005          2.2928002181288321E-006
  0.17810000000000004          2.1438327166833915E-006
  0.17920000000000003          2.0332167878223117E-006
  0.18030000000000002          2.0026914171467070E-006
  0.18140000000000001          1.9784658888966078E-006
  0.18250000000000000          1.8822856873157434E-006
  0.18360000000000004          1.7479505913797766E-006
  0.18470000000000003          1.6677793155395193E-006
  0.18580000000000002          1.6535260556338471E-006
  0.18690000000000001          1.6220111547227134E-006
  0.18800000000000000          1.5219601436911034E-006
  0.18910000000000005          1.4063573416933650E-006
  0.19020000000000004          1.3451819995680125E-006
  0.19130000000000003          1.3185804164095316E-006
  0.19240000000000002          1.2519004712885362E-006
  0.19350000000000001          1.1312212109260145E-006
  0.19460000000000005          1.0198755262535997E-006
  0.19570000000000004          9.5546829470549710E-007
  0.19680000000000003          8.8999775016418425E-007
  0.19790000000000002          7.6359629019862041E-007
  0.19900000000000001          5.9357535064918920E-007
  0.20010000000000000          4.4199114768161962E-007
  0.20120000000000005          3.1543578415949014E-007
  0.20230000000000004          1.5216303950182919E-007
  0.20340000000000003         -8.7297458151169849E-008
  0.20450000000000002         -3.6738927633450658E-007
  0.20560000000000000         -6.4119768694581580E-007
  0.20670000000000005         -9.2928792128077475E-007
  0.20780000000000004         -1.2945470189151820E-006
  0.20890000000000003         -1.7556740203872323E-006
