 -0.12000000000000000          0.0000000000000000     
 -0.11889999999999999          0.0000000000000000     
 -0.11780000000000000          0.0000000000000000     
 -0.11670000000000000          0.0000000000000000     
 -0.11559999999999999          0.0000000000000000     
 -0.11449999999999999          0.0000000000000000     
 -0.11340000000000000          2.0533333888023789E-018
 -0.11230000000000000          1.2251536454669638E-018
 -0.11119999999999999         -2.0092491702876410E-017
 -0.11009999999999999         -2.0840848620498034E-017
 -0.10900000000000000          7.5648082385363036E-017
 -0.10790000000000000          7.0868831329378655E-017
 -0.10679999999999999         -1.9141102311286910E-016
 -0.10569999999999999          2.9956344560118917E-016
 -0.10460000000000000          1.6836023906320499E-015
 -0.10349999999999999         -1.5620693622061740E-015
 -0.10239999999999999         -1.2462664262396801E-014
 -0.10130000000000000         -9.2464352689260176E-015
 -0.10020000000000000          3.8092155840198372E-014
  -9.9099999999999994E-002     8.5302147019138824E-014
  -9.7999999999999990E-002     2.5351685523409368E-015
  -9.6899999999999986E-002    -2.2073827683245784E-013
  -9.5799999999999996E-002    -3.0220303256361936E-013
  -9.4699999999999993E-002     2.5191022431556541E-014
  -9.3599999999999989E-002     5.1166102604804919E-013
  -9.2499999999999999E-002     6.7821551326396889E-013
  -9.1399999999999995E-002     6.5971349477028651E-013
  -9.0299999999999991E-002     6.6506386986117660E-013
  -8.9200000000000002E-002    -8.1036831975703216E-013
  -8.8099999999999984E-002    -5.5713268200252575E-012
  -8.6999999999999994E-002    -9.6427718240810201E-012
  -8.5899999999999990E-002    -2.2771179473274339E-012
  -8.4799999999999986E-002     2.0021815802517828E-011
  -8.3699999999999997E-002     3.7833257360286865E-011
  -8.2599999999999993E-002     2.1393288182625092E-011
  -8.1499999999999989E-002    -3.0387987265401151E-011
  -8.0399999999999999E-002    -7.6609704691144032E-011
  -7.9299999999999995E-002    -7.8853382157184626E-011
  -7.8199999999999992E-002    -4.3702128721401223E-011
  -7.7100000000000002E-002     1.4185408923894638E-011
  -7.5999999999999984E-002     1.3021589362338659E-010
  -7.4899999999999994E-002     3.1957378410218951E-010
  -7.3799999999999991E-002     4.1642717052425837E-010
  -7.2699999999999987E-002     1.2392888104617583E-010
  -7.1599999999999997E-002    -5.9405425023584257E-010
  -7.0499999999999993E-002    -1.2226473167231688E-009
  -6.9399999999999989E-002    -1.0753077317460225E-009
  -6.8300000000000000E-002    -8.2700214731890043E-011
  -6.7199999999999996E-002     1.0535944339196135E-009
  -6.6099999999999992E-002     1.7162943288795418E-009
  -6.5000000000000002E-002     2.0552701762710512E-009
  -6.3899999999999985E-002     2.2871231575294360E-009
  -6.2799999999999995E-002     1.5559258326192094E-009
  -6.1699999999999991E-002    -1.4017540461708222E-009
  -6.0599999999999994E-002    -5.8784364043162896E-009
  -5.9499999999999990E-002    -8.5155473783515845E-009
  -5.8399999999999994E-002    -6.4707701419308705E-009
  -5.7299999999999990E-002    -9.9477270865122591E-010
  -5.6199999999999986E-002     3.9836289822403614E-009
  -5.5099999999999996E-002     7.2912831328153516E-009
  -5.3999999999999992E-002     1.2107840952069182E-008
  -5.2899999999999989E-002     1.9839548670574914E-008
  -5.1799999999999985E-002     2.4082014604687174E-008
  -5.0699999999999995E-002     1.5000697572986610E-008
  -4.9599999999999991E-002    -8.9684206727724813E-009
  -4.8499999999999988E-002    -3.7253382600965779E-008
  -4.7399999999999998E-002    -5.7518068530271194E-008
  -4.6299999999999994E-002    -6.6478051508056524E-008
  -4.5199999999999990E-002    -6.5362520729195239E-008
  -4.4099999999999986E-002    -4.6994706792702345E-008
  -4.2999999999999997E-002     2.8166857735101303E-009
  -4.1899999999999993E-002     8.5035793517818092E-008
  -4.0799999999999989E-002     1.7364033055855543E-007
  -3.9699999999999985E-002     2.3028050577522663E-007
  -3.8599999999999995E-002     2.3204451338187937E-007
  -3.7499999999999992E-002     1.7786940986752597E-007
  -3.6399999999999988E-002     6.9101616873012972E-008
  -3.5299999999999984E-002    -1.0199828182066994E-007
  -3.4199999999999994E-002    -3.3289870771113783E-007
  -3.3099999999999991E-002    -5.8454196505408618E-007
  -3.1999999999999987E-002    -7.8551386195613304E-007
  -3.0899999999999997E-002    -8.6215311512205517E-007
  -2.9799999999999993E-002    -7.5639536589733325E-007
  -2.8699999999999989E-002    -4.2018902490781329E-007
  -2.7599999999999986E-002     1.8087675357492117E-007
  -2.6499999999999996E-002     1.0371298913014471E-006
  -2.5399999999999992E-002     2.0757763650181005E-006
  -2.4299999999999988E-002     3.1938632218952989E-006
  -2.3199999999999985E-002     4.3135364649060648E-006
  -2.2099999999999995E-002     5.3915800890536048E-006
  -2.0999999999999991E-002     6.3824049902905244E-006
  -1.9899999999999987E-002     7.2358252509729937E-006
  -1.8799999999999983E-002     7.9719366112840362E-006
  -1.7699999999999994E-002     8.7519092630827799E-006
  -1.6599999999999990E-002     9.8392238214728422E-006
  -1.5499999999999986E-002     1.1480533430585638E-005
  -1.4399999999999996E-002     1.3847253285348415E-005
  -1.3299999999999992E-002     1.7095786461140960E-005
  -1.2199999999999989E-002     2.1431533241411671E-005
  -1.1099999999999985E-002     2.7056064936914481E-005
  -9.9999999999999950E-003     3.4060656616929919E-005
  -8.8999999999999913E-003     4.2434527131263167E-005
  -7.7999999999999875E-003     5.2215113100828603E-005
  -6.6999999999999837E-003     6.3611405494157225E-005
  -5.5999999999999939E-003     7.6968237408436835E-005
  -4.4999999999999901E-003     9.2658607172779739E-005
  -3.3999999999999864E-003     1.1107399768661708E-004
  -2.2999999999999826E-003     1.3271471834741533E-004
  -1.1999999999999927E-003     1.5822669956833124E-004
  -9.9999999999988987E-005     1.8832950445357710E-004
   1.0000000000000148E-003     2.2375107801053673E-004
   2.1000000000000185E-003     2.6526150759309530E-004
   3.2000000000000084E-003     3.1371848308481276E-004
   4.3000000000000121E-003     3.7000176962465048E-004
   5.4000000000000159E-003     4.3492339318618178E-004
   6.5000000000000058E-003     5.0930556608363986E-004
   7.6000000000000234E-003     5.9418554883450270E-004
   8.7000000000000133E-003     6.9085875293239951E-004
   9.8000000000000032E-003     8.0065050860866904E-004
   1.0900000000000021E-002     9.2469941591843963E-004
   1.2000000000000011E-002     1.0640578111633658E-003
   1.3100000000000001E-002     1.2200033525004983E-003
   1.4200000000000018E-002     1.3941383222118020E-003
   1.5300000000000008E-002     1.5880707651376724E-003
   1.6400000000000026E-002     1.8030378269031644E-003
   1.7500000000000016E-002     2.0399137865751982E-003
   1.8600000000000005E-002     2.2994680330157280E-003
   1.9700000000000023E-002     2.5823779869824648E-003
   2.0800000000000013E-002     2.8890173416584730E-003
   2.1900000000000003E-002     3.2192766666412354E-003
   2.3000000000000020E-002     3.5726309288293123E-003
   2.4100000000000010E-002     3.9483360014855862E-003
   2.5200000000000000E-002     4.3452996760606766E-003
   2.6300000000000018E-002     4.7618341632187366E-003
   2.7400000000000008E-002     5.1955631934106350E-003
   2.8500000000000025E-002     5.6434408761560917E-003
   2.9600000000000015E-002     6.1017619445919991E-003
   3.0700000000000005E-002     6.5658022649586201E-003
   3.1800000000000023E-002     7.0296204648911953E-003
   3.2900000000000013E-002     7.4862474575638771E-003
   3.4000000000000002E-002     7.9280240461230278E-003
   3.5100000000000020E-002     8.3463937044143677E-003
   3.6200000000000010E-002     8.7316874414682388E-003
   3.7300000000000028E-002     9.0736998245120049E-003
   3.8400000000000017E-002     9.3616060912609100E-003
   3.9500000000000007E-002     9.5838792622089386E-003
   4.0600000000000025E-002     9.7284363582730293E-003
   4.1700000000000015E-002     9.7825014963746071E-003
   4.2800000000000005E-002     9.7330072894692421E-003
   4.3900000000000022E-002     9.5667708665132523E-003
   4.5000000000000012E-002     9.2710833996534348E-003
   4.6100000000000002E-002     8.8335629552602768E-003
   4.7200000000000020E-002     8.2420697435736656E-003
   4.8300000000000010E-002     7.4859075248241425E-003
   4.9400000000000027E-002     6.5563889220356941E-003
   5.0500000000000017E-002     5.4464675486087799E-003
   5.1600000000000007E-002     4.1508222930133343E-003
   5.2700000000000025E-002     2.6668105274438858E-003
   5.3800000000000014E-002     9.9512946326285601E-004
   5.4900000000000004E-002    -8.6139701306819916E-004
   5.6000000000000022E-002    -2.8973913285881281E-003
   5.7100000000000012E-002    -5.1026172004640102E-003
   5.8200000000000002E-002    -7.4612549506127834E-003
   5.9300000000000019E-002    -9.9549386650323868E-003
   6.0400000000000009E-002    -1.2564462609589100E-002
   6.1500000000000027E-002    -1.5266560018062592E-002
   6.2600000000000017E-002    -1.8031686544418335E-002
   6.3700000000000007E-002    -2.0824668928980827E-002
   6.4800000000000024E-002    -2.3608177900314331E-002
   6.5900000000000014E-002    -2.6345260441303253E-002
   6.7000000000000004E-002    -2.8998583555221558E-002
   6.8100000000000022E-002    -3.1526438891887665E-002
   6.9200000000000012E-002    -3.3883322030305862E-002
   7.0300000000000029E-002    -3.6024041473865509E-002
   7.1400000000000019E-002    -3.7904992699623108E-002
   7.2500000000000009E-002    -3.9485152810811996E-002
   7.3600000000000027E-002    -4.0725462138652802E-002
   7.4700000000000016E-002    -4.1589654982089996E-002
   7.5800000000000006E-002    -4.2047224938869476E-002
   7.6900000000000024E-002    -4.2071700096130371E-002
   7.8000000000000014E-002    -4.1637595742940903E-002
   7.9100000000000004E-002    -4.0723208338022232E-002
   8.0200000000000021E-002    -3.9318673312664032E-002
   8.1300000000000011E-002    -3.7428688257932663E-002
   8.2400000000000029E-002    -3.5064183175563812E-002
   8.3500000000000019E-002    -3.2234773039817810E-002
   8.4600000000000009E-002    -2.8952214866876602E-002
   8.5700000000000026E-002    -2.5241727009415627E-002
   8.6800000000000016E-002    -2.1146552637219429E-002
   8.7900000000000006E-002    -1.6717866063117981E-002
   8.9000000000000024E-002    -1.2004820629954338E-002
   9.0100000000000013E-002    -7.0568732917308807E-003
   9.1200000000000003E-002    -1.9311256473883986E-003
   9.2300000000000021E-002     3.3063613809645176E-003
   9.3400000000000011E-002     8.5868556052446365E-003
   9.4500000000000028E-002     1.3841667212545872E-002
   9.5600000000000018E-002     1.8999837338924408E-002
   9.6700000000000008E-002     2.3989800363779068E-002
   9.7800000000000026E-002     2.8746007010340691E-002
   9.8900000000000016E-002     3.3212617039680481E-002
  0.10000000000000001          3.7334281951189041E-002
  0.10110000000000002          4.1050691157579422E-002
  0.10220000000000001          4.4305440038442612E-002
  0.10330000000000003          4.7058004885911942E-002
  0.10440000000000002          4.9285978078842163E-002
  0.10550000000000001          5.0975136458873749E-002
  0.10660000000000003          5.2106831222772598E-002
  0.10770000000000002          5.2662476897239685E-002
  0.10880000000000001          5.2641160786151886E-002
  0.10990000000000003          5.2060697227716446E-002
  0.11100000000000002          5.0948526710271835E-002
  0.11210000000000001          4.9332834780216217E-002
  0.11320000000000002          4.7243021428585052E-002
  0.11430000000000001          4.4715482741594315E-002
  0.11540000000000003          4.1794668883085251E-002
  0.11650000000000002          3.8531906902790070E-002
  0.11760000000000001          3.4984417259693146E-002
  0.11870000000000003          3.1212925910949707E-002
  0.11980000000000002          2.7278169989585876E-002
  0.12090000000000001          2.3234622552990913E-002
  0.12200000000000003          1.9127378240227699E-002
  0.12310000000000001          1.5006557106971741E-002
  0.12420000000000003          1.0936427861452103E-002
  0.12530000000000002          6.9812759757041931E-003
  0.12640000000000001          3.1856624409556389E-003
  0.12750000000000003         -4.2677269084379077E-004
  0.12860000000000002         -3.8336711004376411E-003
  0.12970000000000001         -6.9984761066734791E-003
  0.13080000000000003         -9.8793450742959976E-003
  0.13190000000000002         -1.2449269182980061E-002
  0.13300000000000001         -1.4704261906445026E-002
  0.13410000000000000         -1.6649285331368446E-002
  0.13520000000000004         -1.8283125013113022E-002
  0.13630000000000003         -1.9600380212068558E-002
  0.13740000000000002         -2.0602144300937653E-002
  0.13850000000000001         -2.1299891173839569E-002
  0.13960000000000000         -2.1707981824874878E-002
  0.14070000000000005         -2.1840890869498253E-002
  0.14180000000000004         -2.1720124408602715E-002
  0.14290000000000003         -2.1374842151999474E-002
  0.14400000000000002         -2.0830227062106133E-002
  0.14510000000000001         -2.0099643617868423E-002
  0.14620000000000000         -1.9195029512047768E-002
  0.14730000000000004         -1.8143340945243835E-002
  0.14840000000000003         -1.6983326524496078E-002
  0.14950000000000002         -1.5743676573038101E-002
  0.15060000000000001         -1.4433294534683228E-002
  0.15170000000000000         -1.3058269396424294E-002
  0.15280000000000005         -1.1641236953437328E-002
  0.15390000000000004         -1.0215368121862411E-002
  0.15500000000000003         -8.8004581630229950E-003
  0.15610000000000002         -7.3965415358543396E-003
  0.15720000000000001         -6.0046669095754623E-003
  0.15830000000000000         -4.6426784247159958E-003
  0.15940000000000004         -3.3341734670102596E-003
  0.16050000000000003         -2.0875995978713036E-003
  0.16160000000000002         -8.9551223209127784E-004
  0.16270000000000001          2.4497800040990114E-004
  0.16380000000000000          1.3210480101406574E-003
  0.16490000000000005          2.3176034446805716E-003
  0.16600000000000004          3.2329331152141094E-003
  0.16710000000000003          4.0727974846959114E-003
  0.16820000000000002          4.8344433307647705E-003
  0.16930000000000001          5.5070570670068264E-003
  0.17040000000000000          6.0872677713632584E-003
  0.17150000000000004          6.5824612975120544E-003
  0.17260000000000003          6.9937771186232567E-003
  0.17370000000000002          7.3053790256381035E-003
  0.17480000000000001          7.5001083314418793E-003
  0.17590000000000000          7.5810123234987259E-003
  0.17700000000000005          7.5649390928447247E-003
  0.17810000000000004          7.4538360349833965E-003
  0.17920000000000003          7.2248149663209915E-003
  0.18030000000000002          6.8552945740520954E-003
  0.18140000000000001          6.3487901352345943E-003
  0.18250000000000000          5.7252319529652596E-003
  0.18360000000000004          4.9902186729013920E-003
  0.18470000000000003          4.1272058151662350E-003
  0.18580000000000002          3.1224458944052458E-003
  0.18690000000000001          1.9850358366966248E-003
  0.18800000000000000          7.3360389797016978E-004
  0.18910000000000005         -6.2711734790354967E-004
  0.19020000000000004         -2.1036951802670956E-003
  0.19130000000000003         -3.6899861879646778E-003
  0.19240000000000002         -5.3604268468916416E-003
  0.19350000000000001         -7.0916395634412766E-003
  0.19460000000000005         -8.8766627013683319E-003
  0.19570000000000004         -1.0709576308727264E-002
  0.19680000000000003         -1.2565153650939465E-002
  0.19790000000000002         -1.4404969289898872E-002
  0.19900000000000001         -1.6201872378587723E-002
  0.20010000000000000         -1.7945695668458939E-002
  0.20120000000000005         -1.9619222730398178E-002
  0.20230000000000004         -2.1182417869567871E-002
  0.20340000000000003         -2.2590987384319305E-002
  0.20450000000000002         -2.3822078481316566E-002
  0.20560000000000000         -2.4868914857506752E-002
  0.20670000000000005         -2.5711670517921448E-002
  0.20780000000000004         -2.6308512315154076E-002
  0.20890000000000003         -2.6621814817190170E-002
