 -0.12000000000000000          0.0000000000000000     
 -0.11889999999999999          0.0000000000000000     
 -0.11780000000000000          5.7030726807738574E-009
 -0.11670000000000000          6.2262417444003404E-009
 -0.11559999999999999         -2.3212104238723441E-008
 -0.11449999999999999         -3.3697602930260473E-008
 -0.11340000000000000          5.4658176651400936E-008
 -0.11230000000000000          1.2594773579621688E-007
 -0.11119999999999999         -5.2622109336653011E-008
 -0.11009999999999999         -3.1760373531142250E-007
 -0.10900000000000000         -1.0819401552453201E-007
 -0.10790000000000000          5.4488799605678651E-007
 -0.10679999999999999          5.8939764358001412E-007
 -0.10569999999999999         -5.1740300932578975E-007
 -0.10460000000000000         -1.3211156328907236E-006
 -0.10349999999999999         -8.3327350353101792E-008
 -0.10239999999999999          1.9580502339522354E-006
 -0.10130000000000000          1.4124537983661867E-006
 -0.10020000000000000         -1.9452720607660012E-006
  -9.9099999999999994E-002    -3.3329808957205387E-006
  -9.7999999999999990E-002     5.4441932206827914E-007
  -9.6899999999999986E-002     5.1065903790004086E-006
  -9.5799999999999996E-002     2.9420912142086308E-006
  -9.4699999999999993E-002    -4.6294389903778210E-006
  -9.3599999999999989E-002    -7.1327772275253665E-006
  -9.2499999999999999E-002     5.5258504971789080E-007
  -9.1399999999999995E-002     8.8268234321731143E-006
  -9.0299999999999991E-002     5.4045653996581677E-006
  -8.9200000000000002E-002    -6.2548174355470110E-006
  -8.8099999999999984E-002    -1.0009005563915707E-005
  -8.6999999999999994E-002     1.3863201786534773E-007
  -8.5899999999999990E-002     1.0309024219168350E-005
  -8.4799999999999986E-002     6.2048861764196772E-006
  -8.3699999999999997E-002    -5.8799928410735447E-006
  -8.2599999999999993E-002    -8.4262137534096837E-006
  -8.1499999999999989E-002     9.7230145001958590E-007
  -8.0399999999999999E-002     6.6568600232130848E-006
  -7.9299999999999995E-002     2.2702403157381923E-007
  -7.8199999999999992E-002    -5.9926128415099811E-006
  -7.7100000000000002E-002     1.4327805786251702E-007
  -7.5999999999999984E-002     8.6113077486515976E-006
  -7.4899999999999994E-002     2.1684843432012713E-006
  -7.3799999999999991E-002    -1.2870582395407837E-005
  -7.2699999999999987E-002    -1.1678883311105892E-005
  -7.1599999999999997E-002     9.8757491286960430E-006
  -7.0499999999999993E-002     2.2379776055458933E-005
  -6.9399999999999989E-002     3.4233373753522756E-006
  -6.8300000000000000E-002    -2.5092758733080700E-005
  -6.7199999999999996E-002    -2.3285509087145329E-005
  -6.6099999999999992E-002     9.1063648142153397E-006
  -6.5000000000000002E-002     2.8764241505996324E-005
  -6.3899999999999985E-002     8.8684328147792257E-006
  -6.2799999999999995E-002    -2.2660409740637988E-005
  -6.1699999999999991E-002    -2.3612719814991578E-005
  -6.0599999999999994E-002     2.6613602130964864E-006
  -5.9499999999999990E-002     1.6143583707162179E-005
  -5.8399999999999994E-002     1.5838758145036991E-006
  -5.7299999999999990E-002    -1.2541636351670604E-005
  -5.6199999999999986E-002    -4.1029693420568947E-006
  -5.5099999999999996E-002     6.2280764723254833E-006
  -5.3999999999999992E-002    -7.8856319305486977E-006
  -5.2899999999999989E-002    -2.8500619009719230E-005
  -5.1799999999999985E-002    -1.7080341422115453E-005
  -5.0699999999999995E-002     1.9343420717632398E-005
  -4.9599999999999991E-002     2.7514275643625297E-005
  -4.8499999999999988E-002    -1.4185400686983485E-005
  -4.7399999999999998E-002    -5.4597356211161241E-005
  -4.6299999999999994E-002    -3.6851972254225984E-005
  -4.5199999999999990E-002     1.7838077837950550E-005
  -4.4099999999999986E-002     3.5668177588377148E-005
  -4.2999999999999997E-002    -6.6439870352041908E-006
  -4.1899999999999993E-002    -5.0375027058180422E-005
  -4.0799999999999989E-002    -4.0476319554727525E-005
  -3.9699999999999985E-002    -1.0292734486938571E-006
  -3.8599999999999995E-002     8.3659715528483503E-006
  -3.7499999999999992E-002    -1.7048729205271229E-005
  -3.6399999999999988E-002    -2.8502818167908117E-005
  -3.5299999999999984E-002    -7.8046023190836422E-006
  -3.4199999999999994E-002     3.2549078241572715E-006
  -3.3099999999999991E-002    -2.4369401216972619E-005
  -3.1999999999999987E-002    -5.0630875193746760E-005
  -3.0899999999999997E-002    -2.4606861188658513E-005
  -2.9799999999999993E-002     2.8080034098820761E-005
  -2.8699999999999989E-002     3.2670930522726849E-005
  -2.7599999999999986E-002    -2.3469534426112659E-005
  -2.6499999999999996E-002    -6.3741121266502887E-005
  -2.5399999999999992E-002    -2.8755852326867171E-005
  -2.4299999999999988E-002     3.6374891351442784E-005
  -2.3199999999999985E-002     4.6773042413406074E-005
  -2.2099999999999995E-002    -7.2556480290586478E-007
  -2.0999999999999991E-002    -2.8875741918454878E-005
  -1.9899999999999987E-002     2.3605698515893891E-006
  -1.8799999999999983E-002     4.1888517444022000E-005
  -1.7699999999999994E-002     3.3734177122823894E-005
  -1.6599999999999990E-002     5.3540065891866107E-006
  -1.5499999999999986E-002     1.8633361833053641E-005
  -1.4399999999999996E-002     6.4199710323009640E-005
  -1.3299999999999992E-002     7.3853334470186383E-005
  -1.2199999999999989E-002     3.1005114578874782E-005
  -1.1099999999999985E-002     3.2866007586562773E-006
  -9.9999999999999950E-003     4.3273656046949327E-005
  -8.8999999999999913E-003     1.0416730947326869E-004
  -7.7999999999999875E-003     1.0471745918039232E-004
  -6.6999999999999837E-003     4.8841946409083903E-005
  -5.5999999999999939E-003     2.0175237295916304E-005
  -4.4999999999999901E-003     5.7899964303942397E-005
  -3.3999999999999864E-003     1.0338515130570158E-004
  -2.2999999999999826E-003     9.2848102212883532E-005
  -1.1999999999999927E-003     4.9823356675915420E-005
  -9.9999999999988987E-005     4.2960888094967231E-005
   1.0000000000000148E-003     7.4952615250367671E-005
   2.1000000000000185E-003     8.2889993791468441E-005
   3.2000000000000084E-003     4.3149495468242094E-005
   4.3000000000000121E-003     1.0340289009036496E-005
   5.4000000000000159E-003     3.0615534342359751E-005
   6.5000000000000058E-003     6.5568339778110385E-005
   7.6000000000000234E-003     4.8747704568086192E-005
   8.7000000000000133E-003    -1.0966238733089995E-005
   9.8000000000000032E-003    -4.0825674659572542E-005
   1.0900000000000021E-002    -1.3385797501541674E-005
   1.2000000000000011E-002     1.4504829778161366E-005
   1.3100000000000001E-002    -1.1993286534561776E-005
   1.4200000000000018E-002    -6.4479892898816615E-005
   1.5300000000000008E-002    -7.7945034718140960E-005
   1.6400000000000026E-002    -5.1504983275663108E-005
   1.7500000000000016E-002    -4.4290685764281079E-005
   1.8600000000000005E-002    -7.9799276136327535E-005
   1.9700000000000023E-002    -1.1181464651599526E-004
   2.0800000000000013E-002    -1.0006161028286442E-004
   2.1900000000000003E-002    -7.2819537308532745E-005
   2.3000000000000020E-002    -8.0907178926281631E-005
   2.4100000000000010E-002    -1.1745442316168919E-004
   2.5200000000000000E-002    -1.2840352428611368E-004
   2.6300000000000018E-002    -9.7143449238501489E-005
   2.7400000000000008E-002    -7.0394919021055102E-005
   2.8500000000000025E-002    -8.4801809862256050E-005
   2.9600000000000015E-002    -1.1140794958919287E-004
   3.0700000000000005E-002    -1.0194199421675876E-004
   3.1800000000000023E-002    -6.3119849073700607E-005
   3.2900000000000013E-002    -4.3576252210186794E-005
   3.4000000000000002E-002    -5.8514648117125034E-005
   3.5100000000000020E-002    -6.9566209276672453E-005
   3.6200000000000010E-002    -4.5992597733857110E-005
   3.7300000000000028E-002    -1.0987998393829912E-005
   3.8400000000000017E-002    -2.8532053875096608E-006
   3.9500000000000007E-002    -1.4624682989961002E-005
   4.0600000000000025E-002    -8.0587260526954196E-006
   4.1700000000000015E-002     2.2134110622573644E-005
   4.2800000000000005E-002     3.8465139368781820E-005
   4.3900000000000022E-002     2.5802000891417265E-005
   4.5000000000000012E-002     1.7545607988722622E-005
   4.6100000000000002E-002     3.9546041080029681E-005
   4.7200000000000020E-002     6.9103101850487292E-005
   4.8300000000000010E-002     7.0030146162025630E-005
   4.9400000000000027E-002     4.9658901843940839E-005
   5.0500000000000017E-002     4.5230412069940940E-005
   5.1600000000000007E-002     6.4789201132953167E-005
   5.2700000000000025E-002     7.6748350693378597E-005
   5.3800000000000014E-002     6.1981343606021255E-005
   5.4900000000000004E-002     4.5742242946289480E-005
   5.6000000000000022E-002     5.4422678658738732E-005
   5.7100000000000012E-002     6.7872068029828370E-005
   5.8200000000000002E-002     5.4818901844555512E-005
   5.9300000000000019E-002     2.8299884434090927E-005
   6.0400000000000009E-002     2.5431572794332169E-005
   6.1500000000000027E-002     4.7155856009339914E-005
   6.2600000000000017E-002     5.3935629694024101E-005
   6.3700000000000007E-002     2.7349578886060044E-005
   6.4800000000000024E-002    -4.4485469175015169E-007
   6.5900000000000014E-002     3.0447658900811803E-006
   6.7000000000000004E-002     2.0865461920038797E-005
   6.8100000000000022E-002     1.6397680155932903E-005
   6.9200000000000012E-002    -6.9466341301449575E-006
   7.0300000000000029E-002    -1.2644229173019994E-005
   7.1400000000000019E-002     5.5233558668987826E-006
   7.2500000000000009E-002     9.5438444986939430E-006
   7.3600000000000027E-002    -1.9216340660932474E-005
   7.4700000000000016E-002    -4.2785257392097265E-005
   7.5800000000000006E-002    -2.2722977519151755E-005
   7.6900000000000024E-002     1.5010867173259612E-005
   7.8000000000000014E-002     1.3497967302100733E-005
   7.9100000000000004E-002    -2.8669772291323170E-005
   8.0200000000000021E-002    -5.1799350330838934E-005
   8.1300000000000011E-002    -2.4635428417241201E-005
   8.2400000000000029E-002     8.9010736701311544E-006
   8.3500000000000019E-002    -6.2727906424697721E-007
   8.4600000000000009E-002    -3.1213385227601975E-005
   8.5700000000000026E-002    -2.7245032470091246E-005
   8.6800000000000016E-002     7.7345694080577232E-006
   8.7900000000000006E-002     1.4269859093474224E-005
   8.9000000000000024E-002    -2.4789878807496279E-005
   9.0100000000000013E-002    -4.8584530304651707E-005
   9.1200000000000003E-002    -1.1303100109216757E-005
   9.2300000000000021E-002     3.9583719626534730E-005
   9.3400000000000011E-002     2.8789607313228771E-005
   9.4500000000000028E-002    -3.0776387575315312E-005
   9.5600000000000018E-002    -5.2130522817606106E-005
   9.6700000000000008E-002    -3.7233060083963210E-006
   9.7800000000000026E-002     4.3270407331874594E-005
   9.8900000000000016E-002     2.2773268938180991E-005
  0.10000000000000001         -2.7006371965399012E-005
  0.10110000000000002         -2.6530906325206161E-005
  0.10220000000000001          1.9392120520933531E-005
  0.10330000000000003          3.1782499718246982E-005
  0.10440000000000002         -1.3306312212080229E-005
  0.10550000000000001         -4.1956223867600784E-005
  0.10660000000000003          6.4396976995340083E-007
  0.10770000000000002          5.5957087170099840E-005
  0.10880000000000001          3.6181783798383549E-005
  0.10990000000000003         -3.7142795918043703E-005
  0.11100000000000002         -5.7572658988647163E-005
  0.11210000000000001          6.8594090407714248E-006
  0.11320000000000002          6.2254075601231307E-005
  0.11430000000000001          2.8633607144001871E-005
  0.11540000000000003         -4.0584516682429239E-005
  0.11650000000000002         -4.1612984205130488E-005
  0.11760000000000001          2.1437197574414313E-005
  0.11870000000000003          4.6720022510271519E-005
  0.11980000000000002         -4.2277483771613333E-006
  0.12090000000000001         -4.7072859160834923E-005
  0.12200000000000003         -9.5770692496444099E-006
  0.12310000000000001          5.1603445172077045E-005
  0.12420000000000003          3.7239929952193052E-005
  0.12530000000000002         -3.6912671930622309E-005
  0.12640000000000001         -5.9205307479714975E-005
  0.12750000000000003          6.6595766838872805E-006
  0.12860000000000002          6.2818537116982043E-005
  0.12970000000000001          2.5231647668988444E-005
  0.13080000000000003         -4.7651508793933317E-005
  0.13190000000000002         -4.4842196075478569E-005
  0.13300000000000001          2.6815943783731200E-005
  0.13410000000000000          5.4585387260885909E-005
  0.13520000000000004         -4.5478577703761403E-006
  0.13630000000000003         -5.7091339840553701E-005
  0.13740000000000002         -1.9076274838880636E-005
  0.13850000000000001          5.1922244892921299E-005
  0.13960000000000000          4.4465974497143179E-005
  0.14070000000000005         -3.3548585633980110E-005
  0.14180000000000004         -6.4340172684751451E-005
  0.14290000000000003          1.1089671403397006E-008
  0.14400000000000002          6.3752457208465785E-005
  0.14510000000000001          3.3029460610123351E-005
  0.14620000000000000         -4.2756364564411342E-005
  0.14730000000000004         -4.9306672735838220E-005
  0.14840000000000003          1.7731144907884300E-005
  0.14950000000000002          5.0790258683264256E-005
  0.15060000000000001          1.1016981105171908E-008
  0.15170000000000000         -5.0891150749521330E-005
  0.15280000000000005         -1.8539451048127376E-005
  0.15390000000000004          4.7535435442114249E-005
  0.15500000000000003          4.1667597542982548E-005
  0.15610000000000002         -3.1476472940994427E-005
  0.15720000000000001         -6.0738337197108194E-005
  0.15830000000000000          1.2083513638572185E-006
  0.15940000000000004          6.3267521909438074E-005
  0.16050000000000003          3.3105628972407430E-005
  0.16160000000000002         -4.3536008888622746E-005
  0.16270000000000001         -5.3389252570923418E-005
  0.16380000000000000          1.3836368452757597E-005
  0.16490000000000005          5.4351941798813641E-005
  0.16600000000000004          1.0620026841934305E-005
  0.16710000000000003         -4.4858697947347537E-005
  0.16820000000000002         -2.6271369279129431E-005
  0.16930000000000001          3.3419983083149418E-005
  0.17040000000000000          3.7911631807219237E-005
  0.17150000000000004         -2.0379397028591484E-005
  0.17260000000000003         -4.9239773943554610E-005
  0.17370000000000002         -1.3301435046741972E-006
  0.17480000000000001          5.1407252612989396E-005
  0.17590000000000000          2.8284610380069353E-005
  0.17700000000000005         -3.6386289139045402E-005
  0.17810000000000004         -4.6199722419260070E-005
  0.17920000000000003          1.1115322195109911E-005
  0.18030000000000002          4.7899826313368976E-005
  0.18140000000000001          1.1541434105311055E-005
  0.18250000000000000         -3.8718848372809589E-005
  0.18360000000000004         -2.6737938242149539E-005
  0.18470000000000003          2.4831126211211085E-005
  0.18580000000000002          3.4240008972119540E-005
  0.18690000000000001         -1.1262384759902488E-005
  0.18800000000000000         -3.8239679270191118E-005
  0.18910000000000005         -3.4237489217048278E-006
  0.19020000000000004          3.9257367461686954E-005
  0.19130000000000003          2.3031750970403664E-005
  0.19240000000000002         -2.8652850232901983E-005
  0.19350000000000001         -3.8457477785414085E-005
  0.19460000000000005          7.4453182605793700E-006
  0.19570000000000004          4.0342820284422487E-005
  0.19680000000000003          1.3679985386261251E-005
  0.19790000000000002         -2.9878970963181928E-005
  0.19900000000000001         -2.6676858396967873E-005
  0.20010000000000000          1.3587795365310740E-005
  0.20120000000000005          2.8744914743583649E-005
  0.20230000000000004          6.4299314317395329E-007
  0.20340000000000003         -2.2489561160909943E-005
  0.20450000000000002         -5.4672609621775337E-006
  0.20560000000000000          2.0652891180361621E-005
  0.20670000000000005          1.1352916772011667E-005
  0.20780000000000004         -1.9945879103033803E-005
  0.20890000000000003         -2.3608978153788485E-005
