 -0.12000000000000000          0.0000000000000000
 -0.11889999999999999          0.0000000000000000
 -0.11780000000000000          0.0000000000000000
 -0.11670000000000000          0.0000000000000000
 -0.11559999999999999          0.0000000000000000
 -0.11449999999999999          1.4284272566454691E-015
 -0.11340000000000000         -2.4924151996029865E-015
 -0.11230000000000000         -1.3384939993388648E-014
 -0.11119999999999999          2.1669274583241763E-014
 -0.11009999999999999          9.6478468931352618E-014
 -0.10900000000000000         -6.4762987182255538E-014
 -0.10790000000000000         -5.1346714423708417E-013
 -0.10679999999999999         -1.4715542694977712E-013
 -0.10569999999999999          1.8767448532741593E-012
 -0.10460000000000000          2.3827196726083910E-012
 -0.10349999999999999         -3.7394427832015964E-012
 -0.10239999999999999         -1.1419124326672581E-011
 -0.10130000000000000         -2.0969820931776573E-012
 -0.10020000000000000          2.8348455527460459E-011
  -9.9099999999999994E-002     3.8769619459255722E-011
  -9.7999999999999990E-002    -2.0811784587349003E-011
  -9.6899999999999986E-002    -1.1168242719516996E-010
  -9.5799999999999996E-002    -9.2685907560063896E-011
  -9.4699999999999993E-002     1.0614287920818199E-010
  -9.3599999999999989E-002     3.0103763926092597E-010
  -9.2499999999999999E-002     1.8590765038517532E-010
  -9.1399999999999995E-002    -2.5472474129983880E-010
  -9.0299999999999991E-002    -5.8175569916940617E-010
  -8.9200000000000002E-002    -3.5416380939068404E-010
  -8.8099999999999984E-002     2.7511035116667415E-010
  -8.6999999999999994E-002     6.7017613680775412E-010
  -8.5899999999999990E-002     5.1441367832083529E-010
  -8.4799999999999986E-002     2.1862120447302402E-010
  -8.3699999999999997E-002     2.5128923941686310E-010
  -8.2599999999999993E-002     2.7846502881345714E-010
  -8.1499999999999989E-002    -5.3182963588582766E-010
  -8.0399999999999999E-002    -2.2713586567135735E-009
  -7.9299999999999995E-002    -3.7994567492205533E-009
  -7.8199999999999992E-002    -3.6941323333650189E-009
  -7.7100000000000002E-002    -1.2695933193640485E-009
  -7.5999999999999984E-002     3.6348306586830859E-009
  -7.4899999999999994E-002     1.1205784744561242E-008
  -7.3799999999999991E-002     2.1071230094094062E-008
  -7.2699999999999987E-002     3.1462867866594024E-008
  -7.1599999999999997E-002     4.0369371845372370E-008
  -7.0499999999999993E-002     4.8108027783655416E-008
  -6.9399999999999989E-002     5.7568300348975754E-008
  -6.8300000000000000E-002     7.0786633443731262E-008
  -6.7199999999999996E-002     8.6315374403511669E-008
  -6.6099999999999992E-002     1.0202876410403405E-007
  -6.5000000000000002E-002     1.2042846719850786E-007
  -6.3899999999999985E-002     1.4856058783152548E-007
  -6.2799999999999995E-002     1.9108968274395011E-007
  -6.1699999999999991E-002     2.4523856723135395E-007
  -6.0599999999999994E-002     3.0510227588820271E-007
  -5.9499999999999990E-002     3.7036286926195316E-007
  -5.8399999999999994E-002     4.4808214738623064E-007
  -5.7299999999999990E-002     5.4581528274866287E-007
  -5.6199999999999986E-002     6.6625716499402188E-007
  -5.5099999999999996E-002     8.1032476373366080E-007
  -5.3999999999999992E-002     9.8234613687964156E-007
  -5.2899999999999989E-002     1.1887319715242484E-006
  -5.1799999999999985E-002     1.4335644209495513E-006
  -5.0699999999999995E-002     1.7206422171511804E-006
  -4.9599999999999991E-002     2.0601562482625013E-006
  -4.8499999999999988E-002     2.4675298391230172E-006
  -4.7399999999999998E-002     2.9524990168283693E-006
  -4.6299999999999994E-002     3.5145064885000465E-006
  -4.5199999999999990E-002     4.1555576899554580E-006
  -4.4099999999999986E-002     4.8957126637105830E-006
  -4.2999999999999997E-002     5.7676688811625354E-006
  -4.1899999999999993E-002     6.7942801251774654E-006
  -4.0799999999999989E-002     7.9788724178797565E-006
  -3.9699999999999985E-002     9.3232592917047441E-006
  -3.8599999999999995E-002     1.0849564205273055E-005
  -3.7499999999999992E-002     1.2595938642334659E-005
  -3.6399999999999988E-002     1.4593520063499454E-005
  -3.5299999999999984E-002     1.6858350136317313E-005
  -3.4199999999999994E-002     1.9407842046348378E-005
  -3.3099999999999991E-002     2.2273745344136842E-005
  -3.1999999999999987E-002     2.5490708139841445E-005
  -3.0899999999999997E-002     2.9080760214128532E-005
  -2.9799999999999993E-002     3.3061671274481341E-005
  -2.8699999999999989E-002     3.7467551010195166E-005
  -2.7599999999999986E-002     4.2344574467279017E-005
  -2.6499999999999996E-002     4.7720845032017678E-005
  -2.5399999999999992E-002     5.3594631026498973E-005
  -2.4299999999999988E-002     5.9963618696201593E-005
  -2.3199999999999985E-002     6.6855493059847504E-005
  -2.2099999999999995E-002     7.4312294600531459E-005
  -2.0999999999999991E-002     8.2345737610012293E-005
  -1.9899999999999987E-002     9.0926776465494186E-005
  -1.8799999999999983E-002     1.0002371709560975E-004
  -1.7699999999999994E-002     1.0963039676425979E-004
  -1.6599999999999990E-002     1.1974070366704836E-004
  -1.5499999999999986E-002     1.3030871923547238E-004
  -1.4399999999999996E-002     1.4125542656984180E-004
  -1.3299999999999992E-002     1.5251187141984701E-004
  -1.2199999999999989E-002     1.6402607434429228E-004
  -1.1099999999999985E-002     1.7571833450347185E-004
  -9.9999999999999950E-003     1.8744882254395634E-004
  -8.8999999999999913E-003     1.9905637600459158E-004
  -7.7999999999999875E-003     2.1041445143055171E-004
  -6.6999999999999837E-003     2.2141565568745136E-004
  -5.5999999999999939E-003     2.3190696083474904E-004
  -4.4999999999999901E-003     2.4166390358004719E-004
  -3.3999999999999864E-003     2.5045307120308280E-004
  -2.2999999999999826E-003     2.5808712234720588E-004
  -1.1999999999999927E-003     2.6439601788297296E-004
  -9.9999999999988987E-005     2.6916680508293211E-004
   1.0000000000000148E-003     2.7214316651225090E-004
   2.1000000000000185E-003     2.7309168945066631E-004
   3.2000000000000084E-003     2.7183367637917399E-004
   4.3000000000000121E-003     2.6818661717697978E-004
   5.4000000000000159E-003     2.6192134828306735E-004
   6.5000000000000058E-003     2.5281487614847720E-004
   7.6000000000000234E-003     2.4073218810372055E-004
   8.7000000000000133E-003     2.2561568766832352E-004
   9.8000000000000032E-003     2.0738475723192096E-004
   1.0900000000000021E-002     1.8590949184726924E-004
   1.2000000000000011E-002     1.6109900025185198E-004
   1.3100000000000001E-002     1.3300176942721009E-004
   1.4200000000000018E-002     1.0175903298659250E-004
   1.5300000000000008E-002     6.7492495873011649E-005
   1.6400000000000026E-002     3.0293893360067159E-005
   1.7500000000000016E-002    -9.6685744210844859E-006
   1.8600000000000005E-002    -5.2096798754064366E-005
   1.9700000000000023E-002    -9.6634161309339106E-005
   2.0800000000000013E-002    -1.4294922584667802E-004
   2.1900000000000003E-002    -1.9070236885454506E-004
   2.3000000000000020E-002    -2.3944536224007607E-004
   2.4100000000000010E-002    -2.8862606268376112E-004
   2.5200000000000000E-002    -3.3770586014725268E-004
   2.6300000000000018E-002    -3.8622756255790591E-004
   2.7400000000000008E-002    -4.3371450738050044E-004
   2.8500000000000025E-002    -4.7956357593648136E-004
   2.9600000000000015E-002    -5.2311061881482601E-004
   3.0700000000000005E-002    -5.6378857698291540E-004
   3.1800000000000023E-002    -6.0115358792245388E-004
   3.2900000000000013E-002    -6.3475704519078135E-004
   3.4000000000000002E-002    -6.6406308906152844E-004
   3.5100000000000020E-002    -6.8855227436870337E-004
   3.6200000000000010E-002    -7.0786278229206800E-004
   3.7300000000000028E-002    -7.2176061803475022E-004
   3.8400000000000017E-002    -7.2999857366085052E-004
   3.9500000000000007E-002    -7.3229474946856499E-004
   4.0600000000000025E-002    -7.2848144918680191E-004
   4.1700000000000015E-002    -7.1860081516206264E-004
   4.2800000000000005E-002    -7.0278777275234461E-004
   4.3900000000000022E-002    -6.8112555891275406E-004
   4.5000000000000012E-002    -6.5369030926376581E-004
   4.6100000000000002E-002    -6.2073004664853215E-004
   4.7200000000000020E-002    -5.8269727742299438E-004
   4.8300000000000010E-002    -5.4008624283596873E-004
   4.9400000000000027E-002    -4.9330008914694190E-004
   5.0500000000000017E-002    -4.4275456457398832E-004
   5.1600000000000007E-002    -3.8903555832803249E-004
   5.2700000000000025E-002    -3.3286050893366337E-004
   5.3800000000000014E-002    -2.7488617342896760E-004
   5.4900000000000004E-002    -2.1564862981904298E-004
   5.6000000000000022E-002    -1.5572100528515875E-004
   5.7100000000000012E-002    -9.5834955573081970E-005
   5.8200000000000002E-002    -3.6743673263117671E-005
   5.9300000000000019E-002     2.0978082829969935E-005
   6.0400000000000009E-002     7.6905897003598511E-005
   6.1500000000000027E-002     1.3054659939371049E-004
   6.2600000000000017E-002     1.8128473311662674E-004
   6.3700000000000007E-002     2.2857442672830075E-004
   6.4800000000000024E-002     2.7211077394895256E-004
   6.5900000000000014E-002     3.1171907903626561E-004
   6.7000000000000004E-002     3.4714626963250339E-004
   6.8100000000000022E-002     3.7807051558047533E-004
   6.9200000000000012E-002     4.0432056994177401E-004
   7.0300000000000029E-002     4.2595562990754843E-004
   7.1400000000000019E-002     4.4307959615252912E-004
   7.2500000000000009E-002     4.5567806228064001E-004
   7.3600000000000027E-002     4.6372681390494108E-004
   7.4700000000000016E-002     4.6741301775909960E-004
   7.5800000000000006E-002     4.6711220056749880E-004
   7.6900000000000024E-002     4.6314296196214855E-004
   7.8000000000000014E-002     4.5565786422230303E-004
   7.9100000000000004E-002     4.4483371311798692E-004
   8.0200000000000021E-002     4.3106506927870214E-004
   8.1300000000000011E-002     4.1485764086246490E-004
   8.2400000000000029E-002     3.9658008608967066E-004
   8.3500000000000019E-002     3.7644186522811651E-004
   8.4600000000000009E-002     3.5472013405524194E-004
   8.5700000000000026E-002     3.3186809741891921E-004
   8.6800000000000016E-002     3.0832938500680029E-004
   8.7900000000000006E-002     2.8434663545340300E-004
   8.9000000000000024E-002     2.6006135158240795E-004
   9.0100000000000013E-002     2.3575146042276174E-004
   9.1200000000000003E-002     2.1183118224143982E-004
   9.2300000000000021E-002     1.8859439296647906E-004
   9.3400000000000011E-002     1.6609081649221480E-004
   9.4500000000000028E-002     1.4432996977120638E-004
   9.5600000000000018E-002     1.2350955512374640E-004
   9.6700000000000008E-002     1.0392469994258136E-004
   9.7800000000000026E-002     8.5697269241791219E-005
   9.8900000000000016E-002     6.8729859776794910E-005
  0.10000000000000001          5.2952898840885609E-005
  0.10110000000000002          3.8480749935843050E-005
  0.10220000000000001          2.5454546630498953E-005
  0.10330000000000003          1.3819028026773594E-005
  0.10440000000000002          3.3899125355674187E-006
  0.10550000000000001         -5.8990945035475306E-006
  0.10660000000000003         -1.3954856513009872E-005
  0.10770000000000002         -2.0753901480929926E-005
  0.10880000000000001         -2.6484191039344296E-005
  0.10990000000000003         -3.1366460461867973E-005
  0.11100000000000002         -3.5426623071543872E-005
  0.11210000000000001         -3.8564598071388900E-005
  0.11320000000000002         -4.0822604205459356E-005
  0.11430000000000001         -4.2435673094587401E-005
  0.11540000000000003         -4.3592724978225306E-005
  0.11650000000000002         -4.4265387259656563E-005
  0.11760000000000001         -4.4366079237079248E-005
  0.11870000000000003         -4.3986736272927374E-005
  0.11980000000000002         -4.3350526539143175E-005
  0.12090000000000001         -4.2557261622278020E-005
  0.12200000000000003         -4.1514183976687491E-005
  0.12310000000000001         -4.0159484342439100E-005
  0.12420000000000003         -3.8629790651611984E-005
  0.12530000000000002         -3.7115663872100413E-005
  0.12640000000000001         -3.5626046155812219E-005
  0.12750000000000003         -3.4024087653961033E-005
  0.12860000000000002         -3.2277534046443179E-005
  0.12970000000000001         -3.0540035368176177E-005
  0.13080000000000003         -2.8944994483026676E-005
  0.13190000000000002         -2.7430847694631666E-005
  0.13300000000000001         -2.5865012503345497E-005
  0.13410000000000000         -2.4266750187962316E-005
  0.13520000000000004         -2.2787258785683662E-005
  0.13630000000000003         -2.1481086150743067E-005
  0.13740000000000002         -2.0226918422849849E-005
  0.13850000000000001         -1.8922017261502333E-005
  0.13960000000000000         -1.7647565982770175E-005
  0.14070000000000005         -1.6547632185393013E-005
  0.14180000000000004         -1.5607189197908156E-005
  0.14290000000000003         -1.4671450117020868E-005
  0.14400000000000002         -1.3676490198122337E-005
  0.14510000000000001         -1.2740370038955007E-005
  0.14620000000000000         -1.1979655027971603E-005
  0.14730000000000004         -1.1332658687024377E-005
  0.14840000000000003         -1.0655421647243202E-005
  0.14950000000000002         -9.9353346740826964E-006
  0.15060000000000001         -9.2977943495498039E-006
  0.15170000000000000         -8.8039732872857712E-006
  0.15280000000000005         -8.3555578385130502E-006
  0.15390000000000004         -7.8476768976543099E-006
  0.15500000000000003         -7.3275459726573899E-006
  0.15610000000000002         -6.9150191848166287E-006
  0.15720000000000001         -6.6118122958869208E-006
  0.15830000000000000         -6.2956178226158954E-006
  0.15940000000000004         -5.9050626077805646E-006
  0.16050000000000003         -5.5293821787927300E-006
  0.16160000000000002         -5.2672721722046845E-006
  0.16270000000000001         -5.0752732931869105E-006
  0.16380000000000000         -4.8354286263929680E-006
  0.16490000000000005         -4.5337660594668705E-006
  0.16600000000000004         -4.2752212721097749E-006
  0.16710000000000003         -4.1180101106874645E-006
  0.16820000000000002         -3.9848000596975908E-006
  0.16930000000000001         -3.7831134704902070E-006
  0.17040000000000000         -3.5455548186291708E-006
  0.17150000000000004         -3.3756630273273913E-006
  0.17260000000000003         -3.2872569590836065E-006
  0.17370000000000002         -3.1845420380705036E-006
  0.17480000000000001         -3.0084545414865715E-006
  0.17590000000000000         -2.8230244879523525E-006
  0.17700000000000005         -2.7144249088451033E-006
  0.17810000000000004         -2.6611726298142457E-006
  0.17920000000000003         -2.5710951376822777E-006
  0.18030000000000002         -2.4211224172177026E-006
  0.18140000000000001         -2.2858901047584368E-006
  0.18250000000000000         -2.2189271930983523E-006
  0.18360000000000004         -2.1732932964368956E-006
  0.18470000000000003         -2.0789898371731397E-006
  0.18580000000000002         -1.9502165287121898E-006
  0.18690000000000001         -1.8589364572108025E-006
  0.18800000000000000         -1.8209038898930885E-006
  0.18910000000000005         -1.7726132455209154E-006
  0.19020000000000004         -1.6704598237993196E-006
  0.19130000000000003         -1.5557093320239801E-006
  0.19240000000000002         -1.4880907883707550E-006
  0.19350000000000001         -1.4531638043990824E-006
  0.19460000000000005         -1.3849346487404546E-006
  0.19570000000000004         -1.2652133136725752E-006
  0.19680000000000003         -1.1473709946585586E-006
  0.19790000000000002         -1.0724043022491969E-006
  0.19900000000000001         -1.0072909617520054E-006
  0.20010000000000000         -8.9504811739971046E-007
  0.20120000000000005         -7.3568401148804696E-007
  0.20230000000000004         -5.7771831052377820E-007
  0.20340000000000003         -4.3992631049150077E-007
  0.20450000000000002         -2.8361398562992690E-007
  0.20560000000000000         -7.0543698882374883E-008
  0.20670000000000005          1.8689621583689586E-007
  0.20780000000000004          4.5657819214284245E-007
  0.20890000000000003          7.4439299169171136E-007
