 -0.12000000000000000          0.0000000000000000     
 -0.11889999999999999          0.0000000000000000     
 -0.11780000000000000          0.0000000000000000     
 -0.11670000000000000          0.0000000000000000     
 -0.11559999999999999          0.0000000000000000     
 -0.11449999999999999          0.0000000000000000     
 -0.11340000000000000          0.0000000000000000     
 -0.11230000000000000          0.0000000000000000     
 -0.11119999999999999          0.0000000000000000     
 -0.11009999999999999          1.6971579707572092E-026
 -0.10900000000000000         -6.1149057661852160E-027
 -0.10790000000000000         -2.3141153303377530E-025
 -0.10679999999999999          1.0491346986537983E-026
 -0.10569999999999999          1.2504302247911333E-024
 -0.10460000000000000         -1.0248681693252817E-024
 -0.10349999999999999         -3.7436013513073714E-024
 -0.10239999999999999          2.3395984662225024E-023
 -0.10130000000000000          3.7782477278342256E-023
 -0.10020000000000000         -1.8341070320018804E-022
  -9.9099999999999994E-002    -4.8133959932661583E-022
  -9.7999999999999990E-002     4.6263054495806187E-022
  -9.6899999999999986E-002     3.0128791634795679E-021
  -9.5799999999999996E-002     2.0923820361245101E-021
  -9.4699999999999993E-002    -8.3881970616237367E-021
  -9.3599999999999989E-002    -1.8270850996189372E-020
  -9.2499999999999999E-002    -1.7080350686618033E-021
  -9.1399999999999995E-002     4.0952122389760650E-020
  -9.0299999999999991E-002     6.4143552579362606E-020
  -8.9200000000000002E-002     4.4085453469543109E-020
  -8.8099999999999984E-002    -1.1016605463276463E-020
  -8.6999999999999994E-002    -2.3187084906446639E-019
  -8.5899999999999990E-002    -7.7138242055022721E-019
  -8.4799999999999986E-002    -9.1598806728521612E-019
  -8.3699999999999997E-002     1.1668313118249578E-018
  -8.2599999999999993E-002     5.5220977099554837E-018
  -8.1499999999999989E-002     6.4496488316260021E-018
  -8.0399999999999999E-002    -3.9996784099965367E-018
  -7.9299999999999995E-002    -2.2766248808196890E-017
  -7.8199999999999992E-002    -2.9227073677079096E-017
  -7.7100000000000002E-002    -2.8838473324288422E-018
  -7.5999999999999984E-002     5.0753985897628612E-017
  -7.4899999999999994E-002     1.0160648569748984E-016
  -7.3799999999999991E-002     1.1297293993070350E-016
  -7.2699999999999987E-002     2.6677244771131310E-017
  -7.1599999999999997E-002    -2.4138466998167233E-016
  -7.0499999999999993E-002    -6.4659249998414120E-016
  -6.9399999999999989E-002    -7.6134217093104940E-016
  -6.8300000000000000E-002     9.1364758869331877E-017
  -6.7199999999999996E-002     1.9731791324966537E-015
  -6.6099999999999992E-002     3.4764843134376397E-015
  -6.5000000000000002E-002     2.3388087392337345E-015
  -6.3899999999999985E-002    -2.3471158031056942E-015
  -6.2799999999999995E-002    -8.4904312584472424E-015
  -6.1699999999999991E-002    -1.1854340446271813E-014
  -6.0599999999999994E-002    -8.1948243831520169E-015
  -5.9499999999999990E-002     5.4344625926628677E-015
  -5.8399999999999994E-002     2.8337050181391835E-014
  -5.7299999999999990E-002     4.9701870630204301E-014
  -5.6199999999999986E-002     4.4535162775465043E-014
  -5.5099999999999996E-002    -1.2146620176150223E-014
  -5.3999999999999992E-002    -1.1133542682619305E-013
  -5.2899999999999989E-002    -1.8861518250035125E-013
  -5.1799999999999985E-002    -1.5504255052121302E-013
  -5.0699999999999995E-002     2.9202450191074397E-014
  -4.9599999999999991E-002     3.0405254594460807E-013
  -4.8499999999999988E-002     5.2866240031479439E-013
  -4.7399999999999998E-002     5.3943443678941549E-013
  -4.6299999999999994E-002     1.9901800747765958E-013
  -4.5199999999999990E-002    -5.3033733004095862E-013
  -4.4099999999999986E-002    -1.4362666871797769E-012
  -4.2999999999999997E-002    -1.9494111186402208E-012
  -4.1899999999999993E-002    -1.3596970771523331E-012
  -4.0799999999999989E-002     5.8965560299079067E-013
  -3.9699999999999985E-002     3.1987292588991911E-012
  -3.8599999999999995E-002     5.0114326750894111E-012
  -3.7499999999999992E-002     4.6929270365592135E-012
  -3.6399999999999988E-002     1.8017395301411776E-012
  -3.5299999999999984E-002    -3.1343755715895760E-012
  -3.4199999999999994E-002    -8.8530459005364825E-012
  -3.3099999999999991E-002    -1.3241020259402436E-011
  -3.1999999999999987E-002    -1.3289891756529393E-011
  -3.0899999999999997E-002    -6.3521787656284356E-012
  -2.9799999999999993E-002     7.4013807235817630E-012
  -2.8699999999999989E-002     2.3644168220537942E-011
  -2.7599999999999986E-002     3.5644865531425651E-011
  -2.6499999999999996E-002     3.7624570126126855E-011
  -2.5399999999999992E-002     2.6188358773215903E-011
  -2.4299999999999988E-002    -6.0885248665681901E-013
  -2.3199999999999985E-002    -4.2443232955990950E-011
  -2.2099999999999995E-002    -9.1529075985086195E-011
  -2.0999999999999991E-002    -1.2805048688058207E-010
  -1.9899999999999987E-002    -1.2479017819089222E-010
  -1.8799999999999983E-002    -6.1745136781254928E-011
  -1.7699999999999994E-002     5.9690537235201901E-011
  -1.6599999999999990E-002     2.1330408273012580E-010
  -1.5499999999999986E-002     3.5385500085638455E-010
  -1.4399999999999996E-002     4.2374170838854752E-010
  -1.3299999999999992E-002     3.6107206113911161E-010
  -1.2199999999999989E-002     1.2013712247238573E-010
  -1.1099999999999985E-002    -2.9354133013193007E-010
  -9.9999999999999950E-003    -7.9426265564563892E-010
  -8.8999999999999913E-003    -1.2208162258886546E-009
  -7.7999999999999875E-003    -1.3793400865935723E-009
  -6.6999999999999837E-003    -1.1022628365608966E-009
  -5.5999999999999939E-003    -3.0304755926913174E-010
  -4.4999999999999901E-003     9.7245833607928489E-010
  -3.3999999999999864E-003     2.4969410983288753E-009
  -2.2999999999999826E-003     3.8442364846957844E-009
  -1.1999999999999927E-003     4.4516688113560576E-009
  -9.9999999999988987E-005     3.7776382022514099E-009
   1.0000000000000148E-003     1.5100750649921224E-009
   2.1000000000000185E-003    -2.2471884353336691E-009
   3.2000000000000084E-003    -6.8658674301502742E-009
   4.3000000000000121E-003    -1.1198492799735504E-008
   5.4000000000000159E-003    -1.3737551540771165E-008
   6.5000000000000058E-003    -1.2957368511479217E-008
   7.6000000000000234E-003    -7.7989739111217204E-009
   8.7000000000000133E-003     1.8326615780495104E-009
   9.8000000000000032E-003     1.4722443708592436E-008
   1.0900000000000021E-002     2.8272054919398215E-008
   1.2000000000000011E-002     3.8770881616301267E-008
   1.3100000000000001E-002     4.2056292670622497E-008
   1.4200000000000018E-002     3.4547333882528619E-008
   1.5300000000000008E-002     1.4481980059599664E-008
   1.6400000000000026E-002    -1.6983818795779371E-008
   1.7500000000000016E-002    -5.5200182202952419E-008
   1.8600000000000005E-002    -9.2238039428593765E-008
   1.9700000000000023E-002    -1.1800563015640364E-007
   2.0800000000000013E-002    -1.2226536227899487E-007
   2.1900000000000003E-002    -9.7387911068835820E-008
   2.3000000000000020E-002    -4.1365833425288656E-008
   2.4100000000000010E-002     3.9746566926623927E-008
   2.5200000000000000E-002     1.3089292849599587E-007
   2.6300000000000018E-002     2.0921149257446814E-007
   2.7400000000000008E-002     2.4751761884544976E-007
   2.8500000000000025E-002     2.1977999153932615E-007
   2.9600000000000015E-002     1.0791345772531713E-007
   3.0700000000000005E-002    -9.1257646772646694E-008
   3.1800000000000023E-002    -3.6048365359420131E-007
   3.2900000000000013E-002    -6.5975712004728848E-007
   3.4000000000000002E-002    -9.2841969490109477E-007
   3.5100000000000020E-002    -1.0920156228166888E-006
   3.6200000000000010E-002    -1.0731951078923885E-006
   3.7300000000000028E-002    -8.0497756016484345E-007
   3.8400000000000017E-002    -2.4380778995691799E-007
   3.9500000000000007E-002     6.2047502069617622E-007
   4.0600000000000025E-002     1.7605774473850033E-006
   4.1700000000000015E-002     3.1153838335740147E-006
   4.2800000000000005E-002     4.6013133214728441E-006
   4.3900000000000022E-002     6.1301498135435395E-006
   4.5000000000000012E-002     7.6309843279886991E-006
   4.6100000000000002E-002     9.0725343397934921E-006
   4.7200000000000020E-002     1.0481729077582713E-005
   4.8300000000000010E-002     1.1955166883126367E-005
   4.9400000000000027E-002     1.3660936929227319E-005
   5.0500000000000017E-002     1.5829700714675710E-005
   5.1600000000000007E-002     1.8737468053586781E-005
   5.2700000000000025E-002     2.2683252609567717E-005
   5.3800000000000014E-002     2.7965603294433095E-005
   5.4900000000000004E-002     3.4864733606809750E-005
   5.6000000000000022E-002     4.3633746827254072E-005
   5.7100000000000012E-002     5.4503008868778124E-005
   5.8200000000000002E-002     6.7697626946028322E-005
   5.9300000000000019E-002     8.3465361967682838E-005
   6.0400000000000009E-002     1.0211337212240323E-004
   6.1500000000000027E-002     1.2404768494889140E-004
   6.2600000000000017E-002     1.4980570995248854E-004
   6.3700000000000007E-002     1.8007541075348854E-004
   6.4800000000000024E-002     2.1569678210653365E-004
   6.5900000000000014E-002     2.5765105965547264E-004
   6.7000000000000004E-002     3.0703764059580863E-004
   6.8100000000000022E-002     3.6504346644505858E-004
   6.9200000000000012E-002     4.3291976908221841E-004
   7.0300000000000029E-002     5.1196484128013253E-004
   7.1400000000000019E-002     6.0351745923981071E-004
   7.2500000000000009E-002     7.0897245313972235E-004
   7.3600000000000027E-002     8.2982139429077506E-004
   7.4700000000000016E-002     9.6767913782969117E-004
   7.5800000000000006E-002     1.1243001790717244E-003
   7.6900000000000024E-002     1.3015781296417117E-003
   7.8000000000000014E-002     1.5015191165730357E-003
   7.9100000000000004E-002     1.7262181499972939E-003
   8.0200000000000021E-002     1.9777975976467133E-003
   8.1300000000000011E-002     2.2583168465644121E-003
   8.2400000000000029E-002     2.5696794036775827E-003
   8.3500000000000019E-002     2.9135711956769228E-003
   8.4600000000000009E-002     3.2913796603679657E-003
   8.5700000000000026E-002     3.7041732575744390E-003
   8.6800000000000016E-002     4.1526793502271175E-003
   8.7900000000000006E-002     4.6371463686227798E-003
   8.9000000000000024E-002     5.1572984084486961E-003
   9.0100000000000013E-002     5.7122651487588882E-003
   9.1200000000000003E-002     6.3004763796925545E-003
   9.2300000000000021E-002     6.9196280092000961E-003
   9.3400000000000011E-002     7.5665200129151344E-003
   9.4500000000000028E-002     8.2369204610586166E-003
   9.5600000000000018E-002     8.9254388585686684E-003
   9.6700000000000008E-002     9.6253603696823120E-003
   9.7800000000000026E-002     1.0328579694032669E-002
   9.8900000000000016E-002     1.1025708168745041E-002
  0.10000000000000001          1.1705928482115269E-002
  0.10110000000000002          1.2356797233223915E-002
  0.10220000000000001          1.2964392080903053E-002
  0.10330000000000003          1.3513573445379734E-002
  0.10440000000000002          1.3988045975565910E-002
  0.10550000000000001          1.4370296150445938E-002
  0.10660000000000003          1.4641879126429558E-002
  0.10770000000000002          1.4783797785639763E-002
  0.10880000000000001          1.4776628464460373E-002
  0.10990000000000003          1.4600619673728943E-002
  0.11100000000000002          1.4236126095056534E-002
  0.11210000000000001          1.3664206489920616E-002
  0.11320000000000002          1.2866862118244171E-002
  0.11430000000000001          1.1827264912426472E-002
  0.11540000000000003          1.0530309751629829E-002
  0.11650000000000002          8.9631006121635437E-003
  0.11760000000000001          7.1159289218485355E-003
  0.11870000000000003          4.9829534254968166E-003
  0.11980000000000002          2.5623186957091093E-003
  0.12090000000000001         -1.4323175128083676E-004
  0.12200000000000003         -3.1260948162525892E-003
  0.12310000000000001         -6.3732350245118141E-003
  0.12420000000000003         -9.8658334463834763E-003
  0.12530000000000002         -1.3579729013144970E-002
  0.12640000000000001         -1.7485508695244789E-002
  0.12750000000000003         -2.1547863259911537E-002
  0.12860000000000002         -2.5724915787577629E-002
  0.12970000000000001         -2.9969144612550735E-002
  0.13080000000000003         -3.4228697419166565E-002
  0.13190000000000002         -3.8447726517915726E-002
  0.13300000000000001         -4.2566224932670593E-002
  0.13410000000000000         -4.6520169824361801E-002
  0.13520000000000004         -5.0242934376001358E-002
  0.13630000000000003         -5.3667306900024414E-002
  0.13740000000000002         -5.6727301329374313E-002
  0.13850000000000001         -5.9358891099691391E-002
  0.13960000000000000         -6.1500240117311478E-002
  0.14070000000000005         -6.3092552125453949E-002
  0.14180000000000004         -6.4081661403179169E-002
  0.14290000000000003         -6.4420320093631744E-002
  0.14400000000000002         -6.4070291817188263E-002
  0.14510000000000001         -6.3002638518810272E-002
  0.14620000000000000         -6.1197962611913681E-002
  0.14730000000000004         -5.8646503835916519E-002
  0.14840000000000003         -5.5348761379718781E-002
  0.14950000000000002         -5.1317792385816574E-002
  0.15060000000000001         -4.6580355614423752E-002
  0.15170000000000000         -4.1176058351993561E-002
  0.15280000000000005         -3.5155855119228363E-002
  0.15390000000000004         -2.8580272570252419E-002
  0.15500000000000003         -2.1518597379326820E-002
  0.15610000000000002         -1.4050971716642380E-002
  0.15720000000000001         -6.2677669338881969E-003
  0.15830000000000000          1.7328041139990091E-003
  0.15940000000000004          9.8482165485620499E-003
  0.16050000000000003          1.7975123599171638E-002
  0.16160000000000002          2.6008777320384979E-002
  0.16270000000000001          3.3842790871858597E-002
  0.16380000000000000          4.1371054947376251E-002
  0.16490000000000005          4.8491645604372025E-002
  0.16600000000000004          5.5109743028879166E-002
  0.16710000000000003          6.1139147728681564E-002
  0.16820000000000002          6.6503554582595825E-002
  0.16930000000000001          7.1136258542537689E-002
  0.17040000000000000          7.4979901313781738E-002
  0.17150000000000004          7.7987872064113617E-002
  0.17260000000000003          8.0127842724323273E-002
  0.17370000000000002          8.1384614109992981E-002
  0.17480000000000001          8.1759192049503326E-002
  0.17590000000000000          8.1264272332191467E-002
  0.17700000000000005          7.9921387135982513E-002
  0.17810000000000004          7.7762886881828308E-002
  0.17920000000000003          7.4835419654846191E-002
  0.18030000000000002          7.1199998259544373E-002
  0.18140000000000001          6.6927351057529449E-002
  0.18250000000000000          6.2092579901218414E-002
  0.18360000000000004          5.6773666292428970E-002
  0.18470000000000003          5.1053192466497421E-002
  0.18580000000000002          4.5019339770078659E-002
  0.18690000000000001          3.8764610886573792E-002
  0.18800000000000000          3.2381352037191391E-002
  0.18910000000000005          2.5957923382520676E-002
  0.19020000000000004          1.9576819613575935E-002
  0.19130000000000003          1.3314378447830677E-002
  0.19240000000000002          7.2423773817718029E-003
  0.19350000000000001          1.4285654760897160E-003
  0.19460000000000005         -4.0647769346833229E-003
  0.19570000000000004         -9.1848587617278099E-003
  0.19680000000000003         -1.3890642672777176E-002
  0.19790000000000002         -1.8152032047510147E-002
  0.19900000000000001         -2.1946566179394722E-002
  0.20010000000000000         -2.5256510823965073E-002
  0.20120000000000005         -2.8070267289876938E-002
  0.20230000000000004         -3.0385555699467659E-002
  0.20340000000000003         -3.2211396843194962E-002
  0.20450000000000002         -3.3565584570169449E-002
  0.20560000000000000         -3.4469775855541229E-002
  0.20670000000000005         -3.4947417676448822E-002
  0.20780000000000004         -3.5025101155042648E-002
  0.20890000000000003         -3.4734487533569336E-002
