 -0.12000000000000000          0.0000000000000000
 -0.11889999999999999          0.0000000000000000
 -0.11780000000000000          0.0000000000000000
 -0.11670000000000000          0.0000000000000000
 -0.11559999999999999          0.0000000000000000
 -0.11449999999999999          0.0000000000000000
 -0.11340000000000000          0.0000000000000000
 -0.11230000000000000          4.5173334915543855E-021
 -0.11119999999999999          2.6953383395904554E-021
 -0.11009999999999999         -3.9686148311642383E-020
 -0.10900000000000000         -4.3154532775948567E-020
 -0.10790000000000000          1.2673961825370042E-019
 -0.10679999999999999          1.1275686670622454E-019
 -0.10569999999999999         -2.9436465453557734E-019
 -0.10460000000000000          7.7179637274802171E-019
 -0.10349999999999999          3.4095603163756938E-018
 -0.10239999999999999         -2.6647561394849845E-018
 -0.10130000000000000         -2.4008300202614664E-017
 -0.10020000000000000         -2.3006915353057968E-017
  -9.9099999999999994E-002     5.9794438026845214E-017
  -9.7999999999999990E-002     1.6465781834608704E-016
  -9.6899999999999986E-002     6.5371819112269760E-017
  -9.5799999999999996E-002    -3.2096637999152924E-016
  -9.4699999999999993E-002    -5.9947475704590384E-016
  -9.3599999999999989E-002    -2.6554607304386444E-016
  -9.2499999999999999E-002     5.2617946087277234E-016
  -9.1399999999999995E-002     1.2265280598214605E-015
  -9.0299999999999991E-002     1.9775489754715386E-015
  -8.9200000000000002E-002     2.6896684207113053E-015
  -8.8099999999999984E-002     1.9473867145549642E-016
  -8.6999999999999994E-002    -9.5672515387974257E-015
  -8.5899999999999990E-002    -2.1019359755340694E-014
  -8.4799999999999986E-002    -1.4576910167753317E-014
  -8.3699999999999997E-002     2.3028633714576932E-014
  -8.2599999999999993E-002     6.8656255539697314E-014
  -8.1499999999999989E-002     7.0093866962831625E-014
  -8.0399999999999999E-002     1.8026841057085718E-015
  -7.9299999999999995E-002    -9.8447481720539964E-014
  -7.8199999999999992E-002    -1.7167476750075406E-013
  -7.7100000000000002E-002    -1.9459218578935650E-013
  -7.5999999999999984E-002    -1.4046687532749680E-013
  -7.4899999999999994E-002     9.1882786643938952E-014
  -7.3799999999999991E-002     5.6259543464859396E-013
  -7.2699999999999987E-002     1.0080224415592864E-012
  -7.1599999999999997E-002     8.3523894181189440E-013
  -7.0499999999999993E-002    -2.9889692066895068E-013
  -6.9399999999999989E-002    -1.8545852787515971E-012
  -6.8300000000000000E-002    -2.6645740735381507E-012
  -6.7199999999999996E-002    -2.0365256789972586E-012
  -6.6099999999999992E-002    -3.4666621786735852E-013
  -6.5000000000000002E-002     1.7393216858105354E-012
  -6.3899999999999985E-002     4.1749277646108141E-012
  -6.2799999999999995E-002     6.7709930544335162E-012
  -6.1699999999999991E-002     7.5979647920498827E-012
  -6.0599999999999994E-002     3.6871334978261228E-012
  -5.9499999999999990E-002    -5.3345960461526065E-012
  -5.8399999999999994E-002    -1.5047071227902720E-011
  -5.7299999999999990E-002    -1.9570289833126253E-011
  -5.6199999999999986E-002    -1.7235570609619444E-011
  -5.5099999999999996E-002    -1.0806308105293372E-011
  -5.3999999999999992E-002    -1.1947499196571232E-012
  -5.2899999999999989E-002     1.5830942459715835E-011
  -5.1799999999999985E-002     4.2452256987512982E-011
  -5.0699999999999995E-002     6.8811373266086662E-011
  -4.9599999999999991E-002     7.5453795989055550E-011
  -4.8499999999999988E-002     4.9080850494931383E-011
  -4.7399999999999998E-002    -6.5036461459333506E-012
  -4.6299999999999994E-002    -7.7458893465998102E-011
  -4.5199999999999990E-002    -1.5275535003578256E-010
  -4.4099999999999986E-002    -2.2125642984427429E-010
  -4.2999999999999997E-002    -2.5614371734761221E-010
  -4.1899999999999993E-002    -2.1505974778790460E-010
  -4.0799999999999989E-002    -6.9064982899380567E-011
  -3.9699999999999985E-002     1.6694898241631506E-010
  -3.8599999999999995E-002     4.3755216116991846E-010
  -3.7499999999999992E-002     6.7744693188487304E-010
  -3.6399999999999988E-002     8.2886481012067748E-010
  -3.5299999999999984E-002     8.2947049229176173E-010
  -3.4199999999999994E-002     6.0446858629603639E-010
  -3.3099999999999991E-002     9.7093312556584266E-011
  -3.1999999999999987E-002    -6.8152383736475031E-010
  -3.0899999999999997E-002    -1.6310371941941071E-009
  -2.9799999999999993E-002    -2.5782607160351745E-009
  -2.8699999999999989E-002    -3.2951070760844914E-009
  -2.7599999999999986E-002    -3.5026765932144599E-009
  -2.6499999999999996E-002    -2.8971782750630837E-009
  -2.5399999999999992E-002    -1.2209904198812183E-009
  -2.4299999999999988E-002     1.6695306248593056E-009
  -2.3199999999999985E-002     5.8055089624531320E-009
  -2.2099999999999995E-002     1.1159310808750433E-008
  -2.0999999999999991E-002     1.7666986096287474E-008
  -1.9899999999999987E-002     2.5200602493669066E-008
  -1.8799999999999983E-002     3.3585806136215979E-008
  -1.7699999999999994E-002     4.2738868444303080E-008
  -1.6599999999999990E-002     5.2840015030142240E-008
  -1.5499999999999986E-002     6.4385176301584579E-008
  -1.4399999999999996E-002     7.8097201594573562E-008
  -1.3299999999999992E-002     9.4849120557682909E-008
  -1.2199999999999989E-002     1.1570791969006677E-007
  -1.1099999999999985E-002     1.4199851250396023E-007
  -9.9999999999999950E-003     1.7523126416563173E-007
  -8.8999999999999913E-003     2.1693197993499780E-007
  -7.7999999999999875E-003     2.6858725732381572E-007
  -6.6999999999999837E-003     3.3180529612764076E-007
  -5.5999999999999939E-003     4.0853248606254056E-007
  -4.4999999999999901E-003     5.0113567340304144E-007
  -3.3999999999999864E-003     6.1238159787535551E-007
  -2.2999999999999826E-003     7.4549825512804091E-007
  -1.1999999999999927E-003     9.0435344191064360E-007
  -9.9999999999988987E-005     1.0935966656688834E-006
   1.0000000000000148E-003     1.3186780734031345E-006
   2.1000000000000185E-003     1.5858490769460332E-006
   3.2000000000000084E-003     1.9022538708668435E-006
   4.3000000000000121E-003     2.2760302726965165E-006
   5.4000000000000159E-003     2.7162573132955004E-006
   6.5000000000000058E-003     3.2328607630915940E-006
   7.6000000000000234E-003     3.8367284105333965E-006
   8.7000000000000133E-003     4.5400688577501569E-006
   9.8000000000000032E-003     5.3566200222121552E-006
   1.0900000000000021E-002     6.3014990701049101E-006
   1.2000000000000011E-002     7.3909582170017529E-006
   1.3100000000000001E-002     8.6424297478515655E-006
   1.4200000000000018E-002     1.0074971214635298E-005
   1.5300000000000008E-002     1.1709536920534447E-005
   1.6400000000000026E-002     1.3568725989898667E-005
   1.7500000000000016E-002     1.5676216207793914E-005
   1.8600000000000005E-002     1.8056531189358793E-005
   1.9700000000000023E-002     2.0735040379804559E-005
   2.0800000000000013E-002     2.3737758965580724E-005
   2.1900000000000003E-002     2.7090884032077156E-005
   2.3000000000000020E-002     3.0820167012279853E-005
   2.4100000000000010E-002     3.4950651752296835E-005
   2.5200000000000000E-002     3.9506496250396594E-005
   2.6300000000000018E-002     4.4510303268907592E-005
   2.7400000000000008E-002     4.9982521886704490E-005
   2.8500000000000025E-002     5.5940570746315643E-005
   2.9600000000000015E-002     6.2398132286034524E-005
   3.0700000000000005E-002     6.9364454247988760E-005
   3.1800000000000023E-002     7.6842901762574911E-005
   3.2900000000000013E-002     8.4829633124172688E-005
   3.4000000000000002E-002     9.3312621174845845E-005
   3.5100000000000020E-002     1.0227126040263101E-004
   3.6200000000000010E-002     1.1167470074724406E-004
   3.7300000000000028E-002     1.2148098903708160E-004
   3.8400000000000017E-002     1.3163688709028065E-004
   3.9500000000000007E-002     1.4207656204234809E-004
   4.0600000000000025E-002     1.5272140444722027E-004
   4.1700000000000015E-002     1.6347903874702752E-004
   4.2800000000000005E-002     1.7424272664356977E-004
   4.3900000000000022E-002     1.8489167268853635E-004
   4.5000000000000012E-002     1.9528975826688111E-004
   4.6100000000000002E-002     2.0528797176666558E-004
   4.7200000000000020E-002     2.1472341904882342E-004
   4.8300000000000010E-002     2.2342038573697209E-004
   4.9400000000000027E-002     2.3119233082979918E-004
   5.0500000000000017E-002     2.3784433142282069E-004
   5.1600000000000007E-002     2.4317446514032781E-004
   5.2700000000000025E-002     2.4697624030523002E-004
   5.3800000000000014E-002     2.4904147721827030E-004
   5.4900000000000004E-002     2.4916531401686370E-004
   5.6000000000000022E-002     2.4714614846743643E-004
   5.7100000000000012E-002     2.4279115314129740E-004
   5.8200000000000002E-002     2.3592053912580013E-004
   5.9300000000000019E-002     2.2637621441390365E-004
   6.0400000000000009E-002     2.1401920821517706E-004
   6.1500000000000027E-002     1.9873378914780915E-004
   6.2600000000000017E-002     1.8043266027234495E-004
   6.3700000000000007E-002     1.5906416228972375E-004
   6.4800000000000024E-002     1.3461805065162480E-004
   6.5900000000000014E-002     1.0712553921621293E-004
   6.7000000000000004E-002     7.6658012403640896E-005
   6.8100000000000022E-002     4.3328778701834381E-005
   6.9200000000000012E-002     7.3001288001250941E-006
   7.0300000000000029E-002    -3.1214654882205650E-005
   7.1400000000000019E-002    -7.1953203587327152E-005
   7.2500000000000009E-002    -1.1460582754807547E-004
   7.3600000000000027E-002    -1.5882033039815724E-004
   7.4700000000000016E-002    -2.0420178771018982E-004
   7.5800000000000006E-002    -2.5031776749528944E-004
   7.6900000000000024E-002    -2.9670601361431181E-004
   7.8000000000000014E-002    -3.4287586458958685E-004
   7.9100000000000004E-002    -3.8830877747386694E-004
   8.0200000000000021E-002    -4.3246668064966798E-004
   8.1300000000000011E-002    -4.7481007641181350E-004
   8.2400000000000029E-002    -5.1481032278388739E-004
   8.3500000000000019E-002    -5.5195152526721358E-004
   8.4600000000000009E-002    -5.8572692796587944E-004
   8.5700000000000026E-002    -6.1564630595967174E-004
   8.6800000000000016E-002    -6.4125854987651110E-004
   8.7900000000000006E-002    -6.6216872073709965E-004
   8.9000000000000024E-002    -6.7803775891661644E-004
   9.0100000000000013E-002    -6.8857928272336721E-004
   9.1200000000000003E-002    -6.9356290623545647E-004
   9.2300000000000021E-002    -6.9282762706279755E-004
   9.3400000000000011E-002    -6.8628875305876136E-004
   9.4500000000000028E-002    -6.7393656354397535E-004
   9.5600000000000018E-002    -6.5583724062889814E-004
   9.6700000000000008E-002    -6.3213694375008345E-004
   9.7800000000000026E-002    -6.0305913211777806E-004
   9.8900000000000016E-002    -5.6889513507485390E-004
  0.10000000000000001         -5.2999157924205065E-004
  0.10110000000000002         -4.8675993457436562E-004
  0.10220000000000001         -4.3968023965135217E-004
  0.10330000000000003         -3.8928879075683653E-004
  0.10440000000000002         -3.3615299616940320E-004
  0.10550000000000001         -2.8085982194170356E-004
  0.10660000000000003         -2.2400832676794380E-004
  0.10770000000000002         -1.6622488328721374E-004
  0.10880000000000001         -1.0815155110321939E-004
  0.10990000000000003         -5.0414721044944599E-005
  0.11100000000000002          6.3820434661465697E-006
  0.11210000000000001          6.1671875300817192E-005
  0.11320000000000002          1.1491448822198436E-004
  0.11430000000000001          1.6560722724534571E-004
  0.11540000000000003          2.1328865841496736E-004
  0.11650000000000002          2.5755487149581313E-004
  0.11760000000000001          2.9805803205817938E-004
  0.11870000000000003          3.3452012576162815E-004
  0.11980000000000002          3.6672671558335423E-004
  0.12090000000000001          3.9453178760595620E-004
  0.12200000000000003          4.1784287896007299E-004
  0.12310000000000001          4.3661266681738198E-004
  0.12420000000000003          4.5085771125741303E-004
  0.12530000000000002          4.6067251241765916E-004
  0.12640000000000001          4.6621629735454917E-004
  0.12750000000000003          4.6768132597208023E-004
  0.12860000000000002          4.6527743688784540E-004
  0.12970000000000001          4.5924691949039698E-004
  0.13080000000000003          4.4988087029196322E-004
  0.13190000000000002          4.3751229532063007E-004
  0.13300000000000001          4.2249224497936666E-004
  0.13410000000000000          4.0516292210668325E-004
  0.13520000000000004          3.8586376467719674E-004
  0.13630000000000003          3.6494006053544581E-004
  0.13740000000000002          3.4274286008439958E-004
  0.13850000000000001          3.1961532658897340E-004
  0.13960000000000000          2.9588316101580858E-004
  0.14070000000000005          2.7185780345462263E-004
  0.14180000000000004          2.4783328990451992E-004
  0.14290000000000003          2.2407360665965825E-004
  0.14400000000000002          2.0080858666915447E-004
  0.14510000000000001          1.7824704991653562E-004
  0.14620000000000000          1.5658937627449632E-004
  0.14730000000000004          1.3601800310425460E-004
  0.14840000000000003          1.1667404760373756E-004
  0.14950000000000002          9.8654585599433631E-005
  0.15060000000000001          8.2037870015483350E-005
  0.15170000000000000          6.6901237005367875E-005
  0.15280000000000005          5.3309457143768668E-005
  0.15390000000000004          4.1290408262284473E-005
  0.15500000000000003          3.0835541110718623E-005
  0.15610000000000002          2.1929190552327782E-005
  0.15720000000000001          1.4563090189767536E-005
  0.15830000000000000          8.7189791884156875E-006
  0.15940000000000004          4.3492427721503191E-006
  0.16050000000000003          1.3838744052918628E-006
  0.16160000000000002         -2.4344015514543571E-007
  0.16270000000000001         -5.8627369980968069E-007
  0.16380000000000000          2.9553027047768410E-007
  0.16490000000000005          2.3201018848340027E-006
  0.16600000000000004          5.3943358579999767E-006
  0.16710000000000003          9.4326769612962380E-006
  0.16820000000000002          1.4354557606566232E-005
  0.16930000000000001          2.0068484445801005E-005
  0.17040000000000000          2.6470157536095940E-005
  0.17150000000000004          3.3460550184827298E-005
  0.17260000000000003          4.0951632399810478E-005
  0.17370000000000002          4.8846861318452284E-005
  0.17480000000000001          5.7023473345907405E-005
  0.17590000000000000          6.5347128838766366E-005
  0.17700000000000005          7.3701703513506800E-005
  0.17810000000000004          8.1989979662466794E-005
  0.17920000000000003          9.0100147644989192E-005
  0.18030000000000002          9.7884549177251756E-005
  0.18140000000000001          1.0518178169149905E-004
  0.18250000000000000          1.1185191397089511E-004
  0.18360000000000004          1.1777725740103051E-004
  0.18470000000000003          1.2283035903237760E-004
  0.18580000000000002          1.2685722322203219E-004
  0.18690000000000001          1.2969982344657183E-004
  0.18800000000000000          1.3122445670887828E-004
  0.18910000000000005          1.3131384912412614E-004
  0.19020000000000004          1.2984490604139864E-004
  0.19130000000000003          1.2668591807596385E-004
  0.19240000000000002          1.2172689457656816E-004
  0.19350000000000001          1.1489292955957353E-004
  0.19460000000000005          1.0612542973831296E-004
  0.19570000000000004          9.5364230219274759E-005
  0.19680000000000003          8.2564372860360891E-005
  0.19790000000000002          6.7721106461249292E-005
  0.19900000000000001          5.0873470172518864E-005
  0.20010000000000000          3.2076979550765827E-005
  0.20120000000000005          1.1392859050829429E-005
  0.20230000000000004         -1.1085340702265967E-005
  0.20340000000000003         -3.5208409826736897E-005
  0.20450000000000002         -6.0785445384681225E-005
  0.20560000000000000         -8.7616892415098846E-005
  0.20670000000000005         -1.1549705232027918E-004
  0.20780000000000004         -1.4418264618143439E-004
  0.20890000000000003         -1.7337578174192458E-004
