 -0.12000000000000000          0.0000000000000000     
 -0.11889999999999999          0.0000000000000000     
 -0.11780000000000000          5.7030726807738574E-009
 -0.11670000000000000          6.2262417444003404E-009
 -0.11559999999999999         -2.3212104238723441E-008
 -0.11449999999999999         -3.3697602930260473E-008
 -0.11340000000000000          5.4658176651400936E-008
 -0.11230000000000000          1.2594773579621688E-007
 -0.11119999999999999         -5.2622109336653011E-008
 -0.11009999999999999         -3.1760373531142250E-007
 -0.10900000000000000         -1.0819401552453201E-007
 -0.10790000000000000          5.4488799605678651E-007
 -0.10679999999999999          5.8939764358001412E-007
 -0.10569999999999999         -5.1740300932578975E-007
 -0.10460000000000000         -1.3211156328907236E-006
 -0.10349999999999999         -8.3327208244554640E-008
 -0.10239999999999999          1.9580500065785600E-006
 -0.10130000000000000          1.4124528888714849E-006
 -0.10020000000000000         -1.9452718333923258E-006
  -9.9099999999999994E-002    -3.3329806683468632E-006
  -9.7999999999999990E-002     5.4441835573015851E-007
  -9.6899999999999986E-002     5.1065871957689524E-006
  -9.5799999999999996E-002     2.9420932605717098E-006
  -9.4699999999999993E-002    -4.6294330786622595E-006
  -9.3599999999999989E-002    -7.1327790465147700E-006
  -9.2499999999999999E-002     5.5258072961805738E-007
  -9.1399999999999995E-002     8.8268207036890090E-006
  -9.0299999999999991E-002     5.4045594879426062E-006
  -8.9200000000000002E-002    -6.2548074311052915E-006
  -8.8099999999999984E-002    -1.0009001925936900E-005
  -8.6999999999999994E-002     1.3862987202628574E-007
  -8.5899999999999990E-002     1.0309049685020000E-005
  -8.4799999999999986E-002     6.2049325606494676E-006
  -8.3699999999999997E-002    -5.8799741964321584E-006
  -8.2599999999999993E-002    -8.4263156168162823E-006
  -8.1499999999999989E-002     9.7220129191555316E-007
  -8.0399999999999999E-002     6.6569555201567709E-006
  -7.9299999999999995E-002     2.2716081105045305E-007
  -7.8199999999999992E-002    -5.9926424000877887E-006
  -7.7100000000000002E-002     1.4306202444913652E-007
  -7.5999999999999984E-002     8.6112077042344026E-006
  -7.4899999999999994E-002     2.1688888409698848E-006
  -7.3799999999999991E-002    -1.2870443242718466E-005
  -7.2699999999999987E-002    -1.1679435374389868E-005
  -7.1599999999999997E-002     9.8756727311410941E-006
  -7.0499999999999993E-002     2.2379856090992689E-005
  -6.9399999999999989E-002     3.4231725294375792E-006
  -6.8300000000000000E-002    -2.5092467694776133E-005
  -6.7199999999999996E-002    -2.3284343114937656E-005
  -6.6099999999999992E-002     9.1068604888278060E-006
  -6.5000000000000002E-002     2.8760743589373305E-005
  -6.3899999999999985E-002     8.8642791524762288E-006
  -6.2799999999999995E-002    -2.2659502064925618E-005
  -6.1699999999999991E-002    -2.3610760763403960E-005
  -6.0599999999999994E-002     2.6589777917251922E-006
  -5.9499999999999990E-002     1.6138999853865243E-005
  -5.8399999999999994E-002     1.5832316648811684E-006
  -5.7299999999999990E-002    -1.2537260772660375E-005
  -5.6199999999999986E-002    -4.1047269405680709E-006
  -5.5099999999999996E-002     6.2183626141631976E-006
  -5.3999999999999992E-002    -7.8824987213010900E-006
  -5.2899999999999989E-002    -2.8482154448283836E-005
  -5.1799999999999985E-002    -1.7078587916330434E-005
  -5.0699999999999995E-002     1.9314196833875030E-005
  -4.9599999999999991E-002     2.7491787477629259E-005
  -4.8499999999999988E-002    -1.4166172149998602E-005
  -4.7399999999999998E-002    -5.4577194532612339E-005
  -4.6299999999999994E-002    -3.6872588680125773E-005
  -4.5199999999999990E-002     1.7810378267313354E-005
  -4.4099999999999986E-002     3.5681048757396638E-005
  -4.2999999999999997E-002    -6.5744025050662458E-006
  -4.1899999999999993E-002    -5.0297057896386832E-005
  -4.0799999999999989E-002    -4.0457980503560975E-005
  -3.9699999999999985E-002    -1.0474327609699685E-006
  -3.8599999999999995E-002     8.3113245636923239E-006
  -3.7499999999999992E-002    -1.7158261471195146E-005
  -3.6399999999999988E-002    -2.8495307560660876E-005
  -3.5299999999999984E-002    -7.6676124081132002E-006
  -3.4199999999999994E-002     3.2100685984914890E-006
  -3.3099999999999991E-002    -2.4622455384815112E-005
  -3.1999999999999987E-002    -5.0716123951133341E-005
  -3.0899999999999997E-002    -2.4377164663746953E-005
  -2.9799999999999993E-002     2.8383572498569265E-005
  -2.8699999999999989E-002     3.2647694752085954E-005
  -2.7599999999999986E-002    -2.3627406335435808E-005
  -2.6499999999999996E-002    -6.3681320170871913E-005
  -2.5399999999999992E-002    -2.8859094527433626E-005
  -2.4299999999999988E-002     3.6081873986404389E-005
  -2.3199999999999985E-002     4.6894601837266237E-005
  -2.2099999999999995E-002    -1.1764801399749558E-007
  -2.0999999999999991E-002    -2.9158278266550042E-005
  -1.9899999999999987E-002     9.6611461231077556E-007
  -1.8799999999999983E-002     4.1176219383487478E-005
  -1.7699999999999994E-002     3.4850039810407907E-005
  -1.6599999999999990E-002     7.0544574555242434E-006
  -1.5499999999999986E-002     1.8682783775147982E-005
  -1.4399999999999996E-002     6.3179460994433612E-005
  -1.3299999999999992E-002     7.3822877311613411E-005
  -1.2199999999999989E-002     3.1456682336283848E-005
  -1.1099999999999985E-002     3.1805607250134926E-006
  -9.9999999999999950E-003     4.3204694520682096E-005
  -8.8999999999999913E-003     1.0515828034840524E-004
  -7.7999999999999875E-003     1.0596798529149964E-004
  -6.6999999999999837E-003     4.8303230869350955E-005
  -5.5999999999999939E-003     1.8246990293846466E-005
  -4.4999999999999901E-003     5.7291730627184734E-005
  -3.3999999999999864E-003     1.0492667206563056E-004
  -2.2999999999999826E-003     9.4316375907510519E-005
  -1.1999999999999927E-003     4.9694415793055668E-005
  -9.9999999999988987E-005     4.1392177081434056E-005
   1.0000000000000148E-003     7.3138551670126617E-005
   2.1000000000000185E-003     8.2575345004443079E-005
   3.2000000000000084E-003     4.5174685510573909E-005
   4.3000000000000121E-003     1.3098494491714519E-005
   5.4000000000000159E-003     3.1729345209896564E-005
   6.5000000000000058E-003     6.4215077145490795E-005
   7.6000000000000234E-003     4.5850734750274569E-005
   8.7000000000000133E-003    -1.3286241483001504E-005
   9.8000000000000032E-003    -3.9904585719341412E-005
   1.0900000000000021E-002    -8.8664610302657820E-006
   1.2000000000000011E-002     1.8361517504672520E-005
   1.3100000000000001E-002    -1.2379183317534626E-005
   1.4200000000000018E-002    -6.7749882873613387E-005
   1.5300000000000008E-002    -8.0579840869177133E-005
   1.6400000000000026E-002    -5.1567494665505365E-005
   1.7500000000000016E-002    -4.2511634092079476E-005
   1.8600000000000005E-002    -7.8140525147318840E-005
   1.9700000000000023E-002    -1.1161620932398364E-004
   2.0800000000000013E-002    -1.0099720384459943E-004
   2.1900000000000003E-002    -7.3912669904530048E-005
   2.3000000000000020E-002    -8.1696096458472311E-005
   2.4100000000000010E-002    -1.1696341243805364E-004
   2.5200000000000000E-002    -1.2598870671354234E-004
   2.6300000000000018E-002    -9.4793198513798416E-005
   2.7400000000000008E-002    -7.0629583206027746E-005
   2.8500000000000025E-002    -8.7833563156891614E-005
   2.9600000000000015E-002    -1.1459863162599504E-004
   3.0700000000000005E-002    -1.0266118624713272E-004
   3.1800000000000023E-002    -6.0868260334245861E-005
   3.2900000000000013E-002    -4.0446808270644397E-005
   3.4000000000000002E-002    -5.7123375881928951E-005
   3.5100000000000020E-002    -6.9921778049319983E-005
   3.6200000000000010E-002    -4.5605171180795878E-005
   3.7300000000000028E-002    -9.9242961368872784E-006
   3.8400000000000017E-002    -3.7055190205137478E-006
   3.9500000000000007E-002    -1.6643296476104297E-005
   4.0600000000000025E-002    -8.8636406871955842E-006
   4.1700000000000015E-002     2.3221547962748446E-005
   4.2800000000000005E-002     3.9967155316844583E-005
   4.3900000000000022E-002     2.5305042072432116E-005
   4.5000000000000012E-002     1.6897916793823242E-005
   4.6100000000000002E-002     4.1755978600122035E-005
   4.7200000000000020E-002     7.2125352744478732E-005
   4.8300000000000010E-002     7.1622765972279012E-005
   4.9400000000000027E-002     4.8939160478767008E-005
   5.0500000000000017E-002     4.2799387301784009E-005
   5.1600000000000007E-002     6.2699014961253852E-005
   5.2700000000000025E-002     7.7056531154084951E-005
   5.3800000000000014E-002     6.4348772866651416E-005
   5.4900000000000004E-002     4.7398072638316080E-005
   5.6000000000000022E-002     5.2764575229957700E-005
   5.7100000000000012E-002     6.5375366830267012E-005
   5.8200000000000002E-002     5.5777047236915678E-005
   5.9300000000000019E-002     3.0825540306977928E-005
   6.0400000000000009E-002     2.4626935555716045E-005
   6.1500000000000027E-002     4.3591568100964651E-005
   6.2600000000000017E-002     5.3289284551283345E-005
   6.3700000000000007E-002     3.0858664104016498E-005
   6.4800000000000024E-002     2.1906498659518547E-006
   6.5900000000000014E-002     9.5896928087313427E-007
   6.7000000000000004E-002     1.7422968085156754E-005
   6.8100000000000022E-002     1.6403913832618855E-005
   6.9200000000000012E-002    -4.4768735278921667E-006
   7.0300000000000029E-002    -1.1837411875603721E-005
   7.1400000000000019E-002     4.5064603000355419E-006
   7.2500000000000009E-002     1.0447272870806046E-005
   7.3600000000000027E-002    -1.6185047570616007E-005
   7.4700000000000016E-002    -4.2360377847217023E-005
   7.5800000000000006E-002    -2.6956411602441221E-005
   7.6900000000000024E-002     1.0870609912672080E-005
   7.8000000000000014E-002     1.4379593267221935E-005
   7.9100000000000004E-002    -2.4953302272479050E-005
   8.0200000000000021E-002    -5.1564569730544463E-005
   8.1300000000000011E-002    -2.8511845812317915E-005
   8.2400000000000029E-002     7.3895262175938115E-006
   8.3500000000000019E-002     4.0094914766086731E-006
   8.4600000000000009E-002    -2.5713732611620799E-005
   8.5700000000000026E-002    -2.8327673135208897E-005
   8.6800000000000016E-002     1.0039395874628099E-006
   8.7900000000000006E-002     1.0329162250855006E-005
   8.9000000000000024E-002    -2.1593035853584297E-005
   9.0100000000000013E-002    -4.3883610487682745E-005
   9.1200000000000003E-002    -1.1509578143886756E-005
   9.2300000000000021E-002     3.6251243727747351E-005
   9.3400000000000011E-002     2.8611008019652218E-005
   9.4500000000000028E-002    -2.7085159672424197E-005
   9.5600000000000018E-002    -5.0557970098452643E-005
   9.6700000000000008E-002    -7.0472251536557451E-006
   9.7800000000000026E-002     3.9536269468953833E-005
   9.8900000000000016E-002     2.2947435354581103E-005
  0.10000000000000001         -2.4920638679759577E-005
  0.10110000000000002         -2.6759396860143170E-005
  0.10220000000000001          1.8173728676629253E-005
  0.10330000000000003          3.4448836231604218E-005
  0.10440000000000002         -7.7537515608128160E-006
  0.10550000000000001         -4.1107221477432176E-005
  0.10660000000000003         -6.3456413954554591E-006
  0.10770000000000002          4.8897585656959563E-005
  0.10880000000000001          3.7883295590290800E-005
  0.10990000000000003         -2.9096239813952707E-005
  0.11100000000000002         -5.4035390348872170E-005
  0.11210000000000001          1.0665107765817083E-006
  0.11320000000000002          5.4684831411577761E-005
  0.11430000000000001          2.8766795367118903E-005
  0.11540000000000003         -3.3491236536065117E-005
  0.11650000000000002         -3.6145542253507301E-005
  0.11760000000000001          2.0781732018804178E-005
  0.11870000000000003          4.3441985326353461E-005
  0.11980000000000002         -6.2330032051249873E-006
  0.12090000000000001         -4.8693415010347962E-005
  0.12200000000000003         -1.1717183951986954E-005
  0.12310000000000001          5.2089497330598533E-005
  0.12420000000000003          4.2425501305842772E-005
  0.12530000000000002         -3.1989122362574562E-005
  0.12640000000000001         -6.1569953686557710E-005
  0.12750000000000003         -1.5428274764417438E-006
  0.12860000000000002          5.8407935284776613E-005
  0.12970000000000001          3.0098282877588645E-005
  0.13080000000000003         -3.9594862755620852E-005
  0.13190000000000002         -4.2949584894813597E-005
  0.13300000000000001          2.2039997929823585E-005
  0.13410000000000000          5.0462826038710773E-005
  0.13520000000000004         -3.9245287553058006E-006
  0.13630000000000003         -5.5158852774184197E-005
  0.13740000000000002         -1.9584980691433884E-005
  0.13850000000000001          5.1068149332422763E-005
  0.13960000000000000          4.6690689487149939E-005
  0.14070000000000005         -3.0530220101354644E-005
  0.14180000000000004         -6.5840089519042522E-005
  0.14290000000000003         -5.6140174820029642E-006
  0.14400000000000002          6.0765196394640952E-005
  0.14510000000000001          3.6684785300167277E-005
  0.14620000000000000         -3.6836478102486581E-005
  0.14730000000000004         -4.7829340473981574E-005
  0.14840000000000003          1.4389035641215742E-005
  0.14950000000000002          4.7609730245312676E-005
  0.15060000000000001         -4.0517784327676054E-007
  0.15170000000000000         -5.0498572818469256E-005
  0.15280000000000005         -1.8486036424292251E-005
  0.15390000000000004          4.9407692131353542E-005
  0.15500000000000003          4.5749326091026887E-005
  0.15610000000000002         -2.9882372473366559E-005
  0.15720000000000001         -6.5514024754520506E-005
  0.15830000000000000         -5.9749550018750597E-006
  0.15940000000000004          6.2047765823081136E-005
  0.16050000000000003          3.9871662011137232E-005
  0.16160000000000002         -3.6299628845881671E-005
  0.16270000000000001         -5.3426865633809939E-005
  0.16380000000000000          7.5899124567513354E-006
  0.16490000000000005          4.9004265747498721E-005
  0.16600000000000004          1.0190939974563662E-005
  0.16710000000000003         -4.2158346332143992E-005
  0.16820000000000002         -2.3160579075920396E-005
  0.16930000000000001          3.6380428355187178E-005
  0.17040000000000000          3.9814440242480487E-005
  0.17150000000000004         -2.2063173673814163E-005
  0.17260000000000003         -5.4591302614426240E-005
  0.17370000000000002         -5.4707065828552004E-006
  0.17480000000000001          5.3176761866779998E-005
  0.17590000000000000          3.3885222364915535E-005
  0.17700000000000005         -3.3591593819437549E-005
  0.17810000000000004         -4.8732075811130926E-005
  0.17920000000000003          7.6383266787161119E-006
  0.18030000000000002          4.7946043196134269E-005
  0.18140000000000001          1.3655182556249201E-005
  0.18250000000000000         -3.8339043385349214E-005
  0.18360000000000004         -2.7616326406132430E-005
  0.18470000000000003          2.6069568775710650E-005
  0.18580000000000002          3.7044912460260093E-005
  0.18690000000000001         -1.1834059478132986E-005
  0.18800000000000000         -4.3869273213203996E-005
  0.18910000000000005         -8.6127420217962936E-006
  0.19020000000000004          4.0495287976227701E-005
  0.19130000000000003          2.9207378247519955E-005
  0.19240000000000002         -2.4177044906537049E-005
  0.19350000000000001         -3.8717709685442969E-005
  0.19460000000000005          5.1927822823927272E-006
  0.19570000000000004          3.8653222873108461E-005
  0.19680000000000003          1.1794993042713031E-005
  0.19790000000000002         -3.1798939744476229E-005
  0.19900000000000001         -2.5183611796819605E-005
  0.20010000000000000          1.9360348233021796E-005
  0.20120000000000005          3.2153031497728080E-005
  0.20230000000000004         -5.5940013226063456E-006
  0.20340000000000003         -3.4779830457409844E-005
  0.20450000000000002         -1.0838170965143945E-005
  0.20560000000000000          2.9057493520667776E-005
  0.20670000000000005          2.4965913326013833E-005
  0.20780000000000004         -1.4837369235465303E-005
  0.20890000000000003         -2.9486294806702062E-005
