 -0.12000000000000000          0.0000000000000000
 -0.11889999999999999          0.0000000000000000
 -0.11780000000000000          0.0000000000000000
 -0.11670000000000000          0.0000000000000000
 -0.11559999999999999          0.0000000000000000
 -0.11449999999999999          0.0000000000000000
 -0.11340000000000000          0.0000000000000000
 -0.11230000000000000          4.5173334915543855E-021
 -0.11119999999999999         -2.1335217507987356E-021
 -0.11009999999999999         -5.0255093159369238E-020
 -0.10900000000000000          6.3247356507830386E-021
 -0.10790000000000000          3.2296866351523760E-019
 -0.10679999999999999          1.0674545438911759E-019
 -0.10569999999999999         -1.4623046727246917E-018
 -0.10460000000000000         -1.2596291892296786E-018
 -0.10349999999999999          4.7662452952132099E-018
 -0.10239999999999999          7.2483702952041428E-018
 -0.10130000000000000         -1.0592413357572268E-017
 -0.10020000000000000         -2.7792534045397783E-017
  -9.9099999999999994E-002     1.2570429676855009E-017
  -9.7999999999999990E-002     7.9820454186974412E-017
  -9.6899999999999986E-002     1.2145893289532581E-017
  -9.5799999999999996E-002    -1.8955652388419461E-016
  -9.4699999999999993E-002    -1.2844021153382026E-016
  -9.3599999999999989E-002     3.9215269647489555E-016
  -9.2499999999999999E-002     5.3948957778724880E-016
  -9.1399999999999995E-002    -6.0574322437205929E-016
  -9.0299999999999991E-002    -1.6980234441964096E-015
  -8.9200000000000002E-002     1.2997053537171276E-016
  -8.8099999999999984E-002     3.8443733805615214E-015
  -8.6999999999999994E-002     2.7951615038523817E-015
  -8.5899999999999990E-002    -5.4412934898660000E-015
  -8.4799999999999986E-002    -9.5917477316320200E-015
  -8.3699999999999997E-002     2.5227923421903675E-015
  -8.2599999999999993E-002     1.8417181367751286E-014
  -8.1499999999999989E-002     8.2132532789854287E-015
  -8.0399999999999999E-002    -2.5318133277819205E-014
  -7.9299999999999995E-002    -2.8646847399652411E-014
  -7.8199999999999992E-002     2.6885403422321520E-014
  -7.7100000000000002E-002     6.7104504732854592E-014
  -7.5999999999999984E-002    -4.8577093885479421E-015
  -7.4899999999999994E-002    -1.2584730349832207E-013
  -7.3799999999999991E-002    -8.8558866728587204E-014
  -7.2699999999999987E-002     1.4607451804139054E-013
  -7.1599999999999997E-002     2.6607240174135460E-013
  -7.0499999999999993E-002    -1.4646061937567158E-014
  -6.9399999999999989E-002    -4.1285182737771375E-013
  -6.8300000000000000E-002    -2.8991471224572296E-013
  -6.7199999999999996E-002     3.7689420811712337E-013
  -6.6099999999999992E-002     6.6022832817189125E-013
  -6.5000000000000002E-002    -1.0487629238361065E-013
  -6.3899999999999985E-002    -1.0222468488016445E-012
  -6.2799999999999995E-002    -5.2546741914280548E-013
  -6.1699999999999991E-002     1.1612622755757807E-012
  -6.0599999999999994E-002     1.6429044539731374E-012
  -5.9499999999999990E-002    -4.3080418247500030E-013
  -5.8399999999999994E-002    -2.6582672695008025E-012
  -5.7299999999999990E-002    -1.4798652754610675E-012
  -5.6199999999999986E-002     2.3741798457765917E-012
  -5.5099999999999996E-002     3.6569909427075498E-012
  -5.3999999999999992E-002    -3.4669578948161306E-013
  -5.2899999999999989E-002    -4.7691737711796911E-012
  -5.1799999999999985E-002    -2.8353886079302004E-012
  -5.0699999999999995E-002     3.9462586844118963E-012
  -4.9599999999999991E-002     6.1617785526713043E-012
  -4.8499999999999988E-002    -6.3211648372238360E-013
  -4.7399999999999998E-002    -7.9608420550103531E-012
  -4.6299999999999994E-002    -4.8449256759286463E-012
  -4.5199999999999990E-002     5.9952862986600852E-012
  -4.4099999999999986E-002     1.0003385272905341E-011
  -4.2999999999999997E-002     7.0882725687268500E-013
  -4.1899999999999993E-002    -9.9523349630925573E-012
  -4.0799999999999989E-002    -7.5309905880893702E-012
  -3.9699999999999985E-002     4.1720498583641685E-012
  -3.8599999999999995E-002     8.2179818505778712E-012
  -3.7499999999999992E-002    -6.3598269445935829E-013
  -3.6399999999999988E-002    -8.0507935387719165E-012
  -3.5299999999999984E-002    -1.8638081529520623E-012
  -3.4199999999999994E-002     9.1505874058595005E-012
  -3.3099999999999991E-002     8.9046964246719540E-012
  -3.1999999999999987E-002    -8.5740426260597080E-013
  -3.0899999999999997E-002    -4.3737322791281841E-012
  -2.9799999999999993E-002     6.2626911035562616E-013
  -2.8699999999999989E-002    -1.9755885295735798E-012
  -2.7599999999999986E-002    -1.6761519255892310E-011
  -2.6499999999999996E-002    -2.0914991960552243E-011
  -2.5399999999999992E-002     2.9933301930878953E-012
  -2.4299999999999988E-002     3.0769491121684922E-011
  -2.3199999999999985E-002     2.1645777184553516E-011
  -2.2099999999999995E-002    -1.9671181350489064E-011
  -2.0999999999999991E-002    -3.8416905073779262E-011
  -1.9899999999999987E-002    -5.0703156950770989E-012
  -1.8799999999999983E-002     3.2669807831231523E-011
  -1.7699999999999994E-002     9.1638484994716052E-012
  -1.6599999999999990E-002    -5.9870455815236312E-011
  -1.5499999999999986E-002    -8.4364626395938558E-011
  -1.4399999999999996E-002    -1.9511340459965609E-011
  -1.3299999999999992E-002     6.4552946321683180E-011
  -1.2199999999999989E-002     6.8653159546183673E-011
  -1.1099999999999985E-002    -7.4405100136676339E-012
  -9.9999999999999950E-003    -7.1619932207056536E-011
  -8.8999999999999913E-003    -6.8231240102356594E-011
  -7.7999999999999875E-003    -4.3076247430162695E-011
  -6.6999999999999837E-003    -6.1485240510084083E-011
  -5.5999999999999939E-003    -1.1013417955396676E-010
  -4.4999999999999901E-003    -1.2987949604692517E-010
  -3.3999999999999864E-003    -1.1055183851693684E-010
  -2.2999999999999826E-003    -9.1334342866566942E-011
  -1.1999999999999927E-003    -8.0782311395743989E-011
  -9.9999999999988987E-005    -4.9379743349842187E-011
   1.0000000000000148E-003    -2.2345549022251276E-011
   2.1000000000000185E-003    -9.6198236876343657E-011
   3.2000000000000084E-003    -3.0250302263112872E-010
   4.3000000000000121E-003    -5.0012022301260117E-010
   5.4000000000000159E-003    -5.1999715644512889E-010
   6.5000000000000058E-003    -3.9104722238114675E-010
   7.6000000000000234E-003    -3.2923383463945299E-010
   8.7000000000000133E-003    -4.5475015419960130E-010
   9.8000000000000032E-003    -6.2018085111859023E-010
   1.0900000000000021E-002    -6.0939825408112824E-010
   1.2000000000000011E-002    -4.5664702574832461E-010
   1.3100000000000001E-002    -4.5022660599691733E-010
   1.4200000000000018E-002    -7.3798867017416114E-010
   1.5300000000000008E-002    -1.1835172841756503E-009
   1.6400000000000026E-002    -1.4843363205230276E-009
   1.7500000000000016E-002    -1.5499036498667351E-009
   1.8600000000000005E-002    -1.5364279848384399E-009
   1.9700000000000023E-002    -1.5581842482959019E-009
   2.0800000000000013E-002    -1.6223479226695758E-009
   2.1900000000000003E-002    -1.6470708130711387E-009
   2.3000000000000020E-002    -1.7260270990249182E-009
   2.4100000000000010E-002    -1.9052603938973789E-009
   2.5200000000000000E-002    -2.0912875875467307E-009
   2.6300000000000018E-002    -2.2286941181448583E-009
   2.7400000000000008E-002    -2.5334545572519573E-009
   2.8500000000000025E-002    -2.9582163385555305E-009
   2.9600000000000015E-002    -3.3718199343724109E-009
   3.0700000000000005E-002    -3.4497402712219127E-009
   3.1800000000000023E-002    -3.2800213656258848E-009
   3.2900000000000013E-002    -2.9321689520855898E-009
   3.4000000000000002E-002    -2.8103130933487819E-009
   3.5100000000000020E-002    -2.9567772674710113E-009
   3.6200000000000010E-002    -3.0523368277357577E-009
   3.7300000000000028E-002    -2.9170381665721834E-009
   3.8400000000000017E-002    -2.6438757849689409E-009
   3.9500000000000007E-002    -2.4881106064356118E-009
   4.0600000000000025E-002    -2.6359618932048079E-009
   4.1700000000000015E-002    -2.9472864149227007E-009
   4.2800000000000005E-002    -2.7476267927539766E-009
   4.3900000000000022E-002    -1.8081537378478174E-009
   4.5000000000000012E-002    -6.4562211132823677E-010
   4.6100000000000002E-002    -2.6172772282784251E-010
   4.7200000000000020E-002    -3.2851274478495895E-010
   4.8300000000000010E-002     1.0862556409918511E-009
   4.9400000000000027E-002     2.7954201176072502E-009
   5.0500000000000017E-002     3.5061482606124628E-009
   5.1600000000000007E-002     3.1715248205443913E-009
   5.2700000000000025E-002     3.0662730132746674E-009
   5.3800000000000014E-002     4.3984842434952043E-009
   5.4900000000000004E-002     6.6453278435574248E-009
   5.6000000000000022E-002     7.5182109426918942E-009
   5.7100000000000012E-002     8.3077003054654597E-009
   5.8200000000000002E-002     9.0135241492816931E-009
   5.9300000000000019E-002     9.8931991487916093E-009
   6.0400000000000009E-002     1.0728012256322472E-008
   6.1500000000000027E-002     1.2135139115798665E-008
   6.2600000000000017E-002     1.3221500339000158E-008
   6.3700000000000007E-002     1.4125498992711982E-008
   6.4800000000000024E-002     1.4791004865344348E-008
   6.5900000000000014E-002     1.4105084211735175E-008
   6.7000000000000004E-002     1.2740399846222772E-008
   6.8100000000000022E-002     1.3593493441987903E-008
   6.9200000000000012E-002     1.5538514475110787E-008
   7.0300000000000029E-002     1.6526072954547999E-008
   7.1400000000000019E-002     1.5004037123844682E-008
   7.2500000000000009E-002     1.0892104995718910E-008
   7.3600000000000027E-002     7.7017396904466295E-009
   7.4700000000000016E-002     7.9557320731282744E-009
   7.5800000000000006E-002     1.1286227952211902E-008
   7.6900000000000024E-002     1.2958214945513191E-008
   7.8000000000000014E-002     1.0206379741362070E-008
   7.9100000000000004E-002     4.1074121881479186E-009
   8.0200000000000021E-002    -1.2252762138231788E-009
   8.1300000000000011E-002    -4.1403884765145449E-009
   8.2400000000000029E-002    -2.7338251662456514E-009
   8.3500000000000019E-002     1.0791660898235023E-009
   8.4600000000000009E-002     9.0636437244384638E-010
   8.5700000000000026E-002    -6.0664353540573757E-009
   8.6800000000000016E-002    -1.5059651303772625E-008
   8.7900000000000006E-002    -1.9268963313834320E-008
   8.9000000000000024E-002    -1.6272450054088949E-008
   9.0100000000000013E-002    -1.0561922891838549E-008
   9.1200000000000003E-002    -9.1631653376111899E-009
   9.2300000000000021E-002    -1.5455423607591001E-008
   9.3400000000000011E-002    -2.4195239589630546E-008
   9.4500000000000028E-002    -2.8438650545581368E-008
   9.5600000000000018E-002    -2.5098179534666087E-008
   9.6700000000000008E-002    -1.7451043277105782E-008
   9.7800000000000026E-002    -1.2013519956610708E-008
   9.8900000000000016E-002    -1.3576720192531866E-008
  0.10000000000000001         -2.1765048430211209E-008
  0.10110000000000002         -2.9722688310584999E-008
  0.10220000000000001         -2.8692033637867098E-008
  0.10330000000000003         -1.7221937653744135E-008
  0.10440000000000002         -3.8500647114858566E-009
  0.10550000000000001         -4.4554777645089416E-009
  0.10660000000000003         -1.5480404513823487E-008
  0.10770000000000002         -2.2164057256190972E-008
  0.10880000000000001         -1.7343099401045947E-008
  0.10990000000000003         -4.8252570827855834E-009
  0.11100000000000002          4.1826910823772323E-009
  0.11210000000000001          4.6438861645015095E-009
  0.11320000000000002          6.9384920031723141E-010
  0.11430000000000001         -2.6120390295147899E-009
  0.11540000000000003         -3.2358182799896440E-009
  0.11650000000000002         -1.1368928021227021E-009
  0.11760000000000001          7.9690938292742430E-009
  0.11870000000000003          1.7791956352652960E-008
  0.11980000000000002          1.8673242507816212E-008
  0.12090000000000001          8.0478725905663850E-009
  0.12200000000000003         -1.7533137164349455E-009
  0.12310000000000001          2.1041954845202326E-009
  0.12420000000000003          1.7208472868901481E-008
  0.12530000000000002          2.7319146056470345E-008
  0.12640000000000001          2.1336605371402584E-008
  0.12750000000000003          6.5358407574933608E-009
  0.12860000000000002         -1.4032609796377216E-010
  0.12970000000000001          6.5380172387108360E-009
  0.13080000000000003          1.6081521891919692E-008
  0.13190000000000002          1.9222460068135661E-008
  0.13300000000000001          1.5875359693495739E-008
  0.13410000000000000          1.1275809619348820E-008
  0.13520000000000004          5.1348947316398608E-009
  0.13630000000000003         -2.0655663846014249E-009
  0.13740000000000002         -3.4956348926584724E-009
  0.13850000000000001          5.9941873686852887E-009
  0.13960000000000000          1.7749897551766480E-008
  0.14070000000000005          1.6681182657407589E-008
  0.14180000000000004          1.1490128848379300E-009
  0.14290000000000003         -1.2226874623877393E-008
  0.14400000000000002         -8.4669515842961118E-009
  0.14510000000000001          6.2523781707568560E-009
  0.14620000000000000          1.3336275195285907E-008
  0.14730000000000004          4.9899564480426761E-009
  0.14840000000000003         -7.1545414037643695E-009
  0.14950000000000002         -1.0977478481777325E-008
  0.15060000000000001         -7.3054704508024315E-009
  0.15170000000000000         -3.8726328810412269E-009
  0.15280000000000005         -1.3804801746175599E-010
  0.15390000000000004          6.3565228636264237E-009
  0.15500000000000003          9.5909138408956096E-009
  0.15610000000000002          8.3425960584193604E-010
  0.15720000000000001         -1.4802540526659413E-008
  0.15830000000000000         -1.9654319061146452E-008
  0.15940000000000004         -5.5291504708065986E-009
  0.16050000000000003          1.1887375528374378E-008
  0.16160000000000002          1.1743181538292902E-008
  0.16270000000000001         -4.8011750131138342E-009
  0.16380000000000000         -1.6996258622725691E-008
  0.16490000000000005         -1.1746475792051569E-008
  0.16600000000000004          1.5214390858275806E-009
  0.16710000000000003          7.1668808665492634E-009
  0.16820000000000002          3.8681049474575957E-009
  0.16930000000000001          5.9675203667453047E-010
  0.17040000000000000         -3.6257979951770380E-010
  0.17150000000000004         -4.7272896708250300E-009
  0.17260000000000003         -1.1094018148583018E-008
  0.17370000000000002         -8.4843705394632707E-009
  0.17480000000000001          5.7145967957694666E-009
  0.17590000000000000          1.5820276644262776E-008
  0.17700000000000005          6.9624626064523909E-009
  0.17810000000000004         -1.2058848142260103E-008
  0.17920000000000003         -1.7770062754607352E-008
  0.18030000000000002         -3.1189022475786032E-009
  0.18140000000000001          1.2911883118249534E-008
  0.18250000000000000          1.1306211078476736E-008
  0.18360000000000004         -2.1903325819749853E-009
  0.18470000000000003         -8.6931342124785260E-009
  0.18580000000000002         -3.1377782594432801E-009
  0.18690000000000001          1.6562786697704723E-009
  0.18800000000000000         -1.0504367375929746E-009
  0.18910000000000005         -2.7271365166114947E-009
  0.19020000000000004          3.7227545490736702E-009
  0.19130000000000003          8.3301241460276287E-009
  0.19240000000000002          4.4695488976564945E-010
  0.19350000000000001         -1.2670978932760590E-008
  0.19460000000000005         -1.1280671508018258E-008
  0.19570000000000004          5.7222080407370868E-009
  0.19680000000000003          1.6341175523848506E-008
  0.19790000000000002          5.8008891024030618E-009
  0.19900000000000001         -1.2083908096371943E-008
  0.20010000000000000         -1.3708312707194636E-008
  0.20120000000000005          6.2363814112842419E-010
  0.20230000000000004          9.6999555054821940E-009
  0.20340000000000003          2.9783484567502683E-009
  0.20450000000000002         -5.7362390393222995E-009
  0.20560000000000000         -2.9951794378035856E-009
  0.20670000000000005          4.6131307662733434E-009
  0.20780000000000004          2.6271456121662595E-009
  0.20890000000000003         -7.0631469561988069E-009
