 -0.12000000000000000          0.0000000000000000     
 -0.11889999999999999          0.0000000000000000     
 -0.11780000000000000          0.0000000000000000     
 -0.11670000000000000          0.0000000000000000     
 -0.11559999999999999          0.0000000000000000     
 -0.11449999999999999          0.0000000000000000     
 -0.11340000000000000          3.7333362550224288E-015
 -0.11230000000000000         -9.2299443844759237E-015
 -0.11119999999999999         -3.4273256975525523E-014
 -0.11009999999999999          8.6530195714858843E-014
 -0.10900000000000000          2.1492883698921023E-013
 -0.10790000000000000         -4.4038652390575306E-013
 -0.10679999999999999         -1.1180390380866045E-012
 -0.10569999999999999          1.4642402958522927E-012
 -0.10460000000000000          4.8125605063564780E-012
 -0.10349999999999999         -2.9287334276512089E-012
 -0.10239999999999999         -1.6795792187607184E-011
 -0.10130000000000000          5.2947647351600513E-013
 -0.10020000000000000          4.7572848438370841E-011
  -9.9099999999999994E-002     2.2220674952833086E-011
  -9.7999999999999990E-002    -1.1150799034131964E-010
  -9.6899999999999986E-002    -1.1076689565570064E-010
  -9.5799999999999996E-002     2.1720597542795872E-010
  -9.4699999999999993E-002     3.7973210686992331E-010
  -9.3599999999999989E-002    -3.0847485676943620E-010
  -9.2499999999999999E-002    -1.0682408291273759E-009
  -9.1399999999999995E-002     4.3761137075160050E-011
  -9.0299999999999991E-002     2.4134534371000882E-009
  -8.9200000000000002E-002     1.5590159163636486E-009
  -8.8099999999999984E-002    -3.9368810433870749E-009
  -8.6999999999999994E-002    -5.9398628238227502E-009
  -8.5899999999999990E-002     3.3768705609560357E-009
  -8.4799999999999986E-002     1.3442152280163100E-008
  -8.3699999999999997E-002     3.1238340802985931E-009
  -8.2599999999999993E-002    -2.1568911989788830E-008
  -8.1499999999999989E-002    -1.9278900253993925E-008
  -8.0399999999999999E-002     2.4960971956033973E-008
  -7.9299999999999995E-002     4.8645460992702283E-008
  -7.8199999999999992E-002    -1.2655534398220425E-008
  -7.7100000000000002E-002    -9.2711943011636322E-008
  -7.5999999999999984E-002    -4.0518433053193803E-008
  -7.4899999999999994E-002     1.3080824601274799E-007
  -7.3799999999999991E-002     1.6309513739543036E-007
  -7.2699999999999987E-002    -9.4740293832273892E-008
  -7.1599999999999997E-002    -3.3117052566922212E-007
  -7.0499999999999993E-002    -9.7096098272686504E-008
  -6.9399999999999989E-002     4.3069621824542992E-007
  -6.8300000000000000E-002     4.4948012600798393E-007
  -6.7199999999999996E-002    -3.1692158586338337E-007
  -6.6099999999999992E-002    -8.6647878561052494E-007
  -6.5000000000000002E-002    -1.2583930697473988E-007
  -6.3899999999999985E-002     1.1687210417221650E-006
  -6.2799999999999995E-002     9.8342968612996629E-007
  -6.1699999999999991E-002    -9.9593989943969063E-007
  -6.0599999999999994E-002    -2.1118626136740204E-006
  -5.9499999999999990E-002    -1.2706964014341793E-007
  -5.8399999999999994E-002     2.8147658213129034E-006
  -5.7299999999999990E-002     2.2112806163931964E-006
  -5.6199999999999986E-002    -2.1249970814096741E-006
  -5.5099999999999996E-002    -4.3690188249456696E-006
  -5.3999999999999992E-002    -3.4609038834787498E-007
  -5.2899999999999989E-002     5.2531436267599929E-006
  -5.1799999999999985E-002     4.0064765016722959E-006
  -5.0699999999999995E-002    -3.7736917875008658E-006
  -4.9599999999999991E-002    -7.4458152994338889E-006
  -4.8499999999999988E-002    -4.4196940507390536E-007
  -4.7399999999999998E-002     8.6319741967599839E-006
  -4.6299999999999994E-002     6.3836864683253225E-006
  -4.5199999999999990E-002    -5.6464418776158709E-006
  -4.4099999999999986E-002    -1.0993943760695402E-005
  -4.2999999999999997E-002    -1.1293523130007088E-006
  -4.1899999999999993E-002     1.0812151231220923E-005
  -4.0799999999999989E-002     7.6708201959263533E-006
  -3.9699999999999985E-002    -6.3285715441452339E-006
  -3.8599999999999995E-002    -1.0661295164027251E-005
  -3.7499999999999992E-002     1.1895479019585764E-006
  -3.6399999999999988E-002     1.1241524589422625E-005
  -3.5299999999999984E-002     3.9900824049254879E-006
  -3.4199999999999994E-002    -9.3060825747670606E-006
  -3.3099999999999991E-002    -7.8650973591720685E-006
  -3.1999999999999987E-002     5.1605884436867200E-006
  -3.0899999999999997E-002     7.0407036218966823E-006
  -2.9799999999999993E-002    -6.2840999817126431E-006
  -2.8699999999999989E-002    -1.0071394171973225E-005
  -2.7599999999999986E-002     8.7899097707122564E-006
  -2.6499999999999996E-002     2.3194244931801222E-005
  -2.5399999999999992E-002     3.1919826142257079E-006
  -2.4299999999999988E-002    -3.0491097277263179E-005
  -2.3199999999999985E-002    -2.6608264306560159E-005
  -2.2099999999999995E-002     1.8637671018950641E-005
  -2.0999999999999991E-002     4.3053642002632841E-005
  -1.9899999999999987E-002     3.6551180073729483E-006
  -1.8799999999999983E-002    -5.0571779866004363E-005
  -1.7699999999999994E-002    -3.7623947719112039E-005
  -1.6599999999999990E-002     3.6695015296572819E-005
  -1.5499999999999986E-002     7.3777795478235930E-005
  -1.4399999999999996E-002     1.5985202480806038E-005
  -1.3299999999999992E-002    -6.5968990384135395E-005
  -1.2199999999999989E-002    -6.6300381149630994E-005
  -1.1099999999999985E-002     9.8171940408064984E-006
  -9.9999999999999950E-003     5.5731175962137058E-005
  -8.8999999999999913E-003     1.7851978554972447E-005
  -7.7999999999999875E-003    -3.5733606637222692E-005
  -6.6999999999999837E-003    -2.5065894078579731E-005
  -5.5999999999999939E-003     2.3805820092093199E-005
  -4.4999999999999901E-003     3.2411760912509635E-005
  -3.3999999999999864E-003    -1.3634006279517052E-007
  -2.2999999999999826E-003    -7.2506386459281202E-006
  -1.1999999999999927E-003     1.7399746866431087E-005
  -9.9999999999988987E-005    -2.8953529636055464E-006
   1.0000000000000148E-003    -8.3343242295086384E-005
   2.1000000000000185E-003    -1.0970166476909071E-004
   3.2000000000000084E-003     5.1541373977670446E-006
   4.3000000000000121E-003     1.4571977953892201E-004
   5.4000000000000159E-003     1.2541022442746907E-004
   6.5000000000000058E-003    -5.2416704420465976E-005
   7.6000000000000234E-003    -1.5477705164812505E-004
   8.7000000000000133E-003    -3.8461839722003788E-005
   9.8000000000000032E-003     1.4643225586041808E-004
   1.0900000000000021E-002     1.1793216253863648E-004
   1.2000000000000011E-002    -1.1464875569799915E-004
   1.3100000000000001E-002    -2.5579050998203456E-004
   1.4200000000000018E-002    -1.1623086174950004E-004
   1.5300000000000008E-002     1.2206834071548656E-004
   1.6400000000000026E-002     1.8896274559665471E-004
   1.7500000000000016E-002     4.9624799430603161E-005
   1.8600000000000005E-002    -3.8901380321476609E-005
   1.9700000000000023E-002     1.7646374544710852E-005
   2.0800000000000013E-002     1.1827066373371053E-005
   2.1900000000000003E-002    -5.7677203585626557E-005
   2.3000000000000020E-002    -8.8185843196697533E-005
   2.4100000000000010E-002    -3.7034445995232090E-005
   2.5200000000000000E-002     5.6852295529097319E-005
   2.6300000000000018E-002    -2.3732540284981951E-005
   2.7400000000000008E-002    -1.1335779709042981E-004
   2.8500000000000025E-002    -8.4256200352683663E-005
   2.9600000000000015E-002     1.7115849186666310E-004
   3.0700000000000005E-002     2.6902527315542102E-004
   3.1800000000000023E-002     2.2755998361390084E-004
   3.2900000000000013E-002    -2.4716893676668406E-004
   3.4000000000000002E-002    -2.5060764164663851E-004
   3.5100000000000020E-002     2.1383166313171387E-004
   3.6200000000000010E-002     3.3145814086310565E-004
   3.7300000000000028E-002    -1.3253960059955716E-004
   3.8400000000000017E-002    -5.0044793169945478E-004
   3.9500000000000007E-002    -1.0859036410693079E-004
   4.0600000000000025E-002     5.7696079602465034E-004
   4.1700000000000015E-002     3.8112961919978261E-004
   4.2800000000000005E-002     3.4829401556635275E-005
   4.3900000000000022E-002    -1.4643663598690182E-004
   4.5000000000000012E-002    -1.1433394683990628E-004
   4.6100000000000002E-002    -1.5471912047360092E-004
   4.7200000000000020E-002     5.1508311571524246E-007
   4.8300000000000010E-002     6.9505412830039859E-004
   4.9400000000000027E-002     7.2056910721585155E-004
   5.0500000000000017E-002    -2.7348654111847281E-004
   5.1600000000000007E-002    -1.1934331851080060E-003
   5.2700000000000025E-002    -5.5009347852319479E-004
   5.3800000000000014E-002     7.1300455601885915E-004
   5.4900000000000004E-002     9.4749225536361337E-004
   5.6000000000000022E-002     6.1611010460183024E-004
   5.7100000000000012E-002    -1.1514243669807911E-003
   5.8200000000000002E-002    -9.9584716372191906E-004
   5.9300000000000019E-002    -2.6679794245865196E-005
   6.0400000000000009E-002     1.0825361823663116E-003
   6.1500000000000027E-002     1.6824797494336963E-003
   6.2600000000000017E-002    -7.1172608295455575E-004
   6.3700000000000007E-002    -1.7786683747544885E-003
   6.4800000000000024E-002    -4.0647402056492865E-004
   6.5900000000000014E-002     1.2910419900435954E-004
   6.7000000000000004E-002     2.0344110089354217E-004
   6.8100000000000022E-002    -1.0169904271606356E-004
   6.9200000000000012E-002     6.0655269771814346E-004
   7.0300000000000029E-002     1.4279560127761215E-004
   7.1400000000000019E-002    -1.4739662874490023E-003
   7.2500000000000009E-002    -1.5362259000539780E-003
   7.3600000000000027E-002     9.7867427393794060E-004
   7.4700000000000016E-002     2.8880699537694454E-003
   7.5800000000000006E-002     6.4885336905717850E-004
   7.6900000000000024E-002    -3.3227400854229927E-003
   7.8000000000000014E-002    -3.7086270749568939E-003
   7.9100000000000004E-002     1.5908428758848459E-004
   8.0200000000000021E-002     3.3582355827093124E-003
   8.1300000000000011E-002     2.8007414657622576E-003
   8.2400000000000029E-002    -4.9661536468192935E-004
   8.3500000000000019E-002    -3.0312517192214727E-003
   8.4600000000000009E-002    -2.7949288487434387E-003
   8.5700000000000026E-002     1.1015003110514954E-005
   8.6800000000000016E-002     3.0677155591547489E-003
   8.7900000000000006E-002     3.7720741238445044E-003
   8.9000000000000024E-002     1.3216109946370125E-003
   9.0100000000000013E-002    -2.5527994148433208E-003
   9.1200000000000003E-002    -5.5023678578436375E-003
   9.2300000000000021E-002    -2.6048417203128338E-003
   9.3400000000000011E-002     3.8417109753936529E-003
   9.4500000000000028E-002     7.4922624044120312E-003
   9.5600000000000018E-002     4.2709126137197018E-003
   9.6700000000000008E-002    -4.6941274777054787E-003
   9.7800000000000026E-002    -8.1945164129137993E-003
   9.8900000000000016E-002    -2.3386985994875431E-003
  0.10000000000000001          6.0374867171049118E-003
  0.10110000000000002          5.3710332140326500E-003
  0.10220000000000001          1.8589156679809093E-003
  0.10330000000000003         -2.5262564886361361E-003
  0.10440000000000002         -3.2222950831055641E-003
  0.10550000000000001         -4.0225265547633171E-003
  0.10660000000000003          3.8231743383221328E-004
  0.10770000000000002          6.1477120034396648E-003
  0.10880000000000001          7.2916834615170956E-003
  0.10990000000000003         -4.1771729593165219E-004
  0.11100000000000002         -9.1750035062432289E-003
  0.11210000000000001         -7.9903230071067810E-003
  0.11320000000000002         -4.4035454629920423E-004
  0.11430000000000001          8.3179939538240433E-003
  0.11540000000000003          9.9219447001814842E-003
  0.11650000000000002          1.4333986910060048E-003
  0.11760000000000001         -8.3891144022345543E-003
  0.11870000000000003         -9.4131790101528168E-003
  0.11980000000000002         -8.6034159176051617E-004
  0.12090000000000001          5.6476532481610775E-003
  0.12200000000000003          6.5379380248486996E-003
  0.12310000000000001          1.6468269750475883E-003
  0.12420000000000003         -3.8398841861635447E-003
  0.12530000000000002         -7.0155411958694458E-003
  0.12640000000000001         -3.4016633871942759E-003
  0.12750000000000003          3.1364820897579193E-003
  0.12860000000000002          6.1909891664981842E-003
  0.12970000000000001          4.6200514771044254E-003
  0.13080000000000003         -7.9450319753959775E-004
  0.13190000000000002         -5.9903040528297424E-003
  0.13300000000000001         -6.5355752594769001E-003
  0.13410000000000000         -2.1714451722800732E-003
  0.13520000000000004          4.4111921451985836E-003
  0.13630000000000003          7.9827019944787025E-003
  0.13740000000000002          4.3310341425240040E-003
  0.13850000000000001         -3.6955701652914286E-003
  0.13960000000000000         -8.4235332906246185E-003
  0.14070000000000005         -4.5997300185263157E-003
  0.14180000000000004          3.5022087395191193E-003
  0.14290000000000003          7.4774068780243397E-003
  0.14400000000000002          4.2260983027517796E-003
  0.14510000000000001         -2.0422334782779217E-003
  0.14620000000000000         -5.0579379312694073E-003
  0.14730000000000004         -4.0204441174864769E-003
  0.14840000000000003         -1.1717131128534675E-003
  0.14950000000000002          1.8365511205047369E-003
  0.15060000000000001          4.9009923823177814E-003
  0.15170000000000000          5.9890183620154858E-003
  0.15280000000000005          1.2577454326674342E-003
  0.15390000000000004         -7.5098671950399876E-003
  0.15500000000000003         -1.0128296911716461E-002
  0.15610000000000002         -9.2771509662270546E-004
  0.15720000000000001          1.0791685432195663E-002
  0.15830000000000000          1.1145034804940224E-002
  0.15940000000000004         -1.4262892073020339E-003
  0.16050000000000003         -1.2024558149278164E-002
  0.16160000000000002         -8.3002392202615738E-003
  0.16270000000000001          3.0728692654520273E-003
  0.16380000000000000          8.3716893568634987E-003
  0.16490000000000005          4.3666479177772999E-003
  0.16600000000000004         -6.2303448794409633E-004
  0.16710000000000003         -1.5134254936128855E-003
  0.16820000000000002         -1.8507146742194891E-003
  0.16930000000000001         -4.8028146848082542E-003
  0.17040000000000000         -4.7533782199025154E-003
  0.17150000000000004          3.1669319141656160E-003
  0.17260000000000003          1.0974018834531307E-002
  0.17370000000000002          6.4778267405927181E-003
  0.17480000000000001         -7.9357884824275970E-003
  0.17590000000000000         -1.4725733548402786E-002
  0.17700000000000005         -3.7051653489470482E-003
  0.17810000000000004          1.2265618890523911E-002
  0.17920000000000003          1.3321970589458942E-002
  0.18030000000000002         -1.0013961000367999E-003
  0.18140000000000001         -1.1747647076845169E-002
  0.18250000000000000         -6.9048386067152023E-003
  0.18360000000000004          3.6952297668904066E-003
  0.18470000000000003          5.3486269898712635E-003
  0.18580000000000002         -3.3448138856329024E-004
  0.18690000000000001         -1.4159758575260639E-003
  0.18800000000000000          3.5856985487043858E-003
  0.18910000000000005          3.1358236446976662E-003
  0.19020000000000004         -5.8015775866806507E-003
  0.19130000000000003         -9.9607445299625397E-003
  0.19240000000000002          4.3282448314130306E-004
  0.19350000000000001          1.3256426900625229E-002
  0.19460000000000005          9.9919848144054413E-003
  0.19570000000000004         -7.0726922713220119E-003
  0.19680000000000003         -1.5385897830128670E-002
  0.19790000000000002         -4.0206839330494404E-003
  0.19900000000000001          1.1225678026676178E-002
  0.20010000000000000          1.0117820464074612E-002
  0.20120000000000005         -3.4346592146903276E-003
  0.20230000000000004         -9.2402221634984016E-003
  0.20340000000000003         -9.3313917750492692E-004
  0.20450000000000002          6.4318883232772350E-003
  0.20560000000000000          1.6248112078756094E-003
  0.20670000000000005         -5.7615898549556732E-003
  0.20780000000000004         -2.0458162762224674E-003
  0.20890000000000003          7.3361494578421116E-003
