 -0.12000000000000000          0.0000000000000000     
 -0.11889999999999999          0.0000000000000000     
 -0.11780000000000000          5.7030726807738574E-009
 -0.11670000000000000          8.2583655469647965E-009
 -0.11559999999999999         -1.8503472531961052E-008
 -0.11449999999999999         -4.2331798510986118E-008
 -0.11340000000000000          9.5338297256830629E-009
 -0.11230000000000000          7.8906559508595819E-008
 -0.11119999999999999          1.9130149908619387E-008
 -0.11009999999999999         -6.3409835604488762E-008
 -0.10900000000000000          1.2427011597537785E-007
 -0.10790000000000000          3.5611469684226904E-007
 -0.10679999999999999         -1.5840153366752929E-007
 -0.10569999999999999         -1.3460042964652530E-006
 -0.10460000000000000         -1.4365760989676346E-006
 -0.10349999999999999          8.8288061306229793E-007
 -0.10239999999999999          3.5998523344460409E-006
 -0.10130000000000000          2.9310438094398705E-006
 -0.10020000000000000         -1.2493965186877176E-006
  -9.9099999999999994E-002    -4.0318277569895145E-006
  -9.7999999999999990E-002    -1.9913500182155985E-006
  -9.6899999999999986E-002     1.0669008361219312E-006
  -9.5799999999999996E-002    -7.9752510373509722E-007
  -9.4699999999999993E-002    -5.5093596529331990E-006
  -9.3599999999999989E-002    -4.0031927710515447E-006
  -9.2499999999999999E-002     6.0873730944877025E-006
  -9.1399999999999995E-002     1.3960732758278027E-005
  -9.0299999999999991E-002     9.4116821856005117E-006
  -8.9200000000000002E-002    -6.6617775473787333E-007
  -8.8099999999999984E-002     8.1194190215683193E-007
  -8.6999999999999994E-002     1.6846817743498832E-005
  -8.5899999999999990E-002     2.9433856980176643E-005
  -8.4799999999999986E-002     2.3248934667208232E-005
  -8.3699999999999997E-002     7.9551728049409576E-006
  -8.2599999999999993E-002     5.9520357353903819E-006
  -8.1499999999999989E-002     2.1798581656184979E-005
  -8.0399999999999999E-002     3.7580190110020339E-005
  -7.9299999999999995E-002     4.0596543840365484E-005
  -7.8199999999999992E-002     4.1178613173542544E-005
  -7.7100000000000002E-002     5.4146759794093668E-005
  -7.5999999999999984E-002     7.4648589361459017E-005
  -7.4899999999999994E-002     8.8054621301125735E-005
  -7.3799999999999991E-002     9.7881165856961161E-005
  -7.2699999999999987E-002     1.2366603186819702E-004
  -7.1599999999999997E-002     1.6798918659333140E-004
  -7.0499999999999993E-002     2.0639770082198083E-004
  -6.9399999999999989E-002     2.2364319011103362E-004
  -6.8300000000000000E-002     2.4387033772654831E-004
  -6.7199999999999996E-002     3.0237110331654549E-004
  -6.6099999999999992E-002     3.9394068880937994E-004
  -6.5000000000000002E-002     4.7665214515291154E-004
  -6.3899999999999985E-002     5.3292926168069243E-004
  -6.2799999999999995E-002     6.0028641019016504E-004
  -6.1699999999999991E-002     7.2204234311357141E-004
  -6.0599999999999994E-002     8.8647741358727217E-004
  -5.9499999999999990E-002     1.0447090025991201E-003
  -5.8399999999999994E-002     1.1833310127258301E-003
  -5.7299999999999990E-002     1.3455101288855076E-003
  -5.6199999999999986E-002     1.5700352378189564E-003
  -5.5099999999999996E-002     1.8399766413494945E-003
  -5.3999999999999992E-002     2.1162203047424555E-003
  -5.2899999999999989E-002     2.4010336492210627E-003
  -5.1799999999999985E-002     2.7331730816513300E-003
  -5.0699999999999995E-002     3.1259916722774506E-003
  -4.9599999999999991E-002     3.5501334350556135E-003
  -4.8499999999999988E-002     3.9894417859613895E-003
  -4.7399999999999998E-002     4.4772443361580372E-003
  -4.6299999999999994E-002     5.0469883717596531E-003
  -4.5199999999999990E-002     5.6715020909905434E-003
  -4.4099999999999986E-002     6.2948428094387054E-003
  -4.2999999999999997E-002     6.9195004180073738E-003
  -4.1899999999999993E-002     7.6144114136695862E-003
  -4.0799999999999989E-002     8.4184352308511734E-003
  -3.9699999999999985E-002     9.2757269740104675E-003
  -3.8599999999999995E-002     1.0103345848619938E-002
  -3.7499999999999992E-002     1.0899184271693230E-002
  -3.6399999999999988E-002     1.1734821833670139E-002
  -3.5299999999999984E-002     1.2644059956073761E-002
  -3.4199999999999994E-002     1.3568773865699768E-002
  -3.3099999999999991E-002     1.4435044489800930E-002
  -3.1999999999999987E-002     1.5239993110299110E-002
  -3.0899999999999997E-002     1.6021752730011940E-002
  -2.9799999999999993E-002     1.6768882051110268E-002
  -2.8699999999999989E-002     1.7416095361113548E-002
  -2.7599999999999986E-002     1.7928894609212875E-002
  -2.6499999999999996E-002     1.8335102126002312E-002
  -2.5399999999999992E-002     1.8645860254764557E-002
  -2.4299999999999988E-002     1.8790129572153091E-002
  -2.3199999999999985E-002     1.8677171319723129E-002
  -2.2099999999999995E-002     1.8300985917448997E-002
  -2.0999999999999991E-002     1.7724132165312767E-002
  -1.9899999999999987E-002     1.6955649480223656E-002
  -1.8799999999999983E-002     1.5903629362583160E-002
  -1.7699999999999994E-002     1.4477451331913471E-002
  -1.6599999999999990E-002     1.2690703384578228E-002
  -1.5499999999999986E-002     1.0612687095999718E-002
  -1.4399999999999996E-002     8.2456534728407860E-003
  -1.3299999999999992E-002     5.5160745978355408E-003
  -1.2199999999999989E-002     2.3866475094109774E-003
  -1.1099999999999985E-002    -1.0864021023735404E-003
  -9.9999999999999950E-003    -4.8336358740925789E-003
  -8.8999999999999913E-003    -8.8639333844184875E-003
  -7.7999999999999875E-003    -1.3223104178905487E-002
  -6.6999999999999837E-003    -1.7882341518998146E-002
  -5.5999999999999939E-003    -2.2728709504008293E-002
  -4.4999999999999901E-003    -2.7675734832882881E-002
  -3.3999999999999864E-003    -3.2722074538469315E-002
  -2.2999999999999826E-003    -3.7872444838285446E-002
  -1.1999999999999927E-003    -4.3044485151767731E-002
  -9.9999999999988987E-005    -4.8098899424076080E-002
   1.0000000000000148E-003    -5.2951063960790634E-002
   2.1000000000000185E-003    -5.7584535330533981E-002
   3.2000000000000084E-003    -6.1952415853738785E-002
   4.3000000000000121E-003    -6.5928496420383453E-002
   5.4000000000000159E-003    -6.9384463131427765E-002
   6.5000000000000058E-003    -7.2274237871170044E-002
   7.6000000000000234E-003    -7.4595116078853607E-002
   8.7000000000000133E-003    -7.6285608112812042E-002
   9.8000000000000032E-003    -7.7217526733875275E-002
   1.0900000000000021E-002    -7.7300988137722015E-002
   1.2000000000000011E-002    -7.6542153954505920E-002
   1.3100000000000001E-002    -7.4975319206714630E-002
   1.4200000000000018E-002    -7.2574153542518616E-002
   1.5300000000000008E-002    -6.9274246692657471E-002
   1.6400000000000026E-002    -6.5069817006587982E-002
   1.7500000000000016E-002    -6.0031168162822723E-002
   1.8600000000000005E-002    -5.4226003587245941E-002
   1.9700000000000023E-002    -4.7673795372247696E-002
   2.0800000000000013E-002    -4.0399473160505295E-002
   2.1900000000000003E-002    -3.2499130815267563E-002
   2.3000000000000020E-002    -2.4113284423947334E-002
   2.4100000000000010E-002    -1.5346319414675236E-002
   2.5200000000000000E-002    -6.2543363310396671E-003
   2.6300000000000018E-002     3.0823426786810160E-003
   2.7400000000000008E-002     1.2513650581240654E-002
   2.8500000000000025E-002     2.1869767457246780E-002
   2.9600000000000015E-002     3.1030276790261269E-002
   3.0700000000000005E-002     3.9914410561323166E-002
   3.1800000000000023E-002     4.8420410603284836E-002
   3.2900000000000013E-002     5.6412119418382645E-002
   3.4000000000000002E-002     6.3767649233341217E-002
   3.5100000000000020E-002     7.0411749184131622E-002
   3.6200000000000010E-002     7.6284207403659821E-002
   3.7300000000000028E-002     8.1299811601638794E-002
   3.8400000000000017E-002     8.5370138287544250E-002
   3.9500000000000007E-002     8.8457718491554260E-002
   4.0600000000000025E-002     9.0575255453586578E-002
   4.1700000000000015E-002     9.1731712222099304E-002
   4.2800000000000005E-002     9.1905362904071808E-002
   4.3900000000000022E-002     9.1083511710166931E-002
   4.5000000000000012E-002     8.9303791522979736E-002
   4.6100000000000002E-002     8.6639530956745148E-002
   4.7200000000000020E-002     8.3159707486629486E-002
   4.8300000000000010E-002     7.8924246132373810E-002
   4.9400000000000027E-002     7.4011571705341339E-002
   5.0500000000000017E-002     6.8518117070198059E-002
   5.1600000000000007E-002     6.2531888484954834E-002
   5.2700000000000025E-002     5.6130960583686829E-002
   5.3800000000000014E-002     4.9409687519073486E-002
   5.4900000000000004E-002     4.2489491403102875E-002
   5.6000000000000022E-002     3.5488661378622055E-002
   5.7100000000000012E-002     2.8489094227552414E-002
   5.8200000000000002E-002     2.1559176966547966E-002
   5.9300000000000019E-002     1.4783149585127831E-002
   6.0400000000000009E-002     8.2494001835584641E-003
   6.1500000000000027E-002     2.0272473338991404E-003
   6.2600000000000017E-002    -3.8324096240103245E-003
   6.3700000000000007E-002    -9.2724030837416649E-003
   6.4800000000000024E-002    -1.4231979846954346E-002
   6.5900000000000014E-002    -1.8682086840271950E-002
   6.7000000000000004E-002    -2.2629631683230400E-002
   6.8100000000000022E-002    -2.6077305898070335E-002
   6.9200000000000012E-002    -2.8997011482715607E-002
   7.0300000000000029E-002    -3.1360875815153122E-002
   7.1400000000000019E-002    -3.3188488334417343E-002
   7.2500000000000009E-002    -3.4534066915512085E-002
   7.3600000000000027E-002    -3.5429541021585464E-002
   7.4700000000000016E-002    -3.5872109234333038E-002
   7.5800000000000006E-002    -3.5877268761396408E-002
   7.6900000000000024E-002    -3.5510916262865067E-002
   7.8000000000000014E-002    -3.4842465072870255E-002
   7.9100000000000004E-002    -3.3889707177877426E-002
   8.0200000000000021E-002    -3.2646317034959793E-002
   8.1300000000000011E-002    -3.1155999749898911E-002
   8.2400000000000029E-002    -2.9513742774724960E-002
   8.3500000000000019E-002    -2.7783311903476715E-002
   8.4600000000000009E-002    -2.5955451652407646E-002
   8.5700000000000026E-002    -2.4015044793486595E-002
   8.6800000000000016E-002    -2.2016227245330811E-002
   8.7900000000000006E-002    -2.0046396180987358E-002
   8.9000000000000024E-002    -1.8132526427507401E-002
   9.0100000000000013E-002    -1.6236959025263786E-002
   9.1200000000000003E-002    -1.4354295097291470E-002
   9.2300000000000021E-002    -1.2556048110127449E-002
   9.3400000000000011E-002    -1.0905959643423557E-002
   9.4500000000000028E-002    -9.3745086342096329E-003
   9.5600000000000018E-002    -7.8912293538451195E-003
   9.6700000000000008E-002    -6.4641302451491356E-003
   9.7800000000000026E-002    -5.1819491200149059E-003
   9.8900000000000016E-002    -4.0888562798500061E-003
  0.10000000000000001         -3.1188528519123793E-003
  0.10110000000000002         -2.1930160000920296E-003
  0.10220000000000001         -1.3328900095075369E-003
  0.10330000000000003         -6.1684579122811556E-004
  0.10440000000000002         -5.0273549277335405E-005
  0.10550000000000001          4.4857992907054722E-004
  0.10660000000000003          9.2434464022517204E-004
  0.10770000000000002          1.3194908387959003E-003
  0.10880000000000001          1.5760796377435327E-003
  0.10990000000000003          1.7459123628214002E-003
  0.11100000000000002          1.9297271501272917E-003
  0.11210000000000001          2.1296720951795578E-003
  0.11320000000000002          2.2454941645264626E-003
  0.11430000000000001          2.2309774067252874E-003
  0.11540000000000003          2.1758340299129486E-003
  0.11650000000000002          2.1836757659912109E-003
  0.11760000000000001          2.2258132230490446E-003
  0.11870000000000003          2.1932092495262623E-003
  0.11980000000000002          2.0675619598478079E-003
  0.12090000000000001          1.9496029708534479E-003
  0.12200000000000003          1.9050681730732322E-003
  0.12310000000000001          1.8684992101043463E-003
  0.12420000000000003          1.7530453624203801E-003
  0.12530000000000002          1.5936673153191805E-003
  0.12640000000000001          1.4971444616094232E-003
  0.12750000000000003          1.4748709509149194E-003
  0.12860000000000002          1.4209322398528457E-003
  0.12970000000000001          1.2752517359331250E-003
  0.13080000000000003          1.1210667435079813E-003
  0.13190000000000002          1.0619492968544364E-003
  0.13300000000000001          1.0647878516465425E-003
  0.13410000000000000          1.0100298095494509E-003
  0.13520000000000004          8.7383534992113709E-004
  0.13630000000000003          7.6292722951620817E-004
  0.13740000000000002          7.4865418719127774E-004
  0.13850000000000001          7.5719057349488139E-004
  0.13960000000000000          6.8528892006725073E-004
  0.14070000000000005          5.6194327771663666E-004
  0.14180000000000004          5.0506473053246737E-004
  0.14290000000000003          5.3832103731110692E-004
  0.14400000000000002          5.5146293016150594E-004
  0.14510000000000001          4.6730769099667668E-004
  0.14620000000000000          3.5955591010861099E-004
  0.14730000000000004          3.4059537574648857E-004
  0.14840000000000003          3.9125717012211680E-004
  0.14950000000000002          3.9275630842894316E-004
  0.15060000000000001          3.0892883660271764E-004
  0.15170000000000000          2.3774255532771349E-004
  0.15280000000000005          2.5633230688981712E-004
  0.15390000000000004          3.0214485013857484E-004
  0.15500000000000003          2.7314975159242749E-004
  0.15610000000000002          1.8857364193536341E-004
  0.15720000000000001          1.5916582196950912E-004
  0.15830000000000000          2.1338276565074921E-004
  0.15940000000000004          2.5016829022206366E-004
  0.16050000000000003          1.9319604325573891E-004
  0.16160000000000002          1.0919376654783264E-004
  0.16270000000000001          1.0765393381007016E-004
  0.16380000000000000          1.7544331785757095E-004
  0.16490000000000005          1.9831945246551186E-004
  0.16600000000000004          1.3400024909060448E-004
  0.16710000000000003          7.2270799137186259E-005
  0.16820000000000002          9.4520219136029482E-005
  0.16930000000000001          1.5143127529881895E-004
  0.17040000000000000          1.4396345068234950E-004
  0.17150000000000004          7.7256510849110782E-005
  0.17260000000000003          4.9351721827406436E-005
  0.17370000000000002          9.6636656962800771E-005
  0.17480000000000001          1.3758466229774058E-004
  0.17590000000000000          1.0027436655946076E-004
  0.17700000000000005          3.4207227145088837E-005
  0.17810000000000004          3.4054301067953929E-005
  0.17920000000000003          9.4558330602012575E-005
  0.18030000000000002          1.1940104013774544E-004
  0.18140000000000001          6.8157474743202329E-005
  0.18250000000000000          1.5307930880226195E-005
  0.18360000000000004          3.4440141462255269E-005
  0.18470000000000003          8.8338885689154267E-005
  0.18580000000000002          9.0343586634844542E-005
  0.18690000000000001          3.7263143894961104E-005
  0.18800000000000000          9.7993843155563809E-006
  0.18910000000000005          4.5563210733234882E-005
  0.19020000000000004          8.3373757661320269E-005
  0.19130000000000003          6.1070342781022191E-005
  0.19240000000000002          1.1499128049763385E-005
  0.19350000000000001          9.4641291070729494E-006
  0.19460000000000005          5.5440385040128604E-005
  0.19570000000000004          7.6039978011976928E-005
  0.19680000000000003          3.7631503801094368E-005
  0.19790000000000002         -3.1430433864443330E-006
  0.19900000000000001          1.2922673704451881E-005
  0.20010000000000000          5.8550253015710041E-005
  0.20120000000000005          6.3717576267663389E-005
  0.20230000000000004          2.1252122678561136E-005
  0.20340000000000003         -6.2120820985001046E-006
  0.20450000000000002          1.7230393495992757E-005
  0.20560000000000000          5.0497150368755683E-005
  0.20670000000000005          4.2898969695670530E-005
  0.20780000000000004          9.9742173915728927E-006
  0.20890000000000003          3.7420311400637729E-006
