 -0.12000000000000000          0.0000000000000000     
 -0.11889999999999999          0.0000000000000000     
 -0.11780000000000000          0.0000000000000000     
 -0.11670000000000000          0.0000000000000000     
 -0.11559999999999999          0.0000000000000000     
 -0.11449999999999999          0.0000000000000000     
 -0.11340000000000000          2.0533348363684509E-018
 -0.11230000000000000         -9.6979957825181736E-019
 -0.11119999999999999         -2.4896559831598607E-017
 -0.11009999999999999          3.8447557530714802E-018
 -0.10900000000000000          1.6964722621721909E-016
 -0.10790000000000000          4.5645503722958325E-017
 -0.10679999999999999         -8.1148853311175371E-016
 -0.10569999999999999         -6.2107780297003274E-016
 -0.10460000000000000          2.8311625216930576E-015
 -0.10349999999999999          3.8672674105763843E-015
 -0.10239999999999999         -6.9812214108309466E-015
 -0.10130000000000000         -1.5927695631596378E-014
 -0.10020000000000000          1.0528583111954221E-014
  -9.9099999999999994E-002     4.8915024456050102E-014
  -9.7999999999999990E-002    -1.9299613939453711E-016
  -9.6899999999999986E-002    -1.2244418261427026E-013
  -9.5799999999999996E-002    -6.3902693087179024E-014
  -9.4699999999999993E-002     2.6441327426185435E-013
  -9.3599999999999989E-002     3.0360479755242586E-013
  -9.2499999999999999E-002    -4.5358888086516336E-013
  -9.1399999999999995E-002    -1.0170527614539182E-012
  -9.0299999999999991E-002     3.3441513989408700E-013
  -8.9200000000000002E-002     2.5192732015094643E-012
  -8.8099999999999984E-002     1.2114471752144862E-012
  -8.6999999999999994E-002    -4.2207617609313353E-012
  -8.5899999999999990E-002    -5.6304080321700756E-012
  -8.4799999999999986E-002     3.6200545599357481E-012
  -8.3699999999999997E-002     1.2731349828543070E-011
  -8.2599999999999993E-002     2.5865579209721767E-012
  -8.1499999999999989E-002    -1.9879735010941424E-011
  -8.0399999999999999E-002    -1.6754595974499686E-011
  -7.9299999999999995E-002     2.3728942422085453E-011
  -7.8199999999999992E-002     4.3523410570012189E-011
  -7.7100000000000002E-002    -1.4428699554591695E-011
  -7.5999999999999984E-002    -8.7705405438232020E-011
  -7.4899999999999994E-002    -3.8045993439039805E-011
  -7.3799999999999991E-002     1.2360085177576252E-010
  -7.2699999999999987E-002     1.6119601486952462E-010
  -7.1599999999999997E-002    -7.3054944038641878E-011
  -7.0499999999999993E-002    -3.0860158872769716E-010
  -6.9399999999999989E-002    -1.2512146874144037E-010
  -6.8300000000000000E-002     3.5897551597940947E-010
  -6.7199999999999996E-002     4.3188269627236764E-010
  -6.6099999999999992E-002    -2.1898752255999909E-010
  -6.5000000000000002E-002    -7.6476258659141649E-010
  -6.3899999999999985E-002    -1.9117768479404162E-010
  -6.2799999999999995E-002     9.9250518914573149E-010
  -6.1699999999999991E-002     9.8562458195061708E-010
  -6.0599999999999994E-002    -7.2366673764534539E-010
  -5.9499999999999990E-002    -1.9550792096367786E-009
  -5.8399999999999994E-002    -4.7684600712472047E-010
  -5.7299999999999990E-002     2.2874799832095505E-009
  -5.6199999999999986E-002     2.3349362443525479E-009
  -5.5099999999999996E-002    -1.2367724622208698E-009
  -5.3999999999999992E-002    -3.8300824733994432E-009
  -5.2899999999999989E-002    -1.1312031311661030E-009
  -5.1799999999999985E-002     3.9615870583986634E-009
  -5.0699999999999995E-002     4.0896201980444857E-009
  -4.9599999999999991E-002    -2.0811075085447328E-009
  -4.8499999999999988E-002    -6.4193894644404281E-009
  -4.7399999999999998E-002    -1.9148862495654839E-009
  -4.6299999999999994E-002     6.3437286534906434E-009
  -4.5199999999999990E-002     6.7492087474363416E-009
  -4.4099999999999986E-002    -2.4030069045721802E-009
  -4.2999999999999997E-002    -9.0708089928170921E-009
  -4.1899999999999993E-002    -3.7452281276273425E-009
  -4.0799999999999989E-002     6.4204375149756743E-009
  -3.9699999999999985E-002     7.1586265804057803E-009
  -3.8599999999999995E-002    -2.1858646004346838E-009
  -3.7499999999999992E-002    -7.3953758672473668E-009
  -3.6399999999999988E-002    -5.5832155565482822E-010
  -3.5299999999999984E-002     7.8190378616227463E-009
  -3.4199999999999994E-002     4.8952504272392616E-009
  -3.3099999999999991E-002    -4.5487018596190865E-009
  -3.1999999999999987E-002    -6.0360418885352374E-009
  -3.0899999999999997E-002     6.7411237703041138E-010
  -2.9799999999999993E-002     1.0903777880599819E-009
  -2.8699999999999989E-002    -7.9035258337967207E-009
  -2.7599999999999986E-002    -8.6089011475110055E-009
  -2.6499999999999996E-002     8.9801392988420048E-009
  -2.5399999999999992E-002     2.3492798817414950E-008
  -2.4299999999999988E-002     8.4800220179204189E-009
  -2.3199999999999985E-002    -2.2923021703036284E-008
  -2.2099999999999995E-002    -2.7305091521157010E-008
  -2.0999999999999991E-002     6.6196292891618214E-009
  -1.9899999999999987E-002     3.2297066354658455E-008
  -1.8799999999999983E-002     6.5029541751471243E-009
  -1.7699999999999994E-002    -4.1981238041444158E-008
  -1.6599999999999990E-002    -4.2502090735752063E-008
  -1.5499999999999986E-002     1.8243742516688144E-008
  -1.4399999999999996E-002     6.7637103029483114E-008
  -1.3299999999999992E-002     4.0130768041990450E-008
  -1.2199999999999989E-002    -3.2614295264465909E-008
  -1.1099999999999985E-002    -6.3745069667220378E-008
  -9.9999999999999950E-003    -2.7768457755428244E-008
  -8.8999999999999913E-003     1.2821311123900614E-008
  -7.7999999999999875E-003     3.0943534401473016E-009
  -6.6999999999999837E-003    -3.0295272068769918E-008
  -5.5999999999999939E-003    -3.1180771742356228E-008
  -4.4999999999999901E-003    -4.1771211489738391E-010
  -3.3999999999999864E-003     1.7586051725970719E-008
  -2.2999999999999826E-003     1.3854760894105311E-008
  -1.1999999999999927E-003     1.9508862081352163E-008
  -9.9999999999988987E-005     2.6692951848872326E-008
   1.0000000000000148E-003    -2.1732622812464797E-008
   2.1000000000000185E-003    -1.2775198854342307E-007
   3.2000000000000084E-003    -1.8435760296142689E-007
   4.3000000000000121E-003    -1.0035153508169969E-007
   5.4000000000000159E-003     4.9786443412358494E-008
   6.5000000000000058E-003     8.7465473086467682E-008
   7.6000000000000234E-003    -3.1424491453435621E-008
   8.7000000000000133E-003    -1.3267130327676568E-007
   9.8000000000000032E-003    -6.7888912269609136E-008
   1.0900000000000021E-002     7.4839455521669151E-008
   1.2000000000000011E-002     7.1927857447917631E-008
   1.3100000000000001E-002    -1.3468350346101943E-007
   1.4200000000000018E-002    -3.3510497132738237E-007
   1.5300000000000008E-002    -3.3563404144842934E-007
   1.6400000000000026E-002    -1.7039006650065858E-007
   1.7500000000000016E-002    -2.4227787775998877E-008
   1.8600000000000005E-002    -2.7237672117763623E-009
   1.9700000000000023E-002    -3.1506385056445652E-008
   2.0800000000000013E-002    -2.5348093402044469E-008
   2.1900000000000003E-002    -4.3719268205677508E-008
   2.3000000000000020E-002    -1.2317694597641093E-007
   2.4100000000000010E-002    -1.9023042341359542E-007
   2.5200000000000000E-002    -1.8473797069873399E-007
   2.6300000000000018E-002    -2.0202803341362596E-007
   2.7400000000000008E-002    -3.0589515631618269E-007
   2.8500000000000025E-002    -3.3997463333435007E-007
   2.9600000000000015E-002    -1.5688817711634329E-007
   3.0700000000000005E-002     7.5810660860042844E-008
   3.1800000000000023E-002     1.1101014507630680E-007
   3.2900000000000013E-002     2.5746111020907847E-008
   3.4000000000000002E-002     2.5095884481629582E-008
   3.5100000000000020E-002     1.5225096205995214E-007
   3.6200000000000010E-002     2.0067577111149149E-007
   3.7300000000000028E-002    -3.0880705992331059E-008
   3.8400000000000017E-002    -2.5449978124925110E-007
   3.9500000000000007E-002    -1.3570351597991248E-007
   4.0600000000000025E-002     2.8116852490711608E-007
   4.1700000000000015E-002     5.9883456060561002E-007
   4.2800000000000005E-002     4.5037933205094305E-007
   4.3900000000000022E-002     2.5580058604646183E-007
   4.5000000000000012E-002     2.8227790949131304E-007
   4.6100000000000002E-002     5.9265335039526690E-007
   4.7200000000000020E-002     9.2994503120280569E-007
   4.8300000000000010E-002     8.3720919974439312E-007
   4.9400000000000027E-002     8.7254659320024075E-007
   5.0500000000000017E-002     1.2671561080423999E-006
   5.1600000000000007E-002     1.1019516250598826E-006
   5.2700000000000025E-002     6.8959593590989243E-008
   5.3800000000000014E-002    -4.0886502006287628E-007
   5.4900000000000004E-002     7.3370813424844528E-007
   5.6000000000000022E-002     2.4134415070875548E-006
   5.7100000000000012E-002     2.1286209630488884E-006
   5.8200000000000002E-002     1.9838095965951652E-007
   5.9300000000000019E-002    -1.1384656772861490E-006
   6.0400000000000009E-002    -3.2754962830949808E-007
   6.1500000000000027E-002     2.2444742171501275E-006
   6.2600000000000017E-002     2.6979969334206544E-006
   6.3700000000000007E-002     8.0930085744057578E-008
   6.4800000000000024E-002    -1.8218358945887303E-006
   6.5900000000000014E-002    -1.0059602573164739E-006
   6.7000000000000004E-002     8.8133737108364585E-007
   6.8100000000000022E-002     1.7109308600993245E-006
   6.9200000000000012E-002     7.6957115879849880E-007
   7.0300000000000029E-002    -1.0956921414617682E-006
   7.1400000000000019E-002    -2.3758207134960685E-006
   7.2500000000000009E-002    -2.4062210286501795E-006
   7.3600000000000027E-002    -1.5391699434985640E-006
   7.4700000000000016E-002     8.4753231988088373E-008
   7.5800000000000006E-002     1.5779039586050203E-006
   7.6900000000000024E-002     9.9818089438485913E-007
   7.8000000000000014E-002    -2.4971911898319377E-006
   7.9100000000000004E-002    -6.2068247643765062E-006
   8.0200000000000021E-002    -5.3941566875437275E-006
   8.1300000000000011E-002    -3.0577567144973727E-008
   8.2400000000000029E-002     3.7194026845099870E-006
   8.3500000000000019E-002     1.2768750821123831E-006
   8.4600000000000009E-002    -4.8887045522860717E-006
   8.5700000000000026E-002    -7.7734121077810414E-006
   8.6800000000000016E-002    -4.2494280023674946E-006
   8.7900000000000006E-002     1.4074244063522201E-006
   8.9000000000000024E-002     3.4590532322908984E-006
   9.0100000000000013E-002     1.0721473699959461E-006
   9.1200000000000003E-002    -2.5964454835047945E-006
   9.2300000000000021E-002    -4.9905206651601475E-006
   9.3400000000000011E-002    -4.8021379370766226E-006
   9.4500000000000028E-002    -1.7727944623402436E-006
   9.5600000000000018E-002     2.9575639928225428E-006
   9.6700000000000008E-002     5.8873479247267824E-006
   9.7800000000000026E-002     2.9524073852371657E-006
   9.8900000000000016E-002    -4.1691737351357006E-006
  0.10000000000000001         -7.8699076766497456E-006
  0.10110000000000002         -1.8298530903848587E-006
  0.10220000000000001          8.4324201452545822E-006
  0.10330000000000003          1.0619827662594616E-005
  0.10440000000000002          2.2829417503089644E-006
  0.10550000000000001         -5.9323451750969980E-006
  0.10660000000000003         -5.9556509768299293E-006
  0.10770000000000002          2.9500546361305169E-007
  0.10880000000000001          6.6286170294915792E-006
  0.10990000000000003          7.5891989581577946E-006
  0.11100000000000002          4.5762549234495964E-006
  0.11210000000000001          6.7480107190931449E-007
  0.11320000000000002         -2.7684563974617049E-006
  0.11430000000000001         -3.7471072573680431E-006
  0.11540000000000003          3.4354175681983179E-007
  0.11650000000000002          8.2938704508705996E-006
  0.11760000000000001          1.0687511348805856E-005
  0.11870000000000003          2.1795453903905582E-006
  0.11980000000000002         -8.7649386841803789E-006
  0.12090000000000001         -9.9425715234247036E-006
  0.12200000000000003          8.1807974083858426E-007
  0.12310000000000001          1.1508750503708143E-005
  0.12420000000000003          1.0199680218647700E-005
  0.12530000000000002         -5.2785054549531196E-007
  0.12640000000000001         -8.8207925728056580E-006
  0.12750000000000003         -7.2511311373091303E-006
  0.12860000000000002         -1.8488151454221224E-007
  0.12970000000000001          4.5068809413351119E-006
  0.13080000000000003          5.2166633395245299E-006
  0.13190000000000002          3.3391859233233845E-006
  0.13300000000000001         -1.6317744666594081E-006
  0.13410000000000000         -8.4841913121636026E-006
  0.13520000000000004         -1.0295693755324464E-005
  0.13630000000000003         -2.1739667772635585E-006
  0.13740000000000002          9.6602425401215442E-006
  0.13850000000000001          1.1972454558417667E-005
  0.13960000000000000          5.0927116035381914E-007
  0.14070000000000005         -1.2387862625473645E-005
  0.14180000000000004         -1.2083588444511406E-005
  0.14290000000000003          9.3612328555536806E-008
  0.14400000000000002          9.2882510216441005E-006
  0.14510000000000001          6.2848716879670974E-006
  0.14620000000000000         -2.5694753276184201E-006
  0.14730000000000004         -6.3298371060227510E-006
  0.14840000000000003         -4.0319241634279024E-006
  0.14950000000000002         -1.6715023321012268E-006
  0.15060000000000001         -5.1908250497945119E-007
  0.15170000000000000          3.1293157007894479E-006
  0.15280000000000005          7.7986660471651703E-006
  0.15390000000000004          5.4981442190182861E-006
  0.15500000000000003         -5.4303104661812540E-006
  0.15610000000000002         -1.3447977835312486E-005
  0.15720000000000001         -6.9920029091008473E-006
  0.15830000000000000          8.3796276157954708E-006
  0.15940000000000004          1.4904946510796435E-005
  0.16050000000000003          5.0542221288196743E-006
  0.16160000000000002         -8.8086335381376557E-006
  0.16270000000000001         -1.1039111996069551E-005
  0.16380000000000000         -2.1820292204211000E-006
  0.16490000000000005          5.1892116061935667E-006
  0.16600000000000004          4.9182140173797961E-006
  0.16710000000000003          2.2816304863226833E-006
  0.16820000000000002          1.7432973891118309E-006
  0.16930000000000001         -4.0151286384570994E-007
  0.17040000000000000         -6.3424845393456053E-006
  0.17150000000000004         -8.3412987805786543E-006
  0.17260000000000003          8.6479036554010236E-007
  0.17370000000000002          1.3285349268699065E-005
  0.17480000000000001          1.2357148079900071E-005
  0.17590000000000000         -3.9008400563034229E-006
  0.17700000000000005         -1.6874002540134825E-005
  0.17810000000000004         -1.0432029739604332E-005
  0.17920000000000003          7.4202812356816139E-006
  0.18030000000000002          1.4881409697409254E-005
  0.18140000000000001          4.9063528422266245E-006
  0.18250000000000000         -7.6233200161368586E-006
  0.18360000000000004         -8.1627640611259267E-006
  0.18470000000000003         -6.8747135628655087E-007
  0.18580000000000002          2.6021086796390591E-006
  0.18690000000000001          4.6419958721344301E-007
  0.18800000000000000          8.7589000941079576E-007
  0.18910000000000005          4.9151208258990664E-006
  0.19020000000000004          3.6379381072038086E-006
  0.19130000000000003         -5.6409649005217943E-006
  0.19240000000000002         -1.0884246876230463E-005
  0.19350000000000001         -1.8130639318769681E-006
  0.19460000000000005          1.1725524018402211E-005
  0.19570000000000004          1.0885047231568024E-005
  0.19680000000000003         -4.3506738620635588E-006
  0.19790000000000002         -1.3782341738988180E-005
  0.19900000000000001         -5.0303165153309237E-006
  0.20010000000000000          9.0282837845734321E-006
  0.20120000000000005          9.3000371634843759E-006
  0.20230000000000004         -2.6810077997652115E-006
  0.20340000000000003         -8.6231884779408574E-006
  0.20450000000000002         -1.3268146403788705E-006
  0.20560000000000000          6.3634643083787523E-006
  0.20670000000000005          2.7421920094639063E-006
  0.20780000000000004         -5.1371025620028377E-006
  0.20890000000000003         -3.5493842460709857E-006
