 -0.12000000000000000          0.0000000000000000
 -0.11889999999999999          0.0000000000000000
 -0.11780000000000000          0.0000000000000000
 -0.11670000000000000          0.0000000000000000
 -0.11559999999999999          0.0000000000000000
 -0.11449999999999999          0.0000000000000000
 -0.11340000000000000          0.0000000000000000
 -0.11230000000000000          0.0000000000000000
 -0.11119999999999999         -1.3774263978462447E-023
 -0.11009999999999999          7.4785951257335142E-023
 -0.10900000000000000          1.3171755684881795E-022
 -0.10790000000000000         -1.1165817455891736E-021
 -0.10679999999999999         -1.2200425320049156E-021
 -0.10569999999999999          9.2650892902866407E-021
 -0.10460000000000000          1.2694170558593052E-020
 -0.10349999999999999         -5.1418949205928419E-020
 -0.10239999999999999         -1.0754817501246349E-019
 -0.10130000000000000          1.7736485535014153E-019
 -0.10020000000000000          6.5581412203829978E-019
  -9.9099999999999994E-002    -1.4722061022051339E-019
  -9.7999999999999990E-002    -2.7449302067663804E-018
  -9.6899999999999986E-002    -2.2943595504347647E-018
  -9.5799999999999996E-002     6.9433093940170364E-018
  -9.4699999999999993E-002     1.4974204129224919E-017
  -9.3599999999999989E-002    -3.7990854570912024E-018
  -9.2499999999999999E-002    -4.5984710639831620E-017
  -9.1399999999999995E-002    -4.3875598601168412E-017
  -9.0299999999999991E-002     5.8752104428244693E-017
  -8.9200000000000002E-002     1.6859333194237753E-016
  -8.8099999999999984E-002     8.5543187449636777E-017
  -8.6999999999999994E-002    -2.1042164529258740E-016
  -8.5899999999999990E-002    -4.2257478474804020E-016
  -8.4799999999999986E-002    -2.6360925280062867E-016
  -8.3699999999999997E-002     2.2213738150253526E-016
  -8.2599999999999993E-002     8.9559175793361328E-016
  -8.1499999999999989E-002     1.6091102898440073E-015
  -8.0399999999999999E-002     1.2609130446778936E-015
  -7.9299999999999995E-002    -2.2427266156531270E-015
  -7.8199999999999992E-002    -8.0433681159193700E-015
  -7.7100000000000002E-002    -8.0303975003980649E-015
  -7.5999999999999984E-002     6.8649923968416588E-015
  -7.4899999999999994E-002     2.8861366963874036E-014
  -7.3799999999999991E-002     2.7703877806726195E-014
  -7.2699999999999987E-002    -1.8341402412158127E-014
  -7.1599999999999997E-002    -7.7845268751063068E-014
  -7.0499999999999993E-002    -7.4424319517537446E-014
  -6.9399999999999989E-002     2.9495964047956957E-014
  -6.8300000000000000E-002     1.5958496460063976E-013
  -6.7199999999999996E-002     1.7743587903216312E-013
  -6.6099999999999992E-002     2.2101241057550722E-014
  -6.5000000000000002E-002    -2.1710487140697010E-013
  -6.3899999999999985E-002    -3.7860963279442994E-013
  -6.2799999999999995E-002    -3.3554067727439851E-013
  -6.1699999999999991E-002    -1.0469034154663402E-014
  -6.0599999999999994E-002     5.8984322417673929E-013
  -5.9499999999999990E-002     1.1826579212476096E-012
  -5.8399999999999994E-002     1.1202779155727871E-012
  -5.7299999999999990E-002    -1.2979856989572824E-013
  -5.6199999999999986E-002    -2.1265292044631012E-012
  -5.5099999999999996E-002    -3.3092801502571101E-012
  -5.3999999999999992E-002    -2.2620876526102673E-012
  -5.2899999999999989E-002     7.0432922731969438E-013
  -5.1799999999999985E-002     3.6538940276220622E-012
  -5.0699999999999995E-002     4.9972430707367899E-012
  -4.9599999999999991E-002     4.8859206611129302E-012
  -4.8499999999999988E-002     4.0149355194640801E-012
  -4.7399999999999998E-002     1.5007742227776677E-012
  -4.6299999999999994E-002    -4.5594973109575054E-012
  -4.5199999999999990E-002    -1.3610466920166431E-011
  -4.4099999999999986E-002    -2.0701551584068056E-011
  -4.2999999999999997E-002    -1.9555761524014947E-011
  -4.1899999999999993E-002    -7.7932122560797623E-012
  -4.0799999999999989E-002     1.1559407944727873E-011
  -3.9699999999999985E-002     3.3111249853057245E-011
  -3.8599999999999995E-002     5.1546981960637339E-011
  -3.7499999999999992E-002     6.0495261577919734E-011
  -3.6399999999999988E-002     5.1945930196195533E-011
  -3.5299999999999984E-002     2.0565125991023336E-011
  -3.4199999999999994E-002    -3.0862166988665507E-011
  -3.3099999999999991E-002    -9.2067554968711107E-011
  -3.1999999999999987E-002    -1.5063536529247301E-010
  -3.0899999999999997E-002    -1.9280767260543286E-010
  -2.9799999999999993E-002    -1.9814305751708616E-010
  -2.8699999999999989E-002    -1.4018465555043491E-010
  -2.7599999999999986E-002    -1.7804717119054847E-012
  -2.6499999999999996E-002     2.0688928348278068E-010
  -2.5399999999999992E-002     4.4721462644226051E-010
  -2.4299999999999988E-002     6.6659827657744586E-010
  -2.3199999999999985E-002     8.0620177200785292E-010
  -2.2099999999999995E-002     7.9367562522136836E-010
  -2.0999999999999991E-002     5.4364807100526491E-010
  -1.9899999999999987E-002    -1.4501251761889211E-011
  -1.8799999999999983E-002    -9.0459018053934415E-010
  -1.7699999999999994E-002    -2.1100130531692685E-009
  -1.6599999999999990E-002    -3.6174852002801572E-009
  -1.5499999999999986E-002    -5.4444599939529326E-009
  -1.4399999999999996E-002    -7.6170598717339999E-009
  -1.3299999999999992E-002    -1.0139808992448707E-008
  -1.2199999999999989E-002    -1.3019146649639879E-008
  -1.1099999999999985E-002    -1.6328014496025389E-008
  -9.9999999999999950E-003    -2.0232114650298172E-008
  -8.8999999999999913E-003    -2.4944192489328998E-008
  -7.7999999999999875E-003    -3.0673355411181547E-008
  -6.6999999999999837E-003    -3.7646547212943915E-008
  -5.5999999999999939E-003    -4.6176676704590136E-008
  -4.4999999999999901E-003    -5.6688723049092005E-008
  -3.3999999999999864E-003    -6.9684567449712631E-008
  -2.2999999999999826E-003    -8.5714134456793545E-008
  -1.1999999999999927E-003    -1.0539423556110705E-007
  -9.9999999999988987E-005    -1.2942263083459693E-007
   1.0000000000000148E-003    -1.5854780599511287E-007
   2.1000000000000185E-003    -1.9357369751560327E-007
   3.2000000000000084E-003    -2.3547345051611046E-007
   4.3000000000000121E-003    -2.8552040021168068E-007
   5.4000000000000159E-003    -3.4527027992226067E-007
   6.5000000000000058E-003    -4.1640473114057386E-007
   7.6000000000000234E-003    -5.0067058054992231E-007
   8.7000000000000133E-003    -6.0008471791661577E-007
   9.8000000000000032E-003    -7.1719534844305599E-007
   1.0900000000000021E-002    -8.5504211710940581E-007
   1.2000000000000011E-002    -1.0168487278860994E-006
   1.3100000000000001E-002    -1.2058588936270098E-006
   1.4200000000000018E-002    -1.4256054328143364E-006
   1.5300000000000008E-002    -1.6802607660793001E-006
   1.6400000000000026E-002    -1.9747240003198385E-006
   1.7500000000000016E-002    -2.3142724785429891E-006
   1.8600000000000005E-002    -2.7043579393648542E-006
   1.9700000000000023E-002    -3.1506885989074362E-006
   2.0800000000000013E-002    -3.6595195069821784E-006
   2.1900000000000003E-002    -4.2377055251563434E-006
   2.3000000000000020E-002    -4.8925348892225884E-006
   2.4100000000000010E-002    -5.6316853260796051E-006
   2.5200000000000000E-002    -6.4631244640622754E-006
   2.6300000000000018E-002    -7.3947658165707253E-006
   2.7400000000000008E-002    -8.4342045738594607E-006
   2.8500000000000025E-002    -9.5888217401807196E-006
   2.9600000000000015E-002    -1.0866302545764484E-005
   3.0700000000000005E-002    -1.2274736945983022E-005
   3.1800000000000023E-002    -1.3821720131090842E-005
   3.2900000000000013E-002    -1.5513038306380622E-005
   3.4000000000000002E-002    -1.7352938812109642E-005
   3.5100000000000020E-002    -1.9344972315593623E-005
   3.6200000000000010E-002    -2.1492678570211865E-005
   3.7300000000000028E-002    -2.3798051188350655E-005
   3.8400000000000017E-002    -2.6259685910190456E-005
   3.9500000000000007E-002    -2.8872587790829130E-005
   4.0600000000000025E-002    -3.1628918804926798E-005
   4.1700000000000015E-002    -3.4518747270340100E-005
   4.2800000000000005E-002    -3.7530367990257218E-005
   4.3900000000000022E-002    -4.0648359572514892E-005
   4.5000000000000012E-002    -4.3852265662280843E-005
   4.6100000000000002E-002    -4.7117540816543624E-005
   4.7200000000000020E-002    -5.0414793804520741E-005
   4.8300000000000010E-002    -5.3709980420535430E-005
   4.9400000000000027E-002    -5.6965349358506501E-005
   5.0500000000000017E-002    -6.0141293943161145E-005
   5.1600000000000007E-002    -6.3192695961333811E-005
   5.2700000000000025E-002    -6.6069427703041583E-005
   5.3800000000000014E-002    -6.8715315137524158E-005
   5.4900000000000004E-002    -7.1070775447878987E-005
   5.6000000000000022E-002    -7.3076495027635247E-005
   5.7100000000000012E-002    -7.4673465860541910E-005
   5.8200000000000002E-002    -7.5800540798809379E-005
   5.9300000000000019E-002    -7.6394324423745275E-005
   6.0400000000000009E-002    -7.6386881119105965E-005
   6.1500000000000027E-002    -7.5714429840445518E-005
   6.2600000000000017E-002    -7.4319745181128383E-005
   6.3700000000000007E-002    -7.2151466156356037E-005
   6.4800000000000024E-002    -6.9162764702923596E-005
   6.5900000000000014E-002    -6.5311091020703316E-005
   6.7000000000000004E-002    -6.0557580582099035E-005
   6.8100000000000022E-002    -5.4871998145245016E-005
   6.9200000000000012E-002    -4.8241861804854125E-005
   7.0300000000000029E-002    -4.0666694985702634E-005
   7.1400000000000019E-002    -3.2159005058929324E-005
   7.2500000000000009E-002    -2.2742055080016144E-005
   7.3600000000000027E-002    -1.2448735105863307E-005
   7.4700000000000016E-002    -1.3242212162367650E-006
   7.5800000000000006E-002     1.0567820027063135E-005
   7.6900000000000024E-002     2.3139964469010010E-005
   7.8000000000000014E-002     3.6291359720053151E-005
   7.9100000000000004E-002     4.9911130190594122E-005
   8.0200000000000021E-002     6.3884042901918292E-005
   8.1300000000000011E-002     7.8083590778987855E-005
   8.2400000000000029E-002     9.2366171884350479E-005
   8.3500000000000019E-002     1.0657459642970935E-004
   8.4600000000000009E-002     1.2054130638716742E-004
   8.5700000000000026E-002     1.3410182145889848E-004
   8.6800000000000016E-002     1.4709759852848947E-004
   8.7900000000000006E-002     1.5937135322019458E-004
   8.9000000000000024E-002     1.7076142830774188E-004
   9.0100000000000013E-002     1.8110524979420006E-004
   9.1200000000000003E-002     1.9024913490284234E-004
   9.2300000000000021E-002     1.9805542251560837E-004
   9.3400000000000011E-002     2.0440483058337122E-004
   9.4500000000000028E-002     2.0919658709317446E-004
   9.5600000000000018E-002     2.1234595624264330E-004
   9.6700000000000008E-002     2.1378192468546331E-004
   9.7800000000000026E-002     2.1344845299609005E-004
   9.8900000000000016E-002     2.1131268294993788E-004
  0.10000000000000001          2.0737390150316060E-004
  0.10110000000000002          2.0166581089142710E-004
  0.10220000000000001          1.9424346101004630E-004
  0.10330000000000003          1.8517178250476718E-004
  0.10440000000000002          1.7452458268962801E-004
  0.10550000000000001          1.6240369586739689E-004
  0.10660000000000003          1.4894649211782962E-004
  0.10770000000000002          1.3431804836727679E-004
  0.10880000000000001          1.1868628644151613E-004
  0.10990000000000003          1.0221695265499875E-004
  0.11100000000000002          8.5086416220292449E-005
  0.11210000000000001          6.7476503318175673E-005
  0.11320000000000002          4.9585290980758145E-005
  0.11430000000000001          3.1618714274372905E-005
  0.11540000000000003          1.3774165381619241E-005
  0.11650000000000002         -3.7592096759908600E-006
  0.11760000000000001         -2.0808498447877355E-005
  0.11870000000000003         -3.7216002965578809E-005
  0.11980000000000002         -5.2830477216048166E-005
  0.12090000000000001         -6.7512075474951416E-005
  0.12200000000000003         -8.1121368566527963E-005
  0.12310000000000001         -9.3539129011332989E-005
  0.12420000000000003         -1.0468804975971580E-004
  0.12530000000000002         -1.1452041508164257E-004
  0.12640000000000001         -1.2299668742343783E-004
  0.12750000000000003         -1.3007805682718754E-004
  0.12860000000000002         -1.3573857722803950E-004
  0.12970000000000001         -1.3998412759974599E-004
  0.13080000000000003         -1.4285313955042511E-004
  0.13190000000000002         -1.4440067752730101E-004
  0.13300000000000001         -1.4468525478150696E-004
  0.13410000000000000         -1.4377092884387821E-004
  0.13520000000000004         -1.4173772069625556E-004
  0.13630000000000003         -1.3867492089048028E-004
  0.13740000000000002         -1.3467612734530121E-004
  0.13850000000000001         -1.2984254863113165E-004
  0.13960000000000000         -1.2428752961568534E-004
  0.14070000000000005         -1.1813097808044404E-004
  0.14180000000000004         -1.1148113844683394E-004
  0.14290000000000003         -1.0442989150760695E-004
  0.14400000000000002         -9.7066564194392413E-005
  0.14510000000000001         -8.9492663391865790E-005
  0.14620000000000000         -8.1815174780786037E-005
  0.14730000000000004         -7.4127128755208105E-005
  0.14840000000000003         -6.6500237153377384E-005
  0.14950000000000002         -5.8995228755520657E-005
  0.15060000000000001         -5.1672024710569531E-005
  0.15170000000000000         -4.4586067815544084E-005
  0.15280000000000005         -3.7781373976031318E-005
  0.15390000000000004         -3.1292351195588708E-005
  0.15500000000000003         -2.5152465241262689E-005
  0.15610000000000002         -1.9390588931855746E-005
  0.15720000000000001         -1.4016299246577546E-005
  0.15830000000000000         -9.0211351562174968E-006
  0.15940000000000004         -4.3966820157947950E-006
  0.16050000000000003         -1.4780576407247281E-007
  0.16160000000000002          3.7184820484981174E-006
  0.16270000000000001          7.2125262704503257E-006
  0.16380000000000000          1.0366620699642226E-005
  0.16490000000000005          1.3213866623118520E-005
  0.16600000000000004          1.5773144696140662E-005
  0.16710000000000003          1.8055347027257085E-005
  0.16820000000000002          2.0079089154023677E-005
  0.16930000000000001          2.1873285731999204E-005
  0.17040000000000000          2.3464306650566868E-005
  0.17150000000000004          2.4872178983059712E-005
  0.17260000000000003          2.6117320885532536E-005
  0.17370000000000002          2.7224052246310748E-005
  0.17480000000000001          2.8210568416398019E-005
  0.17590000000000000          2.9082078981446102E-005
  0.17700000000000005          2.9840455681551248E-005
  0.17810000000000004          3.0499519198201597E-005
  0.17920000000000003          3.1080744520295411E-005
  0.18030000000000002          3.1593019230058417E-005
  0.18140000000000001          3.2024214306147769E-005
  0.18250000000000000          3.2358198950532824E-005
  0.18360000000000004          3.2593692594673485E-005
  0.18470000000000003          3.2738029403844848E-005
  0.18580000000000002          3.2786476367618889E-005
  0.18690000000000001          3.2717674912419170E-005
  0.18800000000000000          3.2509815355297178E-005
  0.18910000000000005          3.2154301152331755E-005
  0.19020000000000004          3.1645588023820892E-005
  0.19130000000000003          3.0968079954618588E-005
  0.19240000000000002          3.0097065973677672E-005
  0.19350000000000001          2.9015645850449800E-005
  0.19460000000000005          2.7718513592844829E-005
  0.19570000000000004          2.6198173145530745E-005
  0.19680000000000003          2.4435708837700076E-005
  0.19790000000000002          2.2414818886318244E-005
  0.19900000000000001          2.0136039893259294E-005
  0.20010000000000000          1.7608785128686577E-005
  0.20120000000000005          1.4832998203928582E-005
  0.20230000000000004          1.1800816537288483E-005
  0.20340000000000003          8.5155352280708030E-006
  0.20450000000000002          5.0006269702862483E-006
  0.20560000000000000          1.2850825896748574E-006
  0.20670000000000005         -2.6128047920792596E-006
  0.20780000000000004         -6.6797083491110243E-006
  0.20890000000000003         -1.0888764336414170E-005
