 -0.12000000000000000          0.0000000000000000     
 -0.11889999999999999          0.0000000000000000     
 -0.11780000000000000          0.0000000000000000     
 -0.11670000000000000          0.0000000000000000     
 -0.11559999999999999          0.0000000000000000     
 -0.11449999999999999          0.0000000000000000     
 -0.11340000000000000         -5.0400000145556234E-011
 -0.11230000000000000          6.1748765822766671E-011
 -0.11119999999999999          4.5327178122001044E-010
 -0.11009999999999999         -3.4988067998398265E-010
 -0.10900000000000000         -1.9119215100005249E-009
 -0.10790000000000000          1.7202703705976319E-009
 -0.10679999999999999          4.5018295757870419E-009
 -0.10569999999999999         -1.5300400946216541E-008
 -0.10460000000000000         -2.0413283507991764E-008
 -0.10349999999999999          8.7564551165542071E-008
 -0.10239999999999999          1.8019838421423628E-007
 -0.10130000000000000         -1.8741263829724630E-007
 -0.10020000000000000         -8.7553286221009330E-007
  -9.9099999999999994E-002    -4.2462787064323493E-007
  -9.7999999999999990E-002     1.9266888102720259E-006
  -9.6899999999999986E-002     3.2367904623242794E-006
  -9.5799999999999996E-002    -3.3880962746479781E-007
  -9.4699999999999993E-002    -5.8439941312826704E-006
  -9.3599999999999989E-002    -5.2812611102126539E-006
  -9.2499999999999999E-002    -1.9170417431269016E-007
  -9.1399999999999995E-002    -1.8451642063155305E-006
  -9.0299999999999991E-002    -2.6707359666033881E-006
  -8.9200000000000002E-002     2.8631571694859304E-005
  -8.8099999999999984E-002     7.8958313679322600E-005
  -8.6999999999999994E-002     4.2796666093636304E-005
  -8.5899999999999990E-002    -1.4914682833477855E-004
  -8.4799999999999986E-002    -3.2458419445902109E-004
  -8.3699999999999997E-002    -1.6476195014547557E-004
  -8.2599999999999993E-002     3.3557298593223095E-004
  -8.1499999999999989E-002     6.7431607749313116E-004
  -8.0399999999999999E-002     4.2978383135050535E-004
  -7.9299999999999995E-002    -8.2553611719049513E-005
  -7.8199999999999992E-002    -2.9874176834709942E-004
  -7.7100000000000002E-002    -5.4656731663271785E-004
  -7.5999999999999984E-002    -1.6551482258364558E-003
  -7.4899999999999994E-002    -2.7830672916024923E-003
  -7.3799999999999991E-002    -1.0521264048293233E-003
  -7.2699999999999987E-002     4.4935699552297592E-003
  -7.1599999999999997E-002     9.1465106233954430E-003
  -7.0499999999999993E-002     6.3053169287741184E-003
  -6.9399999999999989E-002    -3.4620398655533791E-003
  -6.8300000000000000E-002    -1.0884701274335384E-002
  -6.7199999999999996E-002    -9.4780465587973595E-003
  -6.6099999999999992E-002    -5.2102906629443169E-003
  -6.5000000000000002E-002    -7.1801873855292797E-003
  -6.3899999999999985E-002    -9.6179470419883728E-003
  -6.2799999999999995E-002     4.5374939218163490E-003
  -6.1699999999999991E-002     3.5034619271755219E-002
  -6.0599999999999994E-002     5.1643345504999161E-002
  -5.9499999999999990E-002     2.7876798063516617E-002
  -5.8399999999999994E-002    -1.7235627397894859E-002
  -5.7299999999999990E-002    -3.6459442228078842E-002
  -5.6199999999999986E-002    -2.1838970482349396E-002
  -5.5099999999999996E-002    -2.5898678228259087E-002
  -5.3999999999999992E-002    -8.5925057530403137E-002
  -5.2899999999999989E-002   -0.14581078290939331     
  -5.1799999999999985E-002   -0.10320636630058289     
  -5.0699999999999995E-002     5.5662270635366440E-002
  -4.9599999999999991E-002    0.21879266202449799     
  -4.8499999999999988E-002    0.28160518407821655     
  -4.7399999999999998E-002    0.27288818359375000     
  -4.6299999999999994E-002    0.27942338585853577     
  -4.5199999999999990E-002    0.26516085863113403     
  -4.4099999999999986E-002     6.9871127605438232E-002
  -4.2999999999999997E-002   -0.36275410652160645     
  -4.1899999999999993E-002   -0.83789992332458496     
  -4.0799999999999989E-002    -1.0859006643295288     
  -3.9699999999999985E-002    -1.0451521873474121     
  -3.8599999999999995E-002   -0.84874850511550903     
  -3.7499999999999992E-002   -0.52858960628509521     
  -3.6399999999999988E-002    0.10935647040605545     
  -3.5299999999999984E-002     1.2088280916213989     
  -3.4199999999999994E-002     2.5600748062133789     
  -3.3099999999999991E-002     3.7126262187957764     
  -3.1999999999999987E-002     4.3307952880859375     
  -3.0899999999999997E-002     4.2512321472167969     
  -2.9799999999999993E-002     3.1980516910552979     
  -2.8699999999999989E-002    0.71903043985366821     
  -2.7599999999999986E-002    -3.4011292457580566     
  -2.6499999999999996E-002    -8.8299283981323242     
  -2.5399999999999992E-002    -15.053042411804199     
  -2.4299999999999988E-002    -21.975744247436523     
  -2.3199999999999985E-002    -29.821832656860352     
  -2.2099999999999995E-002    -38.386508941650391     
  -2.0999999999999991E-002    -46.829391479492188     
  -1.9899999999999987E-002    -54.606632232666016     
  -1.8799999999999983E-002    -62.441337585449219     
  -1.7699999999999994E-002    -71.945960998535156     
  -1.6599999999999990E-002    -84.316795349121094     
  -1.5499999999999986E-002    -99.915023803710938     
  -1.4399999999999996E-002    -119.32951354980469     
  -1.3299999999999992E-002    -144.33267211914062     
  -1.2199999999999989E-002    -177.18124389648438     
  -1.1099999999999985E-002    -219.21044921875000     
  -9.9999999999999950E-003    -270.78399658203125     
  -8.8999999999999913E-003    -332.74877929687500     
  -7.7999999999999875E-003    -407.32937622070312     
  -6.6999999999999837E-003    -497.22332763671875     
  -5.5999999999999939E-003    -604.44720458984375     
  -4.4999999999999901E-003    -730.77618408203125     
  -3.3999999999999864E-003    -879.17034912109375     
  -2.2999999999999826E-003    -1053.8961181640625     
  -1.1999999999999927E-003    -1259.2746582031250     
  -9.9999999999988987E-005    -1499.2397460937500     
   1.0000000000000148E-003    -1778.5760498046875     
   2.1000000000000185E-003    -2104.0056152343750     
   3.2000000000000084E-003    -2482.9184570312500     
   4.3000000000000121E-003    -2921.6345214843750     
   5.4000000000000159E-003    -3425.7846679687500     
   6.5000000000000058E-003    -4003.3315429687500     
   7.6000000000000234E-003    -4665.0463867187500     
   8.7000000000000133E-003    -5421.7270507812500     
   9.8000000000000032E-003    -6281.0541992187500     
   1.0900000000000021E-002    -7249.2255859375000     
   1.2000000000000011E-002    -8334.8740234375000     
   1.3100000000000001E-002    -9549.9541015625000     
   1.4200000000000018E-002    -10906.672851562500     
   1.5300000000000008E-002    -12413.611328125000     
   1.6400000000000026E-002    -14077.908203125000     
   1.7500000000000016E-002    -15906.704101562500     
   1.8600000000000005E-002    -17907.804687500000     
   1.9700000000000023E-002    -20085.740234375000     
   2.0800000000000013E-002    -22442.406250000000     
   2.1900000000000003E-002    -24976.597656250000     
   2.3000000000000020E-002    -27685.517578125000     
   2.4100000000000010E-002    -30563.533203125000     
   2.5200000000000000E-002    -33597.957031250000     
   2.6300000000000018E-002    -36771.718750000000     
   2.7400000000000008E-002    -40066.140625000000     
   2.8500000000000025E-002    -43456.531250000000     
   2.9600000000000015E-002    -46913.804687500000     
   3.0700000000000005E-002    -50397.984375000000     
   3.1800000000000023E-002    -53858.027343750000     
   3.2900000000000013E-002    -57242.289062500000     
   3.4000000000000002E-002    -60494.199218750000     
   3.5100000000000020E-002    -63546.320312500000     
   3.6200000000000010E-002    -66319.523437500000     
   3.7300000000000028E-002    -68731.210937500000     
   3.8400000000000017E-002    -70698.085937500000     
   3.9500000000000007E-002    -72129.390625000000     
   4.0600000000000025E-002    -72932.226562500000     
   4.1700000000000015E-002    -73008.101562500000     
   4.2800000000000005E-002    -72246.562500000000     
   4.3900000000000022E-002    -70553.078125000000     
   4.5000000000000012E-002    -67830.945312500000     
   4.6100000000000002E-002    -63987.613281250000     
   4.7200000000000020E-002    -58931.703125000000     
   4.8300000000000010E-002    -52589.214843750000     
   4.9400000000000027E-002    -44881.953125000000     
   5.0500000000000017E-002    -35763.304687500000     
   5.1600000000000007E-002    -25198.412109375000     
   5.2700000000000025E-002    -13178.223632812500     
   5.3800000000000014E-002     300.54147338867188     
   5.4900000000000004E-002     15202.917968750000     
   5.6000000000000022E-002     31477.419921875000     
   5.7100000000000012E-002     49012.929687500000     
   5.8200000000000002E-002     67688.820312500000     
   5.9300000000000019E-002     87396.695312500000     
   6.0400000000000009E-002     107957.53125000000     
   6.1500000000000027E-002     129147.88281250000     
   6.2600000000000017E-002     150730.64062500000     
   6.3700000000000007E-002     172435.90625000000     
   6.4800000000000024E-002     193982.50000000000     
   6.5900000000000014E-002     215082.95312500000     
   6.7000000000000004E-002     235408.50000000000     
   6.8100000000000022E-002     254616.17187500000     
   6.9200000000000012E-002     272364.84375000000     
   7.0300000000000029E-002     288294.06250000000     
   7.1400000000000019E-002     302072.25000000000     
   7.2500000000000009E-002     313361.56250000000     
   7.3600000000000027E-002     321867.81250000000     
   7.4700000000000016E-002     327321.96875000000     
   7.5800000000000006E-002     329497.00000000000     
   7.6900000000000024E-002     328141.96875000000     
   7.8000000000000014E-002     323057.31250000000     
   7.9100000000000004E-002     314117.15625000000     
   8.0200000000000021E-002     301320.43750000000     
   8.1300000000000011E-002     284694.03125000000     
   8.2400000000000029E-002     264295.90625000000     
   8.3500000000000019E-002     240179.93750000000     
   8.4600000000000009E-002     212493.46875000000     
   8.5700000000000026E-002     181506.68750000000     
   8.6800000000000016E-002     147588.50000000000     
   8.7900000000000006E-002     111118.87500000000     
   8.9000000000000024E-002     72485.945312500000     
   9.0100000000000013E-002     32124.669921875000     
   9.1200000000000003E-002    -9486.2929687500000     
   9.2300000000000021E-002    -51814.664062500000     
   9.3400000000000011E-002    -94319.781250000000     
   9.4500000000000028E-002    -136436.32812500000     
   9.5600000000000018E-002    -177522.01562500000     
   9.6700000000000008E-002    -217021.50000000000     
   9.7800000000000026E-002    -254480.56250000000     
   9.8900000000000016E-002    -289456.31250000000     
  0.10000000000000001         -321474.84375000000     
  0.10110000000000002         -350015.62500000000     
  0.10220000000000001         -374643.50000000000     
  0.10330000000000003         -395092.34375000000     
  0.10440000000000002         -411198.84375000000     
  0.10550000000000001         -422841.90625000000     
  0.10660000000000003         -429851.71875000000     
  0.10770000000000002         -432207.43750000000     
  0.10880000000000001         -429877.75000000000     
  0.10990000000000003         -422950.46875000000     
  0.11100000000000002         -411662.21875000000     
  0.11210000000000001         -396329.12500000000     
  0.11320000000000002         -377291.06250000000     
  0.11430000000000001         -354811.12500000000     
  0.11540000000000003         -329218.75000000000     
  0.11650000000000002         -300932.21875000000     
  0.11760000000000001         -270448.62500000000     
  0.11870000000000003         -238297.70312500000     
  0.11980000000000002         -204976.87500000000     
  0.12090000000000001         -170925.21875000000     
  0.12200000000000003         -136548.12500000000     
  0.12310000000000001         -102300.65625000000     
  0.12420000000000003         -68606.062500000000     
  0.12530000000000002         -35926.929687500000     
  0.12640000000000001         -4628.0673828125000     
  0.12750000000000003          24977.984375000000     
  0.12860000000000002          52623.046875000000     
  0.12970000000000001          78093.937500000000     
  0.13080000000000003          101240.04687500000     
  0.13190000000000002          121912.34375000000     
  0.13300000000000001          139979.00000000000     
  0.13410000000000000          155350.35937500000     
  0.13520000000000004          168031.87500000000     
  0.13630000000000003          178130.68750000000     
  0.13740000000000002          185780.57812500000     
  0.13850000000000001          191067.78125000000     
  0.13960000000000000          194044.45312500000     
  0.14070000000000005          194823.85937500000     
  0.14180000000000004          193629.17187500000     
  0.14290000000000003          190739.96875000000     
  0.14400000000000002          186388.98437500000     
  0.14510000000000001          180738.75000000000     
  0.14620000000000000          173955.89062500000     
  0.14730000000000004          166248.89062500000     
  0.14840000000000003          157844.76562500000     
  0.14950000000000002          148945.73437500000     
  0.15060000000000001          139742.75000000000     
  0.15170000000000000          130448.64062500000     
  0.15280000000000005          121260.59375000000     
  0.15390000000000004          112277.32812500000     
  0.15500000000000003          103514.02343750000     
  0.15610000000000002          95045.929687500000     
  0.15720000000000001          87067.648437500000     
  0.15830000000000000          79784.015625000000     
  0.15940000000000004          73240.835937500000     
  0.16050000000000003          67316.921875000000     
  0.16160000000000002          61911.136718750000     
  0.16270000000000001          57087.535156250000     
  0.16380000000000000          52966.781250000000     
  0.16490000000000005          49565.425781250000     
  0.16600000000000004          46765.460937500000     
  0.16710000000000003          44447.191406250000     
  0.16820000000000002          42554.921875000000     
  0.16930000000000001          41032.222656250000     
  0.17040000000000000          39750.093750000000     
  0.17150000000000004          38591.375000000000     
  0.17260000000000003          37552.988281250000     
  0.17370000000000002          36650.558593750000     
  0.17480000000000001          35731.988281250000     
  0.17590000000000000          34490.867187500000     
  0.17700000000000005          32721.849609375000     
  0.17810000000000004          30478.566406250000     
  0.17920000000000003          27891.007812500000     
  0.18030000000000002          24878.054687500000     
  0.18140000000000001          21147.607421875000     
  0.18250000000000000          16477.843750000000     
  0.18360000000000004          10894.175781250000     
  0.18470000000000003          4514.3457031250000     
  0.18580000000000002         -2680.3186035156250     
  0.18690000000000001         -10824.924804687500     
  0.18800000000000000         -19930.279296875000     
  0.18910000000000005         -29876.777343750000     
  0.19020000000000004         -40600.937500000000     
  0.19130000000000003         -52176.535156250000     
  0.19240000000000002         -64611.441406250000     
  0.19350000000000001         -77665.476562500000     
  0.19460000000000005         -90999.062500000000     
  0.19570000000000004         -104499.97656250000     
  0.19680000000000003         -118221.57031250000     
  0.19790000000000002         -132132.39062500000     
  0.19900000000000001         -145867.10937500000     
  0.20010000000000000         -158991.48437500000     
  0.20120000000000005         -171306.26562500000     
  0.20230000000000004         -182803.57812500000     
  0.20340000000000003         -193320.25000000000     
  0.20450000000000002         -202480.71875000000     
  0.20560000000000000         -209932.89062500000     
  0.20670000000000005         -215584.82812500000     
  0.20780000000000004         -219407.39062500000     
  0.20890000000000003         -221172.14062500000     
