 -0.12000000000000000          0.0000000000000000
 -0.11889999999999999          0.0000000000000000
 -0.11780000000000000          0.0000000000000000
 -0.11670000000000000          0.0000000000000000
 -0.11559999999999999          0.0000000000000000
 -0.11449999999999999          1.4284272566454691E-015
 -0.11340000000000000         -2.4924151996029865E-015
 -0.11230000000000000         -1.3384939993388648E-014
 -0.11119999999999999          2.1669274583241763E-014
 -0.11009999999999999          9.6478468931352618E-014
 -0.10900000000000000         -6.4762987182255538E-014
 -0.10790000000000000         -5.1346714423708417E-013
 -0.10679999999999999         -1.4715542694977712E-013
 -0.10569999999999999          1.8767448532741593E-012
 -0.10460000000000000          2.3827196726083910E-012
 -0.10349999999999999         -3.7394427832015964E-012
 -0.10239999999999999         -1.1419124326672581E-011
 -0.10130000000000000         -2.0969820931776573E-012
 -0.10020000000000000          2.8348457262183935E-011
  -9.9099999999999994E-002     3.8769619459255722E-011
  -9.7999999999999990E-002    -2.0811784587349003E-011
  -9.6899999999999986E-002    -1.1168242025627606E-010
  -9.5799999999999996E-002    -9.2685907560063896E-011
  -9.4699999999999993E-002     1.0614287920818199E-010
  -9.3599999999999989E-002     3.0103763926092597E-010
  -9.2499999999999999E-002     1.8590765038517532E-010
  -9.1399999999999995E-002    -2.5472474129983880E-010
  -9.0299999999999991E-002    -5.8175564365825494E-010
  -8.9200000000000002E-002    -3.5416372612395719E-010
  -8.8099999999999984E-002     2.7511035116667415E-010
  -8.6999999999999994E-002     6.7017613680775412E-010
  -8.5899999999999990E-002     5.1441351178738159E-010
  -8.4799999999999986E-002     2.1862112120629718E-010
  -8.3699999999999997E-002     2.5128918390571187E-010
  -8.2599999999999993E-002     2.7846500105788152E-010
  -8.1499999999999989E-002    -5.3182985793043258E-010
  -8.0399999999999999E-002    -2.2713591008027834E-009
  -7.9299999999999995E-002    -3.7994576373989730E-009
  -7.8199999999999992E-002    -3.6941329994988337E-009
  -7.7100000000000002E-002    -1.2695934303863510E-009
  -7.5999999999999984E-002     3.6348308807276908E-009
  -7.4899999999999994E-002     1.1205787409096502E-008
  -7.3799999999999991E-002     2.1071231870450902E-008
  -7.2699999999999987E-002     3.1462864313880345E-008
  -7.1599999999999997E-002     4.0369371845372370E-008
  -7.0499999999999993E-002     4.8108038441796452E-008
  -6.9399999999999989E-002     5.7568318112544148E-008
  -6.8300000000000000E-002     7.0786633443731262E-008
  -6.7199999999999996E-002     8.6315402825221099E-008
  -6.6099999999999992E-002     1.0202877120946141E-007
  -6.5000000000000002E-002     1.2042835351167014E-007
  -6.3899999999999985E-002     1.4856044572297833E-007
  -6.2799999999999995E-002     1.9108965432224068E-007
  -6.1699999999999991E-002     2.4523859565306338E-007
  -6.0599999999999994E-002     3.0510221904478385E-007
  -5.9499999999999990E-002     3.7036278399682487E-007
  -5.8399999999999994E-002     4.4808237475990609E-007
  -5.7299999999999990E-002     5.4581528274866287E-007
  -5.6199999999999986E-002     6.6625733552427846E-007
  -5.5099999999999996E-002     8.1032453635998536E-007
  -5.3999999999999992E-002     9.8234568213229068E-007
  -5.2899999999999989E-002     1.1887321988979238E-006
  -5.1799999999999985E-002     1.4335653304442530E-006
  -5.0699999999999995E-002     1.7206435813932330E-006
  -4.9599999999999991E-002     2.0601564756361768E-006
  -4.8499999999999988E-002     2.4675296117493417E-006
  -4.7399999999999998E-002     2.9524976525863167E-006
  -4.6299999999999994E-002     3.5145028505212395E-006
  -4.5199999999999990E-002     4.1555563257134054E-006
  -4.4099999999999986E-002     4.8957140279526357E-006
  -4.2999999999999997E-002     5.7676757023727987E-006
  -4.1899999999999993E-002     6.7942869463877287E-006
  -4.0799999999999989E-002     7.9788696893956512E-006
  -3.9699999999999985E-002     9.3232474682736211E-006
  -3.8599999999999995E-002     1.0849553291336633E-005
  -3.7499999999999992E-002     1.2595945918292273E-005
  -3.6399999999999988E-002     1.4593531886930577E-005
  -3.5299999999999984E-002     1.6858361050253734E-005
  -3.4199999999999994E-002     1.9407852960284799E-005
  -3.3099999999999991E-002     2.2273756258073263E-005
  -3.1999999999999987E-002     2.5490717234788463E-005
  -3.0899999999999997E-002     2.9080754757160321E-005
  -2.9799999999999993E-002     3.3061667636502534E-005
  -2.8699999999999989E-002     3.7467521906364709E-005
  -2.7599999999999986E-002     4.2344545363448560E-005
  -2.6499999999999996E-002     4.7720815928187221E-005
  -2.5399999999999992E-002     5.3594638302456588E-005
  -2.4299999999999988E-002     5.9963644162053242E-005
  -2.3199999999999985E-002     6.6855507611762732E-005
  -2.2099999999999995E-002     7.4312243668828160E-005
  -2.0999999999999991E-002     8.2345679402351379E-005
  -1.9899999999999987E-002     9.0926878328900784E-005
  -1.8799999999999983E-002     1.0002391354646534E-004
  -1.7699999999999994E-002     1.0963048407575116E-004
  -1.6599999999999990E-002     1.1974066728726029E-004
  -1.5499999999999986E-002     1.3030857371632010E-004
  -1.4399999999999996E-002     1.4125520829111338E-004
  -1.3299999999999992E-002     1.5251175500452518E-004
  -1.2199999999999989E-002     1.6402605979237705E-004
  -1.1099999999999985E-002     1.7571850912645459E-004
  -9.9999999999999950E-003     1.8744885164778680E-004
  -8.8999999999999913E-003     1.9905640510842204E-004
  -7.7999999999999875E-003     2.1041430591139942E-004
  -6.6999999999999837E-003     2.2141548106446862E-004
  -5.5999999999999939E-003     2.3190707725007087E-004
  -4.4999999999999901E-003     2.4166385992430151E-004
  -3.3999999999999864E-003     2.5045298389159143E-004
  -2.2999999999999826E-003     2.5808680220507085E-004
  -1.1999999999999927E-003     2.6439581415615976E-004
  -9.9999999999988987E-005     2.6916764909401536E-004
   1.0000000000000148E-003     2.7214427245780826E-004
   2.1000000000000185E-003     2.7309273718856275E-004
   3.2000000000000084E-003     2.7183318161405623E-004
   4.3000000000000121E-003     2.6818510377779603E-004
   5.4000000000000159E-003     2.6192047516815364E-004
   6.5000000000000058E-003     2.5281548732891679E-004
   7.6000000000000234E-003     2.4073384702205658E-004
   8.7000000000000133E-003     2.2561571677215397E-004
   9.8000000000000032E-003     2.0738322928082198E-004
   1.0900000000000021E-002     1.8590767285786569E-004
   1.2000000000000011E-002     1.6110036813188344E-004
   1.3100000000000001E-002     1.3300412683747709E-004
   1.4200000000000018E-002     1.0176062642131001E-004
   1.5300000000000008E-002     6.7491506342776120E-005
   1.6400000000000026E-002     3.0292281735455617E-005
   1.7500000000000016E-002    -9.6695266620372422E-006
   1.8600000000000005E-002    -5.2096140279900283E-005
   1.9700000000000023E-002    -9.6633390057832003E-005
   2.0800000000000013E-002    -1.4295038999989629E-004
   2.1900000000000003E-002    -1.9070545386057347E-004
   2.3000000000000020E-002    -2.3944753047544509E-004
   2.4100000000000010E-002    -2.8862481121905148E-004
   2.5200000000000000E-002    -3.3770300797186792E-004
   2.6300000000000018E-002    -3.8622549618594348E-004
   2.7400000000000008E-002    -4.3371409992687404E-004
   2.8500000000000025E-002    -4.7956503112800419E-004
   2.9600000000000015E-002    -5.2311352919787169E-004
   3.0700000000000005E-002    -5.6378962472081184E-004
   3.1800000000000023E-002    -6.0115230735391378E-004
   3.2900000000000013E-002    -6.3475564820691943E-004
   3.4000000000000002E-002    -6.6406291443854570E-004
   3.5100000000000020E-002    -6.8855279823765159E-004
   3.6200000000000010E-002    -7.0786237483844161E-004
   3.7300000000000028E-002    -7.2175916284322739E-004
   3.8400000000000017E-002    -7.2999723488464952E-004
   3.9500000000000007E-002    -7.3229416739195585E-004
   4.0600000000000025E-002    -7.2848272975534201E-004
   4.1700000000000015E-002    -7.1860296884551644E-004
   4.2800000000000005E-002    -7.0279068313539028E-004
   4.3900000000000022E-002    -6.8112666485831141E-004
   4.5000000000000012E-002    -6.5368891227990389E-004
   4.6100000000000002E-002    -6.2072515720501542E-004
   4.7200000000000020E-002    -5.8269273722544312E-004
   4.8300000000000010E-002    -5.4008595179766417E-004
   4.9400000000000027E-002    -4.9330375622957945E-004
   5.0500000000000017E-002    -4.4275730033405125E-004
   5.1600000000000007E-002    -3.8903500535525382E-004
   5.2700000000000025E-002    -3.3285858808085322E-004
   5.3800000000000014E-002    -2.7488521300256252E-004
   5.4900000000000004E-002    -2.1565049246419221E-004
   5.6000000000000022E-002    -1.5572470147162676E-004
   5.7100000000000012E-002    -9.5836512628011405E-005
   5.8200000000000002E-002    -3.6741970689035952E-005
   5.9300000000000019E-002     2.0981107809348032E-005
   6.0400000000000009E-002     7.6908538176212460E-005
   6.1500000000000027E-002     1.3054898590780795E-004
   6.2600000000000017E-002     1.8128548981621861E-004
   6.3700000000000007E-002     2.2857426665723324E-004
   6.4800000000000024E-002     2.7210862026549876E-004
   6.5900000000000014E-002     3.1171756563708186E-004
   6.7000000000000004E-002     3.4714565845206380E-004
   6.8100000000000022E-002     3.7807074841111898E-004
   6.9200000000000012E-002     4.0432036621496081E-004
   7.0300000000000029E-002     4.2595496051944792E-004
   7.1400000000000019E-002     4.4307752978056669E-004
   7.2500000000000009E-002     4.5567462802864611E-004
   7.3600000000000027E-002     4.6372585347853601E-004
   7.4700000000000016E-002     4.6741624828428030E-004
   7.5800000000000006E-002     4.6711793402209878E-004
   7.6900000000000024E-002     4.6314764767885208E-004
   7.8000000000000014E-002     4.5565803884528577E-004
   7.9100000000000004E-002     4.4482838711701334E-004
   8.0200000000000021E-002     4.3105805525556207E-004
   8.1300000000000011E-002     4.1485441033728421E-004
   8.2400000000000029E-002     3.9658398600295186E-004
   8.3500000000000019E-002     3.7645013071596622E-004
   8.4600000000000009E-002     3.5472551826387644E-004
   8.5700000000000026E-002     3.3186626387760043E-004
   8.6800000000000016E-002     3.0832315678708255E-004
   8.7900000000000006E-002     2.8434235719032586E-004
   8.9000000000000024E-002     2.6006237021647394E-004
   9.0100000000000013E-002     2.3575522936880589E-004
   9.1200000000000003E-002     2.1183266653679311E-004
   9.2300000000000021E-002     1.8859142437577248E-004
   9.3400000000000011E-002     1.6608572332188487E-004
   9.4500000000000028E-002     1.4432726311497390E-004
   9.5600000000000018E-002     1.2351124314591289E-004
   9.6700000000000008E-002     1.0392980766482651E-004
   9.7800000000000026E-002     8.5702027718070894E-005
   9.8900000000000016E-002     6.8731133069377393E-005
  0.10000000000000001          5.2949977543903515E-005
  0.10110000000000002          3.8476184272440150E-005
  0.10220000000000001          2.5451381588936783E-005
  0.10330000000000003          1.3819616469845641E-005
  0.10440000000000002          3.3925850857485784E-006
  0.10550000000000001         -5.8967716540792026E-006
  0.10660000000000003         -1.3954283531347755E-005
  0.10770000000000002         -2.0753868739120662E-005
  0.10880000000000001         -2.6483223336981609E-005
  0.10990000000000003         -3.1365572795039043E-005
  0.11100000000000002         -3.5426404792815447E-005
  0.11210000000000001         -3.8565551221836358E-005
  0.11320000000000002         -4.0823011659085751E-005
  0.11430000000000001         -4.2435141949681565E-005
  0.11540000000000003         -4.3592899601208046E-005
  0.11650000000000002         -4.4267286284593865E-005
  0.11760000000000001         -4.4368713133735582E-005
  0.11870000000000003         -4.3987060053041205E-005
  0.11980000000000002         -4.3347445171093568E-005
  0.12090000000000001         -4.2553430830594152E-005
  0.12200000000000003         -4.1513332689646631E-005
  0.12310000000000001         -4.0162543882615864E-005
  0.12420000000000003         -3.8634159864159301E-005
  0.12530000000000002         -3.7117377360118553E-005
  0.12640000000000001         -3.5623001167550683E-005
  0.12750000000000003         -3.4017903089988977E-005
  0.12860000000000002         -3.2273124816128984E-005
  0.12970000000000001         -3.0541687010554597E-005
  0.13080000000000003         -2.8952310458407737E-005
  0.13190000000000002         -2.7438509277999401E-005
  0.13300000000000001         -2.5866676878649741E-005
  0.13410000000000000         -2.4261265934910625E-005
  0.13520000000000004         -2.2779891878599301E-005
  0.13630000000000003         -2.1478621420101263E-005
  0.13740000000000002         -2.0231173039064743E-005
  0.13850000000000001         -1.8928385543404147E-005
  0.13960000000000000         -1.7649294022703543E-005
  0.14070000000000005         -1.6542546291020699E-005
  0.14180000000000004         -1.5599704056512564E-005
  0.14290000000000003         -1.4668564290332142E-005
  0.14400000000000002         -1.3681556993105914E-005
  0.14510000000000001         -1.2749759662256110E-005
  0.14620000000000000         -1.1985628589172848E-005
  0.14730000000000004         -1.1330002962495200E-005
  0.14840000000000003         -1.0646020200510975E-005
  0.14950000000000002         -9.9269682323210873E-006
  0.15060000000000001         -9.2973268692730926E-006
  0.15170000000000000         -8.8112356024794281E-006
  0.15280000000000005         -8.3632348832907155E-006
  0.15390000000000004         -7.8483008110197261E-006
  0.15500000000000003         -7.3205101216444746E-006
  0.15610000000000002         -6.9070420067873783E-006
  0.15720000000000001         -6.6106158556067385E-006
  0.15830000000000000         -6.3028123804542702E-006
  0.15940000000000004         -5.9149469961994328E-006
  0.16050000000000003         -5.5340119615721051E-006
  0.16160000000000002         -5.2636210057244170E-006
  0.16270000000000001         -5.0669355005084071E-006
  0.16380000000000000         -4.8293604777427390E-006
  0.16490000000000005         -4.5344659156398848E-006
  0.16600000000000004         -4.2812557694560383E-006
  0.16710000000000003         -4.1235621210944373E-006
  0.16820000000000002         -3.9849364839028567E-006
  0.16930000000000001         -3.7781824175908696E-006
  0.17040000000000000         -3.5405421385803493E-006
  0.17150000000000004         -3.3751116461644415E-006
  0.17260000000000003         -3.2909943001868669E-006
  0.17370000000000002         -3.1884176223684335E-006
  0.17480000000000001         -3.0088874609646155E-006
  0.17590000000000000         -2.8204342470417032E-006
  0.17700000000000005         -2.7118894649902359E-006
  0.17810000000000004         -2.6607435756886844E-006
  0.17920000000000003         -2.5723104499775218E-006
  0.18030000000000002         -2.4223968466685619E-006
  0.18140000000000001         -2.2865442588226870E-006
  0.18250000000000000         -2.2193889890331775E-006
  0.18360000000000004         -2.1738710529461969E-006
  0.18470000000000003         -2.0792499526578467E-006
  0.18580000000000002         -1.9496210370562039E-006
  0.18690000000000001         -1.8575149169919314E-006
  0.18800000000000000         -1.8194980384578230E-006
  0.18910000000000005         -1.7722807115205796E-006
  0.19020000000000004         -1.6716880963940639E-006
  0.19130000000000003         -1.5576648593196296E-006
  0.19240000000000002         -1.4887261841067811E-006
  0.19350000000000001         -1.4510513892673771E-006
  0.19460000000000005         -1.3813240684612538E-006
  0.19570000000000004         -1.2637557347261463E-006
  0.19680000000000003         -1.1504722579047666E-006
  0.19790000000000002         -1.0779696140161832E-006
  0.19900000000000001         -1.0099888640979771E-006
  0.20010000000000000         -8.9172311845686636E-007
  0.20120000000000005         -7.2902474812508444E-007
  0.20230000000000004         -5.7392816188439610E-007
  0.20340000000000003         -4.4253266651139711E-007
  0.20450000000000002         -2.9014881874900311E-007
  0.20560000000000000         -7.5291914924946468E-008
  0.20670000000000005          1.8758197484203265E-007
  0.20780000000000004          4.6158947952790186E-007
  0.20890000000000003          7.4944784955732757E-007
