 -0.12000000000000000          0.0000000000000000     
 -0.11889999999999999          0.0000000000000000     
 -0.11780000000000000          0.0000000000000000     
 -0.11670000000000000          0.0000000000000000     
 -0.11559999999999999          0.0000000000000000     
 -0.11449999999999999          0.0000000000000000     
 -0.11340000000000000          2.0533333888023789E-018
 -0.11230000000000000          1.2251536454669638E-018
 -0.11119999999999999         -2.0092491702876410E-017
 -0.11009999999999999         -2.0840848620498034E-017
 -0.10900000000000000          7.5648082385363036E-017
 -0.10790000000000000          7.0868831329378655E-017
 -0.10679999999999999         -1.9141102311286910E-016
 -0.10569999999999999          2.9956344560118917E-016
 -0.10460000000000000          1.6836023906320499E-015
 -0.10349999999999999         -1.5620693622061740E-015
 -0.10239999999999999         -1.2462664262396801E-014
 -0.10130000000000000         -9.2464352689260176E-015
 -0.10020000000000000          3.8092155840198372E-014
  -9.9099999999999994E-002     8.5302147019138824E-014
  -9.7999999999999990E-002     2.5351685523409368E-015
  -9.6899999999999986E-002    -2.2073827683245784E-013
  -9.5799999999999996E-002    -3.0220303256361936E-013
  -9.4699999999999993E-002     2.5191022431556541E-014
  -9.3599999999999989E-002     5.1166102604804919E-013
  -9.2499999999999999E-002     6.7821551326396889E-013
  -9.1399999999999995E-002     6.5971349477028651E-013
  -9.0299999999999991E-002     6.6506386986117660E-013
  -8.9200000000000002E-002    -8.1036831975703216E-013
  -8.8099999999999984E-002    -5.5713268200252575E-012
  -8.6999999999999994E-002    -9.6427718240810201E-012
  -8.5899999999999990E-002    -2.2771179473274339E-012
  -8.4799999999999986E-002     2.0021815802517828E-011
  -8.3699999999999997E-002     3.7833257360286865E-011
  -8.2599999999999993E-002     2.1393288182625092E-011
  -8.1499999999999989E-002    -3.0387987265401151E-011
  -8.0399999999999999E-002    -7.6609704691144032E-011
  -7.9299999999999995E-002    -7.8853382157184626E-011
  -7.8199999999999992E-002    -4.3702128721401223E-011
  -7.7100000000000002E-002     1.4185408923894638E-011
  -7.5999999999999984E-002     1.3021589362338659E-010
  -7.4899999999999994E-002     3.1957378410218951E-010
  -7.3799999999999991E-002     4.1642717052425837E-010
  -7.2699999999999987E-002     1.2392888104617583E-010
  -7.1599999999999997E-002    -5.9405425023584257E-010
  -7.0499999999999993E-002    -1.2226473167231688E-009
  -6.9399999999999989E-002    -1.0753077317460225E-009
  -6.8300000000000000E-002    -8.2700214731890043E-011
  -6.7199999999999996E-002     1.0535944339196135E-009
  -6.6099999999999992E-002     1.7162943288795418E-009
  -6.5000000000000002E-002     2.0552701762710512E-009
  -6.3899999999999985E-002     2.2871231575294360E-009
  -6.2799999999999995E-002     1.5559258326192094E-009
  -6.1699999999999991E-002    -1.4017540461708222E-009
  -6.0599999999999994E-002    -5.8784364043162896E-009
  -5.9499999999999990E-002    -8.5155473783515845E-009
  -5.8399999999999994E-002    -6.4707701419308705E-009
  -5.7299999999999990E-002    -9.9477270865122591E-010
  -5.6199999999999986E-002     3.9836289822403614E-009
  -5.5099999999999996E-002     7.2912831328153516E-009
  -5.3999999999999992E-002     1.2107840952069182E-008
  -5.2899999999999989E-002     1.9839548670574914E-008
  -5.1799999999999985E-002     2.4082014604687174E-008
  -5.0699999999999995E-002     1.5000697572986610E-008
  -4.9599999999999991E-002    -8.9684206727724813E-009
  -4.8499999999999988E-002    -3.7253386153679457E-008
  -4.7399999999999998E-002    -5.7518072082984872E-008
  -4.6299999999999994E-002    -6.6478051508056524E-008
  -4.5199999999999990E-002    -6.5362513623767882E-008
  -4.4099999999999986E-002    -4.6994696134561309E-008
  -4.2999999999999997E-002     2.8166635690496378E-009
  -4.1899999999999993E-002     8.5035729568971874E-008
  -4.0799999999999989E-002     1.7364033055855543E-007
  -3.9699999999999985E-002     2.3028060525120964E-007
  -3.8599999999999995E-002     2.3204458443615295E-007
  -3.7499999999999992E-002     1.7786939565667126E-007
  -3.6399999999999988E-002     6.9101488975320535E-008
  -3.5299999999999984E-002    -1.0199848787806332E-007
  -3.4199999999999994E-002    -3.3289859402430011E-007
  -3.3099999999999991E-002    -5.8454168083699187E-007
  -3.1999999999999987E-002    -7.8551391879955190E-007
  -3.0899999999999997E-002    -8.6215345618256833E-007
  -2.9799999999999993E-002    -7.5639547958417097E-007
  -2.8699999999999989E-002    -4.2018893964268500E-007
  -2.7599999999999986E-002     1.8087693831603247E-007
  -2.6499999999999996E-002     1.0371308007961488E-006
  -2.5399999999999992E-002     2.0757775018864777E-006
  -2.4299999999999988E-002     3.1938620850269217E-006
  -2.3199999999999985E-002     4.3135351006640121E-006
  -2.2099999999999995E-002     5.3915846365271136E-006
  -2.0999999999999991E-002     6.3824045355431736E-006
  -1.9899999999999987E-002     7.2358161560259759E-006
  -1.8799999999999983E-002     7.9719320638105273E-006
  -1.7699999999999994E-002     8.7519138105562888E-006
  -1.6599999999999990E-002     9.8392483778297901E-006
  -1.5499999999999986E-002     1.1480561624921393E-005
  -1.4399999999999996E-002     1.3847276932210661E-005
  -1.3299999999999992E-002     1.7095786461140960E-005
  -1.2199999999999989E-002     2.1431478671729565E-005
  -1.1099999999999985E-002     2.7056006729253568E-005
  -9.9999999999999950E-003     3.4060620237141848E-005
  -8.8999999999999913E-003     4.2434541683178395E-005
  -7.7999999999999875E-003     5.2215091272955760E-005
  -6.6999999999999837E-003     6.3611405494157225E-005
  -5.5999999999999939E-003     7.6968404755461961E-005
  -4.4999999999999901E-003     9.2658876383211464E-005
  -3.3999999999999864E-003     1.1107425962109119E-004
  -2.2999999999999826E-003     1.3271429634187371E-004
  -1.1999999999999927E-003     1.5822573914192617E-004
  -9.9999999999988987E-005     1.8832924251910299E-004
   1.0000000000000148E-003     2.2375158732756972E-004
   2.1000000000000185E-003     2.6526185683906078E-004
   3.2000000000000084E-003     3.1371859950013459E-004
   4.3000000000000121E-003     3.7000112934038043E-004
   5.4000000000000159E-003     4.3492208351381123E-004
   6.5000000000000058E-003     5.0930486759170890E-004
   7.6000000000000234E-003     5.9418543241918087E-004
   8.7000000000000133E-003     6.9086038274690509E-004
   9.8000000000000032E-003     8.0065178917720914E-004
   1.0900000000000021E-002     9.2469534138217568E-004
   1.2000000000000011E-002     1.0640519903972745E-003
   1.3100000000000001E-002     1.2200074270367622E-003
   1.4200000000000018E-002     1.3941522920504212E-003
   1.5300000000000008E-002     1.5880758874118328E-003
   1.6400000000000026E-002     1.8030296778306365E-003
   1.7500000000000016E-002     2.0399077329784632E-003
   1.8600000000000005E-002     2.2994645405560732E-003
   1.9700000000000023E-002     2.5823744945228100E-003
   2.0800000000000013E-002     2.8890080284327269E-003
   2.1900000000000003E-002     3.2192708458751440E-003
   2.3000000000000020E-002     3.5726516507565975E-003
   2.4100000000000010E-002     3.9483527652919292E-003
   2.5200000000000000E-002     4.3452703393995762E-003
   2.6300000000000018E-002     4.7618057578802109E-003
   2.7400000000000008E-002     5.1955697126686573E-003
   2.8500000000000025E-002     5.6434399448335171E-003
   2.9600000000000015E-002     6.1017135158181190E-003
   3.0700000000000005E-002     6.5657617524266243E-003
   3.1800000000000023E-002     7.0296996273100376E-003
   3.2900000000000013E-002     7.4863675981760025E-003
   3.4000000000000002E-002     7.9279392957687378E-003
   3.5100000000000020E-002     8.3461701869964600E-003
   3.6200000000000010E-002     8.7316799908876419E-003
   3.7300000000000028E-002     9.0739252045750618E-003
   3.8400000000000017E-002     9.3618305400013924E-003
   3.9500000000000007E-002     9.5839146524667740E-003
   4.0600000000000025E-002     9.7281988710165024E-003
   4.1700000000000015E-002     9.7822193056344986E-003
   4.2800000000000005E-002     9.7330668941140175E-003
   4.3900000000000022E-002     9.5670726150274277E-003
   4.5000000000000012E-002     9.2710815370082855E-003
   4.6100000000000002E-002     8.8329855352640152E-003
   4.7200000000000020E-002     8.2414150238037109E-003
   4.8300000000000010E-002     7.4859135784208775E-003
   4.9400000000000027E-002     6.5568606369197369E-003
   5.0500000000000017E-002     5.4465816356241703E-003
   5.1600000000000007E-002     4.1505950503051281E-003
   5.2700000000000025E-002     2.6670638471841812E-003
   5.3800000000000014E-002     9.9523470271378756E-004
   5.4900000000000004E-002    -8.6208409629762173E-004
   5.6000000000000022E-002    -2.8977226465940475E-003
   5.7100000000000012E-002    -5.1015308126807213E-003
   5.8200000000000002E-002    -7.4596703052520752E-003
   5.9300000000000019E-002    -9.9552376195788383E-003
   6.0400000000000009E-002    -1.2566656805574894E-002
   6.1500000000000027E-002    -1.5268104150891304E-002
   6.2600000000000017E-002    -1.8030824139714241E-002
   6.3700000000000007E-002    -2.0822897553443909E-002
   6.4800000000000024E-002    -2.3608053103089333E-002
   6.5900000000000014E-002    -2.6346921920776367E-002
   6.7000000000000004E-002    -2.8999503701925278E-002
   6.8100000000000022E-002    -3.1525142490863800E-002
   6.9200000000000012E-002    -3.3881776034832001E-002
   7.0300000000000029E-002    -3.6024384200572968E-002
   7.1400000000000019E-002    -3.7906441837549210E-002
   7.2500000000000009E-002    -3.9484869688749313E-002
   7.3600000000000027E-002    -4.0723338723182678E-002
   7.4700000000000016E-002    -4.1589338332414627E-002
   7.5800000000000006E-002    -4.2050331830978394E-002
   7.6900000000000024E-002    -4.2074248194694519E-002
   7.8000000000000014E-002    -4.1635889559984207E-002
   7.9100000000000004E-002    -4.0719851851463318E-002
   8.0200000000000021E-002    -3.9318718016147614E-002
   8.1300000000000011E-002    -3.7431932985782623E-002
   8.2400000000000029E-002    -3.5065520554780960E-002
   8.3500000000000019E-002    -3.2231852412223816E-002
   8.4600000000000009E-002    -2.8949059545993805E-002
   8.5700000000000026E-002    -2.5243004783987999E-002
   8.6800000000000016E-002    -2.1150171756744385E-002
   8.7900000000000006E-002    -1.6718449071049690E-002
   8.9000000000000024E-002    -1.2001926079392433E-002
   9.0100000000000013E-002    -7.0553286932408810E-003
   9.1200000000000003E-002    -1.9334311364218593E-003
   9.2300000000000021E-002     3.3039238769561052E-003
   9.3400000000000011E-002     8.5879666730761528E-003
   9.4500000000000028E-002     1.3844382949173450E-002
   9.5600000000000018E-002     1.9000066444277763E-002
   9.6700000000000008E-002     2.3987725377082825E-002
   9.7800000000000026E-002     2.8745668008923531E-002
   9.8900000000000016E-002     3.3214960247278214E-002
  0.10000000000000001          3.7335779517889023E-002
  0.10110000000000002          4.1048612445592880E-002
  0.10220000000000001          4.4302113354206085E-002
  0.10330000000000003          4.7057595103979111E-002
  0.10440000000000002          4.9288395792245865E-002
  0.10550000000000001          5.0975970923900604E-002
  0.10660000000000003          5.2104160189628601E-002
  0.10770000000000002          5.2659802138805389E-002
  0.10880000000000001          5.2640661597251892E-002
  0.10990000000000003          5.2060563117265701E-002
  0.11100000000000002          5.0946801900863647E-002
  0.11210000000000001          4.9330752342939377E-002
  0.11320000000000002          4.7240898013114929E-002
  0.11430000000000001          4.4710863381624222E-002
  0.11540000000000003          4.1786413639783859E-002
  0.11650000000000002          3.8523074239492416E-002
  0.11760000000000001          3.4977901726961136E-002
  0.11870000000000003          3.1207635998725891E-002
  0.11980000000000002          2.7269423007965088E-002
  0.12090000000000001          2.3219136521220207E-002
  0.12200000000000003          1.9108789041638374E-002
  0.12310000000000001          1.4989112503826618E-002
  0.12420000000000003          1.0918005369603634E-002
  0.12530000000000002          6.9545414298772812E-003
  0.12640000000000001          3.1460486352443695E-003
  0.12750000000000003         -4.7672350774519145E-004
  0.12860000000000002         -3.8902543019503355E-003
  0.12970000000000001         -7.0629431866109371E-003
  0.13080000000000003         -9.9568804726004601E-003
  0.13190000000000002         -1.2545232661068439E-002
  0.13300000000000001         -1.4820517972111702E-002
  0.13410000000000000         -1.6787266358733177E-002
  0.13520000000000004         -1.8447145819664001E-002
  0.13630000000000003         -1.9795184955000877E-002
  0.13740000000000002         -2.0831078290939331E-002
  0.13850000000000001         -2.1566988900303841E-002
  0.13960000000000000         -2.2021740674972534E-002
  0.14070000000000005         -2.2212535142898560E-002
  0.14180000000000004         -2.2156832739710808E-002
  0.14290000000000003         -2.1878952160477638E-002
  0.14400000000000002         -2.1407125517725945E-002
  0.14510000000000001         -2.0763494074344635E-002
  0.14620000000000000         -1.9963631406426430E-002
  0.14730000000000004         -1.9028406590223312E-002
  0.14840000000000003         -1.7990101128816605E-002
  0.14950000000000002         -1.6880907118320465E-002
  0.15060000000000001         -1.5719085931777954E-002
  0.15170000000000000         -1.4513420872390270E-002
  0.15280000000000005         -1.3280438259243965E-002
  0.15390000000000004         -1.2048592790961266E-002
  0.15500000000000003         -1.0841079056262970E-002
  0.15610000000000002         -9.6627725288271904E-003
  0.15720000000000001         -8.5124168545007706E-003
  0.15830000000000000         -7.4023930355906487E-003
  0.15940000000000004         -6.3558430410921574E-003
  0.16050000000000003         -5.3848107345402241E-003
  0.16160000000000002         -4.4810669496655464E-003
  0.16270000000000001         -3.6336642224341631E-003
  0.16380000000000000         -2.8481287881731987E-003
  0.16490000000000005         -2.1403057035058737E-003
  0.16600000000000004         -1.5150317922234535E-003
  0.16710000000000003         -9.6046330872923136E-004
  0.16820000000000002         -4.6511337859556079E-004
  0.16930000000000001         -3.0249229894252494E-005
  0.17040000000000000          3.4047116059809923E-004
  0.17150000000000004          6.5419240854680538E-004
  0.17260000000000003          9.2234212206676602E-004
  0.17370000000000002          1.1452581966295838E-003
  0.17480000000000001          1.3148461002856493E-003
  0.17590000000000000          1.4348448021337390E-003
  0.17700000000000005          1.5261310618370771E-003
  0.17810000000000004          1.6047192038968205E-003
  0.17920000000000003          1.6629031160846353E-003
  0.18030000000000002          1.6828781226649880E-003
  0.18140000000000001          1.6659864922985435E-003
  0.18250000000000000          1.6359711298719049E-003
  0.18360000000000004          1.6104622045531869E-003
  0.18470000000000003          1.5814487123861909E-003
  0.18580000000000002          1.5323680127039552E-003
  0.18690000000000001          1.4653713442385197E-003
  0.18800000000000000          1.3986766571179032E-003
  0.18910000000000005          1.3401194009929895E-003
  0.19020000000000004          1.2782005360350013E-003
  0.19130000000000003          1.2036859989166260E-003
  0.19240000000000002          1.1270506074652076E-003
  0.19350000000000001          1.0637628147378564E-003
  0.19460000000000005          1.0105359833687544E-003
  0.19570000000000004          9.5029268413782120E-004
  0.19680000000000003          8.7903259554877877E-004
  0.19790000000000002          8.1291957758367062E-004
  0.19900000000000001          7.6397223165258765E-004
  0.20010000000000000          7.2191149229183793E-004
  0.20120000000000005          6.7069829674437642E-004
  0.20230000000000004          6.1413034563884139E-004
  0.20340000000000003          5.7024229317903519E-004
  0.20450000000000002          5.4231198737397790E-004
  0.20560000000000000          5.1190960220992565E-004
  0.20670000000000005          4.6656792983412743E-004
  0.20780000000000004          4.2026152368634939E-004
  0.20890000000000003          3.9422523695975542E-004
