 -0.12000000000000000          0.0000000000000000
 -0.11889999999999999          0.0000000000000000
 -0.11780000000000000          0.0000000000000000
 -0.11670000000000000          1.2546763107634806E-011
 -0.11559999999999999          1.3697711367943732E-011
 -0.11449999999999999         -3.8519888667654101E-011
 -0.11340000000000000         -6.0437016502490337E-011
 -0.11230000000000000          8.1728214473830718E-011
 -0.11119999999999999          2.1664814386923581E-010
 -0.11009999999999999         -3.4040596730289252E-011
 -0.10900000000000000         -4.8208065317467685E-010
 -0.10790000000000000         -2.7206731312290344E-010
 -0.10679999999999999          7.1667344281323153E-010
 -0.10569999999999999          1.0246072879027679E-009
 -0.10460000000000000         -4.2161374391724848E-010
 -0.10349999999999999         -1.8818482327986885E-009
 -0.10239999999999999         -6.0493343667644695E-010
 -0.10130000000000000          2.4258650643815827E-009
 -0.10020000000000000          2.5024655680994101E-009
  -9.9099999999999994E-002    -1.8537364976367599E-009
  -9.7999999999999990E-002    -4.8300967669945294E-009
  -9.6899999999999986E-002    -6.5601379883872823E-010
  -9.5799999999999996E-002     6.4044045622324575E-009
  -9.4699999999999993E-002     5.8165889882388910E-009
  -9.3599999999999989E-002    -3.7803649099998893E-009
  -9.2499999999999999E-002    -9.8755350563806132E-009
  -9.1399999999999995E-002    -2.5646724743921823E-009
  -9.0299999999999991E-002     9.5435108704577942E-009
  -8.9200000000000002E-002     9.3253875732557390E-009
  -8.8099999999999984E-002    -4.2171026670700940E-009
  -8.6999999999999994E-002    -1.2694454376571684E-008
  -8.5899999999999990E-002    -3.9121625938776106E-009
  -8.4799999999999986E-002     9.9854435831048249E-009
  -8.3699999999999997E-002     9.7388079822735563E-009
  -8.2599999999999993E-002    -2.9504445553385494E-009
  -8.1499999999999989E-002    -8.7991400832265754E-009
  -8.0399999999999999E-002    -8.1161882770075522E-010
  -7.9299999999999995E-002     5.8463021090915390E-009
  -7.8199999999999992E-002    -3.1166291769579857E-010
  -7.7100000000000002E-002    -7.3378534359846981E-009
  -7.5999999999999984E-002     2.6067440307003809E-012
  -7.4899999999999994E-002     1.1607259153834093E-008
  -7.3799999999999991E-002     4.7749653120376934E-009
  -7.2699999999999987E-002    -1.6708000316612015E-008
  -7.1599999999999997E-002    -2.0921376631122257E-008
  -7.0499999999999993E-002     5.0175761323600909E-009
  -6.9399999999999989E-002     2.8317584721548883E-008
  -6.8300000000000000E-002     1.2552283656930285E-008
  -6.7199999999999996E-002    -2.6888463011687236E-008
  -6.6099999999999992E-002    -3.8679257130525002E-008
  -6.5000000000000002E-002    -6.8551542220518513E-009
  -6.3899999999999985E-002     2.4598611148007876E-008
  -6.2799999999999995E-002     1.2654564507386112E-008
  -6.1699999999999991E-002    -2.5248594326399143E-008
  -6.0599999999999994E-002    -3.9291585096634662E-008
  -5.9499999999999990E-002    -1.9410153484500370E-008
  -5.8399999999999994E-002    -3.7977163636071509E-009
  -5.7299999999999990E-002    -1.5915663453824891E-008
  -5.6199999999999986E-002    -3.1356048424413530E-008
  -5.5099999999999996E-002    -2.4918396235307227E-008
  -5.3999999999999992E-002    -1.7667669993670643E-008
  -5.2899999999999989E-002    -4.2300264624373085E-008
  -5.1799999999999985E-002    -8.0383536271710909E-008
  -5.0699999999999995E-002    -7.9860299706524529E-008
  -4.9599999999999991E-002    -3.7813578046552720E-008
  -4.8499999999999988E-002    -1.9334718714958399E-008
  -4.7399999999999998E-002    -6.9043757378040027E-008
  -4.6299999999999994E-002    -1.3947962429483596E-007
  -4.5199999999999990E-002    -1.5016995291716739E-007
  -4.4099999999999986E-002    -1.0024763241744949E-007
  -4.2999999999999997E-002    -7.1607423990371899E-008
  -4.1899999999999993E-002    -1.1483549400281845E-007
  -4.0799999999999989E-002    -1.8238506527268328E-007
  -3.9699999999999985E-002    -2.0372689846226422E-007
  -3.8599999999999995E-002    -1.8455594386068697E-007
  -3.7499999999999992E-002    -1.8541034307872906E-007
  -3.6399999999999988E-002    -2.2232156027257588E-007
  -3.5299999999999984E-002    -2.4812757715153566E-007
  -3.4199999999999994E-002    -2.3917490921121498E-007
  -3.3099999999999991E-002    -2.4114100938277261E-007
  -3.1999999999999987E-002    -2.9350266572691908E-007
  -3.0899999999999997E-002    -3.5240782381151803E-007
  -2.9799999999999993E-002    -3.4678424754019943E-007
  -2.8699999999999989E-002    -2.9020611691521481E-007
  -2.7599999999999986E-002    -2.7517043577063305E-007
  -2.6499999999999996E-002    -3.4213570643260027E-007
  -2.5399999999999992E-002    -4.1482653045932238E-007
  -2.4299999999999988E-002    -4.0529283751311596E-007
  -2.3199999999999985E-002    -3.3612784022807318E-007
  -2.2099999999999995E-002    -3.0349946200658451E-007
  -2.0999999999999991E-002    -3.3654134767857613E-007
  -1.9899999999999987E-002    -3.6625277743951301E-007
  -1.8799999999999983E-002    -3.3378424291186093E-007
  -1.7699999999999994E-002    -2.7622689913187060E-007
  -1.6599999999999990E-002    -2.5727987917889550E-007
  -1.5499999999999986E-002    -2.6014041054622794E-007
  -1.4399999999999996E-002    -2.1584932596852013E-007
  -1.3299999999999992E-002    -1.2202750099277182E-007
  -1.2199999999999989E-002    -5.4935224369501157E-008
  -1.1099999999999985E-002    -5.3011195433327885E-008
  -9.9999999999999950E-003    -4.7279502979336030E-008
  -8.8999999999999913E-003     4.1310045162390452E-008
  -7.7999999999999875E-003     1.8241615862280014E-007
  -6.6999999999999837E-003     2.7584940198721597E-007
  -5.5999999999999939E-003     2.9358764663811598E-007
  -4.4999999999999901E-003     3.1809736356080975E-007
  -3.3999999999999864E-003     4.1583993493077287E-007
  -2.2999999999999826E-003     5.4527168913409696E-007
  -1.1999999999999927E-003     6.2537918665839243E-007
  -9.9999999999988987E-005     6.5806318616523640E-007
   1.0000000000000148E-003     7.1228879505724763E-007
   2.1000000000000185E-003     8.1342238900106167E-007
   3.2000000000000084E-003     9.0100593297393061E-007
   4.3000000000000121E-003     9.2239946525296546E-007
   5.4000000000000159E-003     9.2402984819273115E-007
   6.5000000000000058E-003     9.7751149041869212E-007
   7.6000000000000234E-003     1.0626572475302964E-006
   8.7000000000000133E-003     1.0932511713690474E-006
   9.8000000000000032E-003     1.0437114497108269E-006
   1.0900000000000021E-002     9.9578085155371809E-007
   1.2000000000000011E-002     1.0094116760228644E-006
   1.3100000000000001E-002     1.0385359701103880E-006
   1.4200000000000018E-002     9.9792544006049866E-007
   1.5300000000000008E-002     8.9275300751978648E-007
   1.6400000000000026E-002     8.0473643038203591E-007
   1.7500000000000016E-002     7.6879047128386446E-007
   1.8600000000000005E-002     7.2501410386394127E-007
   1.9700000000000023E-002     6.1523587646661326E-007
   2.0800000000000013E-002     4.7414897608177853E-007
   2.1900000000000003E-002     3.7114386941539124E-007
   2.3000000000000020E-002     3.0435097642111941E-007
   2.4100000000000010E-002     2.0932264988005045E-007
   2.5200000000000000E-002     6.3739854283539898E-008
   2.6300000000000018E-002    -7.6342644206306431E-008
   2.7400000000000008E-002    -1.6555530635287141E-007
   2.8500000000000025E-002    -2.3354888867288537E-007
   2.9600000000000015E-002    -3.4063461384903349E-007
   3.0700000000000005E-002    -4.7603251118744083E-007
   3.1800000000000023E-002    -5.7833517530525569E-007
   3.2900000000000013E-002    -6.2446497395285405E-007
   3.4000000000000002E-002    -6.6174828816656373E-007
   3.5100000000000020E-002    -7.3292397928526043E-007
   3.6200000000000010E-002    -8.1690888009688933E-007
   3.7300000000000028E-002    -8.5689669049315853E-007
   3.8400000000000017E-002    -8.5227208046489977E-007
   3.9500000000000007E-002    -8.4865064309269655E-007
   4.0600000000000025E-002    -8.6630842588419910E-007
   4.1700000000000015E-002    -8.7521118530275999E-007
   4.2800000000000005E-002    -8.4318855897436151E-007
   4.3900000000000022E-002    -7.9807608699411503E-007
   4.5000000000000012E-002    -7.6398742976380163E-007
   4.6100000000000002E-002    -7.3621220053610159E-007
   4.7200000000000020E-002    -6.8612268933065934E-007
   4.8300000000000010E-002    -6.0890624808962457E-007
   4.9400000000000027E-002    -5.3230701269058045E-007
   5.0500000000000017E-002    -4.7506148348475108E-007
   5.1600000000000007E-002    -4.2304108660573547E-007
   5.2700000000000025E-002    -3.5476705306791700E-007
   5.3800000000000014E-002    -2.7753588938139728E-007
   5.4900000000000004E-002    -2.0917062215630722E-007
   5.6000000000000022E-002    -1.4888885857544665E-007
   5.7100000000000012E-002    -8.7828539108159021E-008
   5.8200000000000002E-002    -2.5988164509271883E-008
   5.9300000000000019E-002     2.1867935018349272E-008
   6.0400000000000009E-002     5.8543758285622971E-008
   6.1500000000000027E-002     1.0261695138069626E-007
   6.2600000000000017E-002     1.5364007310836314E-007
   6.3700000000000007E-002     1.8995189066117746E-007
   6.4800000000000024E-002     2.0237990838722908E-007
   6.5900000000000014E-002     2.1158896856832143E-007
   6.7000000000000004E-002     2.3277520710962563E-007
   6.8100000000000022E-002     2.5044556650755112E-007
   6.9200000000000012E-002     2.4499081519024912E-007
   7.0300000000000029E-002     2.2962265688875050E-007
   7.1400000000000019E-002     2.3420874128987634E-007
   7.2500000000000009E-002     2.5355348043376580E-007
   7.3600000000000027E-002     2.4768075945758028E-007
   7.4700000000000016E-002     2.0291655289383925E-007
   7.5800000000000006E-002     1.6065325780800777E-007
   7.6900000000000024E-002     1.6123851764859864E-007
   7.8000000000000014E-002     1.8191414596913091E-007
   7.9100000000000004E-002     1.6925561396874400E-007
   8.0200000000000021E-002     1.1946185907163454E-007
   8.1300000000000011E-002     8.2211506935436773E-008
   8.2400000000000029E-002     8.4483041007388238E-008
   8.3500000000000019E-002     8.9172623063404899E-008
   8.4600000000000009E-002     5.6919841284752692E-008
   8.5700000000000026E-002     1.6058537610774692E-008
   8.6800000000000016E-002     1.7314318867533984E-008
   8.7900000000000006E-002     4.6124860375584831E-008
   8.9000000000000024E-002     3.6406870407290626E-008
   9.0100000000000013E-002    -2.6335367664387377E-008
   9.1200000000000003E-002    -6.9018170734125306E-008
   9.2300000000000021E-002    -3.5591462221873371E-008
   9.3400000000000011E-002     2.2811137867506659E-008
   9.4500000000000028E-002     1.6810348668627739E-008
   9.5600000000000018E-002    -4.9427608672658607E-008
   9.6700000000000008E-002    -8.4978609038444120E-008
   9.7800000000000026E-002    -4.5851709984390254E-008
   9.8900000000000016E-002     1.1123787446720712E-009
  0.10000000000000001         -1.6006934444590115E-008
  0.10110000000000002         -6.4887522910339612E-008
  0.10220000000000001         -6.2211739759732154E-008
  0.10330000000000003         -9.4738394906812573E-009
  0.10440000000000002          6.7058327779534466E-009
  0.10550000000000001         -4.6091667371683798E-008
  0.10660000000000003         -8.5426293594537128E-008
  0.10770000000000002         -3.9109846028395623E-008
  0.10880000000000001          3.5867099512643108E-008
  0.10990000000000003          3.2116549419924922E-008
  0.11100000000000002         -4.5459341180276169E-008
  0.11210000000000001         -8.1867781887012825E-008
  0.11320000000000002         -2.3169636875763899E-008
  0.11430000000000001          4.1565840547264088E-008
  0.11540000000000003          1.7425660914227592E-008
  0.11650000000000002         -5.1490321339997536E-008
  0.11760000000000001         -5.1773589859749336E-008
  0.11870000000000003          2.0883655693637593E-008
  0.11980000000000002          5.2875019918019461E-008
  0.12090000000000001         -8.5662579252243631E-009
  0.12200000000000003         -6.8952822118717449E-008
  0.12310000000000001         -2.9850362182060053E-008
  0.12420000000000003          5.5785751129633354E-008
  0.12530000000000002          5.9640470340127649E-008
  0.12640000000000001         -2.5925647406666030E-008
  0.12750000000000003         -7.3765271224601747E-008
  0.12860000000000002         -1.3875738780200209E-008
  0.12970000000000001          6.1763273606629809E-008
  0.13080000000000003          4.0783536547905896E-008
  0.13190000000000002         -3.7922902151876769E-008
  0.13300000000000001         -4.8524906759439546E-008
  0.13410000000000000          2.4376204166287607E-008
  0.13520000000000004          6.2270522960261587E-008
  0.13630000000000003         -6.3682233097939189E-011
  0.13740000000000002         -6.7979463835854403E-008
  0.13850000000000001         -3.1995270433071710E-008
  0.13960000000000000          5.9224095849685909E-008
  0.14070000000000005          6.8210191273010423E-008
  0.14180000000000004         -2.1665274019255776E-008
  0.14290000000000003         -7.8058135954961472E-008
  0.14400000000000002         -1.8950649049997992E-008
  0.14510000000000001          6.4650755859929632E-008
  0.14620000000000000          4.8593072676794691E-008
  0.14730000000000004         -3.7032656052815582E-008
  0.14840000000000003         -5.8823509618832759E-008
  0.14950000000000002          1.2727928933031762E-008
  0.15060000000000001          6.0903197152128996E-008
  0.15170000000000000          7.8136546122209438E-009
  0.15280000000000005         -6.2980404891277431E-008
  0.15390000000000004         -3.6859329810567942E-008
  0.15500000000000003          5.1376645160416956E-008
  0.15610000000000002          6.7706046991133917E-008
  0.15720000000000001         -1.5478315518180352E-008
  0.15830000000000000         -7.5295169210676249E-008
  0.15940000000000004         -2.4358508099453502E-008
  0.16050000000000003          5.8767458455122323E-008
  0.16160000000000002          5.0918909977326621E-008
  0.16270000000000001         -2.9897901043796082E-008
  0.16380000000000000         -5.7786916585200743E-008
  0.16490000000000005          5.6433355766216664E-009
  0.16600000000000004          5.6745900423038620E-008
  0.16710000000000003          1.5065914737988351E-008
  0.16820000000000002         -5.1708930470795167E-008
  0.16930000000000001         -3.5672385934049089E-008
  0.17040000000000000          4.1038525466774445E-008
  0.17150000000000004          5.9263296492417794E-008
  0.17260000000000003         -1.2698769147334588E-008
  0.17370000000000002         -6.8099865302428952E-008
  0.17480000000000001         -2.3717181107940633E-008
  0.17590000000000000          5.4173657559886124E-008
  0.17700000000000005          5.1014879431932059E-008
  0.17810000000000004         -2.4438202572696355E-008
  0.17920000000000003         -5.7926598628910142E-008
  0.18030000000000002         -4.3523469273054616E-009
  0.18140000000000001          4.9386873257617481E-008
  0.18250000000000000          2.2383371600653845E-008
  0.18360000000000004         -3.8409133651384764E-008
  0.18470000000000003         -3.6554414606371211E-008
  0.18580000000000002          2.3213868161064966E-008
  0.18690000000000001          4.5532885906141018E-008
  0.18800000000000000         -5.1952735447002851E-009
  0.18910000000000005         -5.0175533061747046E-008
  0.19020000000000004         -1.9371659831790566E-008
  0.19130000000000003          4.0716948035424139E-008
  0.19240000000000002          3.9685229324959437E-008
  0.19350000000000001         -1.8730622386442519E-008
  0.19460000000000005         -4.4969716839204921E-008
  0.19570000000000004         -1.5504635353380536E-009
  0.19680000000000003          4.2501824282226153E-008
  0.19790000000000002          2.0188801741483076E-008
  0.19900000000000001         -3.2255325521646228E-008
  0.20010000000000000         -3.4353682565324561E-008
  0.20120000000000005          1.5188545532396347E-008
  0.20230000000000004          3.9710695176609079E-008
  0.20340000000000003          3.3883049699312551E-009
  0.20450000000000002         -3.6949558079868439E-008
  0.20560000000000000         -2.1601261224191148E-008
  0.20670000000000005          2.2679682132320522E-008
  0.20780000000000004          2.7846825290112065E-008
  0.20890000000000003         -1.1021710655256811E-008
