 -0.12000000000000000          0.0000000000000000     
 -0.11889999999999999          0.0000000000000000     
 -0.11780000000000000          0.0000000000000000     
 -0.11670000000000000          0.0000000000000000     
 -0.11559999999999999          0.0000000000000000     
 -0.11449999999999999          0.0000000000000000     
 -0.11340000000000000          2.0533348363684509E-018
 -0.11230000000000000         -9.6979957825181736E-019
 -0.11119999999999999         -2.4896549905431256E-017
 -0.11009999999999999          3.8447909082475137E-018
 -0.10900000000000000          1.6964713357299049E-016
 -0.10790000000000000          4.5645311817056212E-017
 -0.10679999999999999         -8.1148837429307610E-016
 -0.10569999999999999         -6.2107838530518398E-016
 -0.10460000000000000          2.8311618864183472E-015
 -0.10349999999999999          3.8672750338729096E-015
 -0.10239999999999999         -6.9812180226991576E-015
 -0.10130000000000000         -1.5927712572255323E-014
 -0.10020000000000000          1.0528586500086010E-014
  -9.9099999999999994E-002     4.8915044784840836E-014
  -9.7999999999999990E-002    -1.9305005833558577E-016
  -9.6899999999999986E-002    -1.2244425037690604E-013
  -9.5799999999999996E-002    -6.3902638877070400E-014
  -9.4699999999999993E-002     2.6441316584163710E-013
  -9.3599999999999989E-002     3.0360455360693706E-013
  -9.2499999999999999E-002    -4.5358842007924005E-013
  -9.1399999999999995E-002    -1.0170522193528320E-012
  -9.0299999999999991E-002     3.3441448937278351E-013
  -8.9200000000000002E-002     2.5192716836264228E-012
  -8.8099999999999984E-002     1.2114465246931827E-012
  -8.6999999999999994E-002    -4.2207574241226453E-012
  -8.5899999999999990E-002    -5.6304102005744205E-012
  -8.4799999999999986E-002     3.6200415495096783E-012
  -8.3699999999999997E-002     1.2731355032713498E-011
  -8.2599999999999993E-002     2.5865652935469496E-012
  -8.1499999999999989E-002    -1.9879743684558804E-011
  -8.0399999999999999E-002    -1.6754583831435355E-011
  -7.9299999999999995E-002     2.3728961504043689E-011
  -7.8199999999999992E-002     4.3523341181073150E-011
  -7.7100000000000002E-002    -1.4428728177529049E-011
  -7.5999999999999984E-002    -8.7705405438232020E-011
  -7.4899999999999994E-002    -3.8046024664062372E-011
  -7.3799999999999991E-002     1.2360082402018691E-010
  -7.2699999999999987E-002     1.6119605650288804E-010
  -7.1599999999999997E-002    -7.3054701177355241E-011
  -7.0499999999999993E-002    -3.0860186628345332E-010
  -6.9399999999999989E-002    -1.2512195446401364E-010
  -6.8300000000000000E-002     3.5897584904631685E-010
  -6.7199999999999996E-002     4.3188347342848488E-010
  -6.6099999999999992E-002    -2.1898753643778690E-010
  -6.5000000000000002E-002    -7.6476353028098742E-010
  -6.3899999999999985E-002    -1.9117839256121982E-010
  -6.2799999999999995E-002     9.9250596630184873E-010
  -6.1699999999999991E-002     9.8562502603982693E-010
  -6.0599999999999994E-002    -7.2366734826800894E-010
  -5.9499999999999990E-002    -1.9550792096367786E-009
  -5.8399999999999994E-002    -4.7684634019162786E-010
  -5.7299999999999990E-002     2.2874775407188963E-009
  -5.6199999999999986E-002     2.3349382427539922E-009
  -5.5099999999999996E-002    -1.2367675772395614E-009
  -5.3999999999999992E-002    -3.8300886906483811E-009
  -5.2899999999999989E-002    -1.1312205616675897E-009
  -5.1799999999999985E-002     3.9615857261310339E-009
  -5.0699999999999995E-002     4.0896366293452502E-009
  -4.9599999999999991E-002    -2.0810957401806718E-009
  -4.8499999999999988E-002    -6.4194258797556358E-009
  -4.7399999999999998E-002    -1.9149377639138265E-009
  -4.6299999999999994E-002     6.3437464170590374E-009
  -4.5199999999999990E-002     6.7492944566538426E-009
  -4.4099999999999986E-002    -2.4029231937561235E-009
  -4.2999999999999997E-002    -9.0707761302155632E-009
  -4.1899999999999993E-002    -3.7453333767700769E-009
  -4.0799999999999989E-002     6.4201040039790769E-009
  -3.9699999999999985E-002     7.1583157179588852E-009
  -3.8599999999999995E-002    -2.1857522458645917E-009
  -3.7499999999999992E-002    -7.3945414236220586E-009
  -3.6399999999999988E-002    -5.5742566118510695E-010
  -3.5299999999999984E-002     7.8185591334545279E-009
  -3.4199999999999994E-002     4.8934478691364802E-009
  -3.3099999999999991E-002    -4.5499528589232341E-009
  -3.1999999999999987E-002    -6.0347082886380576E-009
  -3.0899999999999997E-002     6.7676225734558670E-010
  -2.9799999999999993E-002     1.0910711223388603E-009
  -2.8699999999999989E-002    -7.9037763001110761E-009
  -2.7599999999999986E-002    -8.6072597937913997E-009
  -2.6499999999999996E-002     8.9767615563118852E-009
  -2.5399999999999992E-002     2.3484219013880647E-008
  -2.4299999999999988E-002     8.4767473040869845E-009
  -2.3199999999999985E-002    -2.2916625042057603E-008
  -2.2099999999999995E-002    -2.7291028104059478E-008
  -2.0999999999999991E-002     6.6305485546536147E-009
  -1.9899999999999987E-002     3.2296419760768913E-008
  -1.8799999999999983E-002     6.4740546257269216E-009
  -1.7699999999999994E-002    -4.2030734448417206E-008
  -1.6599999999999990E-002    -4.2485119422508433E-008
  -1.5499999999999986E-002     1.8314095129312591E-008
  -1.4399999999999996E-002     6.7641870771240065E-008
  -1.3299999999999992E-002     4.0084128016815157E-008
  -1.2199999999999989E-002    -3.2666893190480550E-008
  -1.1099999999999985E-002    -6.3771857128358533E-008
  -9.9999999999999950E-003    -2.7678977332357135E-008
  -8.8999999999999913E-003     1.3043496949194378E-008
  -7.7999999999999875E-003     3.2002274164000255E-009
  -6.6999999999999837E-003    -3.0616430279906126E-008
  -5.5999999999999939E-003    -3.1546491641165630E-008
  -4.4999999999999901E-003    -1.4446907559140243E-010
  -3.3999999999999864E-003     1.7955709807893072E-008
  -2.2999999999999826E-003     1.3525738751241079E-008
  -1.1999999999999927E-003     1.8822184699729405E-008
  -9.9999999999988987E-005     2.6377415807132820E-008
   1.0000000000000148E-003    -2.1439181097093751E-008
   2.1000000000000185E-003    -1.2665013571222516E-007
   3.2000000000000084E-003    -1.8276196556143987E-007
   4.3000000000000121E-003    -9.9152600796514889E-008
   5.4000000000000159E-003     4.7118295043446778E-008
   6.5000000000000058E-003     8.3984382115431799E-008
   7.6000000000000234E-003    -2.7179428485624157E-008
   8.7000000000000133E-003    -1.2645259062082914E-007
   9.8000000000000032E-003    -6.7457847308105556E-008
   1.0900000000000021E-002     6.8872083147653029E-008
   1.2000000000000011E-002     6.7055296426588029E-008
   1.3100000000000001E-002    -1.2889508127500449E-007
   1.4200000000000018E-002    -3.2742906341809430E-007
   1.5300000000000008E-002    -3.3629044082772452E-007
   1.6400000000000026E-002    -1.7672110175226408E-007
   1.7500000000000016E-002    -2.7346212405632286E-008
   1.8600000000000005E-002    -2.5905668721293296E-009
   1.9700000000000023E-002    -4.2977536196531219E-008
   2.0800000000000013E-002    -4.7742350517410159E-008
   2.1900000000000003E-002    -2.7764942345243071E-008
   2.3000000000000020E-002    -8.0892689879874524E-008
   2.4100000000000010E-002    -1.8628860232183797E-007
   2.5200000000000000E-002    -2.3071982013789238E-007
   2.6300000000000018E-002    -2.1866907218281995E-007
   2.7400000000000008E-002    -2.4427484390798782E-007
   2.8500000000000025E-002    -3.4227690548505052E-007
   2.9600000000000015E-002    -3.5216757510170282E-007
   3.0700000000000005E-002    -9.2236696502823179E-008
   3.1800000000000023E-002     2.7654203904603492E-007
   3.2900000000000013E-002     3.4063751286339539E-007
   3.4000000000000002E-002     6.7386025648374925E-008
   3.5100000000000020E-002    -1.6854032480750902E-007
   3.6200000000000010E-002     4.9581925232189406E-009
   3.7300000000000028E-002     3.4917366065201350E-007
   3.8400000000000017E-002     3.0148396490403684E-007
   3.9500000000000007E-002     1.2925991832446471E-008
   4.0600000000000025E-002    -1.1615800588060665E-007
   4.1700000000000015E-002     1.5251742979671690E-007
   4.2800000000000005E-002     6.0307786498015048E-007
   4.3900000000000022E-002     7.9026784760571900E-007
   4.5000000000000012E-002     4.9027306658899761E-007
   4.6100000000000002E-002     1.6340105446488451E-007
   4.7200000000000020E-002     4.3496007151588856E-007
   4.8300000000000010E-002     9.8169698503625114E-007
   4.9400000000000027E-002     1.2483106957006385E-006
   5.0500000000000017E-002     9.4458312105416553E-007
   5.1600000000000007E-002     3.2891244927668595E-007
   5.2700000000000025E-002     2.1435593566820899E-007
   5.3800000000000014E-002     8.4652350551550626E-007
   5.4900000000000004E-002     1.5127776578083285E-006
   5.6000000000000022E-002     1.4637535059591755E-006
   5.7100000000000012E-002     9.0060080992770963E-007
   5.8200000000000002E-002     4.1581819232305861E-007
   5.9300000000000019E-002     2.3746258648316143E-007
   6.0400000000000009E-002     6.6649238306126790E-007
   6.1500000000000027E-002     1.1012479035343858E-006
   6.2600000000000017E-002     1.0857302186195739E-006
   6.3700000000000007E-002     5.6424767080898164E-007
   6.4800000000000024E-002     3.4098923151759664E-007
   6.5900000000000014E-002     6.8558438215404749E-007
   6.7000000000000004E-002     3.1883607221061538E-007
   6.8100000000000022E-002    -7.0924386363913072E-007
   6.9200000000000012E-002    -8.0622231735105743E-007
   7.0300000000000029E-002     4.1301660758108483E-007
   7.1400000000000019E-002     6.5039762375818100E-007
   7.2500000000000009E-002    -1.3193495078667183E-006
   7.3600000000000027E-002    -3.2162797651835717E-006
   7.4700000000000016E-002    -1.6760584458097583E-006
   7.5800000000000006E-002     1.9256112864241004E-006
   7.6900000000000024E-002     2.4352095806534635E-006
   7.8000000000000014E-002    -1.9902097392332507E-006
   7.9100000000000004E-002    -6.5808358158392366E-006
   8.0200000000000021E-002    -5.7092843235295732E-006
   8.1300000000000011E-002    -3.1033573577587958E-007
   8.2400000000000029E-002     3.4555871479824418E-006
   8.3500000000000019E-002     1.1667775652313139E-006
   8.4600000000000009E-002    -4.3946770347247366E-006
   8.5700000000000026E-002    -6.7457426666805986E-006
   8.6800000000000016E-002    -3.9642400224693120E-006
   8.7900000000000006E-002     9.3934659162187018E-008
   8.9000000000000024E-002     1.9424526271905052E-006
   9.0100000000000013E-002     1.0367136837885482E-006
   9.1200000000000003E-002    -1.4716841860717977E-006
   9.2300000000000021E-002    -3.8174312066985294E-006
   9.3400000000000011E-002    -4.7316380005213432E-006
   9.4500000000000028E-002    -2.1926196041022195E-006
   9.5600000000000018E-002     3.2965349419100676E-006
   9.6700000000000008E-002     6.1455325521819759E-006
   9.7800000000000026E-002     2.0617183054127963E-006
   9.8900000000000016E-002    -5.4542756515729707E-006
  0.10000000000000001         -7.9867850217851810E-006
  0.10110000000000002         -1.2437187706382247E-006
  0.10220000000000001          8.5807814684812911E-006
  0.10330000000000003          1.0100711733684875E-005
  0.10440000000000002          2.5356885089422576E-006
  0.10550000000000001         -4.6447421482298523E-006
  0.10660000000000003         -5.2716954996867571E-006
  0.10770000000000002         -2.4519704311387613E-007
  0.10880000000000001          5.6216349548776634E-006
  0.10990000000000003          8.0926120062940754E-006
  0.11100000000000002          6.2289959714689758E-006
  0.11210000000000001          7.6816570526716532E-007
  0.11320000000000002         -5.0752232709783129E-006
  0.11430000000000001         -5.1109773266944103E-006
  0.11540000000000003          2.2383278519555461E-006
  0.11650000000000002          9.9351736935204826E-006
  0.11760000000000001          9.1153215180383995E-006
  0.11870000000000003          6.2414081014594558E-008
  0.11980000000000002         -7.8917846622061916E-006
  0.12090000000000001         -6.2557178353017662E-006
  0.12200000000000003          2.3605098249390721E-006
  0.12310000000000001          8.0273803177988157E-006
  0.12420000000000003          6.0730094446626026E-006
  0.12530000000000002          6.4833024282506813E-008
  0.12640000000000001         -4.2011379264295101E-006
  0.12750000000000003         -5.2816972129221540E-006
  0.12860000000000002         -3.3777330372686265E-006
  0.12970000000000001          9.6751921319082612E-007
  0.13080000000000003          5.2102641348028556E-006
  0.13190000000000002          5.2103691814409103E-006
  0.13300000000000001         -4.3159670326531341E-007
  0.13410000000000000         -7.0384257924160920E-006
  0.13520000000000004         -7.9002693382790312E-006
  0.13630000000000003         -1.6048879842855968E-006
  0.13740000000000002          5.6014591791608837E-006
  0.13850000000000001          6.1814434957341291E-006
  0.13960000000000000         -3.2070062161437818E-007
  0.14070000000000005         -6.8202371039660648E-006
  0.14180000000000004         -6.7936007326352410E-006
  0.14290000000000003         -1.2303793255341589E-006
  0.14400000000000002          3.7617601265083067E-006
  0.14510000000000001          4.3116961023770273E-006
  0.14620000000000000          1.6349836187146138E-006
  0.14730000000000004         -1.4592694697057595E-006
  0.14840000000000003         -4.2394522097310983E-006
  0.14950000000000002         -5.7781271607382223E-006
  0.15060000000000001         -3.3437581805628724E-006
  0.15170000000000000          3.2203656701312866E-006
  0.15280000000000005          8.1312982729286887E-006
  0.15390000000000004          4.9433388085162733E-006
  0.15500000000000003         -4.3661761992552783E-006
  0.15610000000000002         -9.6488338385825045E-006
  0.15720000000000001         -4.4933926801604684E-006
  0.15830000000000000          5.3137850954954047E-006
  0.15940000000000004          8.8411406977684237E-006
  0.16050000000000003          2.9806076327076880E-006
  0.16160000000000002         -4.7283101594075561E-006
  0.16270000000000001         -6.2953204178484157E-006
  0.16380000000000000         -2.3418463115376653E-006
  0.16490000000000005          1.6156991478055716E-006
  0.16600000000000004          3.5740406474360498E-006
  0.16710000000000003          4.7897365220705979E-006
  0.16820000000000002          4.2723168007796630E-006
  0.16930000000000001         -8.8487922766944394E-007
  0.17040000000000000         -8.2226779340999201E-006
  0.17150000000000004         -8.8300084826187231E-006
  0.17260000000000003          9.6599694643373368E-007
  0.17370000000000002          1.1648050531221088E-005
  0.17480000000000001          1.0220165677310433E-005
  0.17590000000000000         -2.6587576940073632E-006
  0.17700000000000005         -1.2159965990576893E-005
  0.17810000000000004         -7.4900385698128957E-006
  0.17920000000000003          4.9113982640847098E-006
  0.18030000000000002          1.0229556210106239E-005
  0.18140000000000001          4.2513720472925343E-006
  0.18250000000000000         -3.6056462704436854E-006
  0.18360000000000004         -5.0792473302863073E-006
  0.18470000000000003         -2.6513887405599235E-006
  0.18580000000000002         -1.6128385595948203E-006
  0.18690000000000001         -5.6083945310092531E-007
  0.18800000000000000          3.9172323340608273E-006
  0.18910000000000005          7.6865535447723232E-006
  0.19020000000000004          3.0741516638954636E-006
  0.19130000000000003         -7.5424386523081921E-006
  0.19240000000000002         -1.1094507499365136E-005
  0.19350000000000001         -1.0365120033384301E-006
  0.19460000000000005          1.1350663953635376E-005
  0.19570000000000004          1.0318456588720437E-005
  0.19680000000000003         -3.1146144010563148E-006
  0.19790000000000002         -1.2036060070386156E-005
  0.19900000000000001         -6.1599271248269361E-006
  0.20010000000000000          5.3509379540628288E-006
  0.20120000000000005          7.9803658081800677E-006
  0.20230000000000004          1.3246830121715902E-006
  0.20340000000000003         -3.4067929846059997E-006
  0.20450000000000002         -1.3324561223271303E-006
  0.20560000000000000          7.3434324576737708E-007
  0.20670000000000005         -2.0784016214747680E-006
  0.20780000000000004         -3.8047860471124295E-006
  0.20890000000000003          1.6535469740119879E-006
