 -0.12000000000000000          0.0000000000000000     
 -0.11889999999999999          0.0000000000000000     
 -0.11780000000000000          0.0000000000000000     
 -0.11670000000000000          0.0000000000000000     
 -0.11559999999999999          1.1805181276969279E-009
 -0.11449999999999999         -4.4208818827939922E-009
 -0.11340000000000000         -5.7617337567705817E-009
 -0.11230000000000000          3.7972526456542255E-008
 -0.11119999999999999          3.2855378861995632E-008
 -0.11009999999999999         -1.9508323134687089E-007
 -0.10900000000000000         -2.3757249323352880E-007
 -0.10790000000000000          6.7356717181610293E-007
 -0.10679999999999999          1.3699084320251131E-006
 -0.10569999999999999         -1.2544855962914880E-006
 -0.10460000000000000         -5.4778001867816783E-006
 -0.10349999999999999         -1.2872051229351200E-006
 -0.10239999999999999          1.4051101061340887E-005
 -0.10130000000000000          1.7457266949350014E-005
 -0.10020000000000000         -1.6549001884413883E-005
  -9.9099999999999994E-002    -5.7853369071381167E-005
  -9.7999999999999990E-002    -2.5858844310278073E-005
  -9.6899999999999986E-002     9.0799308964051306E-005
  -9.5799999999999996E-002     1.4862172247376293E-004
  -9.4699999999999993E-002    -3.2513007681700401E-006
  -9.3599999999999989E-002    -2.5621877284720540E-004
  -9.2499999999999999E-002    -2.6901022647507489E-004
  -9.1399999999999995E-002     9.3885479145683348E-005
  -9.0299999999999991E-002     4.5836594654247165E-004
  -8.9200000000000002E-002     3.3196888398379087E-004
  -8.8099999999999984E-002    -1.9356061238795519E-004
  -8.6999999999999994E-002    -4.5523018343374133E-004
  -8.5899999999999990E-002    -1.1572711082408205E-004
  -8.4799999999999986E-002     2.7145544299855828E-004
  -8.3699999999999997E-002    -4.5393462642095983E-006
  -8.2599999999999993E-002    -6.9212669041007757E-004
  -8.1499999999999989E-002    -7.6796190114691854E-004
  -8.0399999999999999E-002     1.7473880143370479E-004
  -7.9299999999999995E-002     1.3499382184818387E-003
  -7.8199999999999992E-002     1.9167044665664434E-003
  -7.7100000000000002E-002     2.0494924392551184E-003
  -7.5999999999999984E-002     2.2037483286112547E-003
  -7.4899999999999994E-002     1.8962750909850001E-003
  -7.3799999999999991E-002     4.3484757770784199E-004
  -7.2699999999999987E-002    -1.2273697648197412E-003
  -7.1599999999999997E-002    -9.6518133068457246E-004
  -7.0499999999999993E-002     1.4228012878447771E-003
  -6.9399999999999989E-002     3.1058788299560547E-003
  -6.8300000000000000E-002     1.9095040624961257E-003
  -6.7199999999999996E-002     1.5253516903612763E-004
  -6.6099999999999992E-002     2.2199943196028471E-003
  -6.5000000000000002E-002     8.0433450639247894E-003
  -6.3899999999999985E-002     1.1898516677320004E-002
  -6.2799999999999995E-002     9.6033904701471329E-003
  -6.1699999999999991E-002     4.7226464375853539E-003
  -6.0599999999999994E-002     4.4599035754799843E-003
  -5.9499999999999990E-002     1.0296265594661236E-002
  -5.8399999999999994E-002     1.6540247946977615E-002
  -5.7299999999999990E-002     1.8768765032291412E-002
  -5.6199999999999986E-002     1.9524989649653435E-002
  -5.5099999999999996E-002     2.3101823404431343E-002
  -5.3999999999999992E-002     2.8401579707860947E-002
  -5.2899999999999989E-002     3.1773678958415985E-002
  -5.1799999999999985E-002     3.4913342446088791E-002
  -5.0699999999999995E-002     4.3332085013389587E-002
  -4.9599999999999991E-002     5.6085862219333649E-002
  -4.8499999999999988E-002     6.4129032194614410E-002
  -4.7399999999999998E-002     6.3666157424449921E-002
  -4.6299999999999994E-002     6.5330043435096741E-002
  -4.5199999999999990E-002     8.1897072494029999E-002
  -4.4099999999999986E-002    0.10893436521291733     
  -4.2999999999999997E-002    0.12781716883182526     
  -4.1899999999999993E-002    0.13055770099163055     
  -4.0799999999999989E-002    0.13204510509967804     
  -3.9699999999999985E-002    0.15034888684749603     
  -3.8599999999999995E-002    0.18189163506031036     
  -3.7499999999999992E-002    0.20762600004673004     
  -3.6399999999999988E-002    0.22084306180477142     
  -3.5299999999999984E-002    0.23526220023632050     
  -3.4199999999999994E-002    0.26149091124534607     
  -3.3099999999999991E-002    0.29013478755950928     
  -3.1999999999999987E-002    0.30832809209823608     
  -3.0899999999999997E-002    0.32306978106498718     
  -2.9799999999999993E-002    0.35125032067298889     
  -2.8699999999999989E-002    0.38930594921112061     
  -2.7599999999999986E-002    0.41256299614906311     
  -2.6499999999999996E-002    0.41109815239906311     
  -2.5399999999999992E-002    0.40926313400268555     
  -2.4299999999999988E-002    0.43226432800292969     
  -2.3199999999999985E-002    0.46699544787406921     
  -2.2099999999999995E-002    0.47647497057914734     
  -2.0999999999999991E-002    0.45255169272422791     
  -1.9899999999999987E-002    0.42628899216651917     
  -1.8799999999999983E-002    0.42110207676887512     
  -1.7699999999999994E-002    0.41644150018692017     
  -1.6599999999999990E-002    0.37832993268966675     
  -1.5499999999999986E-002    0.31289473176002502     
  -1.4399999999999996E-002    0.25582626461982727     
  -1.3299999999999992E-002    0.21355716884136200     
  -1.2199999999999989E-002    0.14675448834896088     
  -1.1099999999999985E-002     3.1107755377888680E-002
  -9.9999999999999950E-003   -0.10155024379491806     
  -8.8999999999999913E-003   -0.20554265379905701     
  -7.7999999999999875E-003   -0.29381728172302246     
  -6.6999999999999837E-003   -0.42256155610084534     
  -5.5999999999999939E-003   -0.60780394077301025     
  -4.4999999999999901E-003   -0.80026870965957642     
  -3.3999999999999864E-003   -0.95350581407546997     
  -2.2999999999999826E-003    -1.0933310985565186     
  -1.1999999999999927E-003    -1.2724131345748901     
  -9.9999999999988987E-005    -1.4842951297760010     
   1.0000000000000148E-003    -1.6755014657974243     
   2.1000000000000185E-003    -1.8231451511383057     
   3.2000000000000084E-003    -1.9736958742141724     
   4.3000000000000121E-003    -2.1643252372741699     
   5.4000000000000159E-003    -2.3490042686462402     
   6.5000000000000058E-003    -2.4586138725280762     
   7.6000000000000234E-003    -2.5076506137847900     
   8.7000000000000133E-003    -2.5742299556732178     
   9.8000000000000032E-003    -2.6834743022918701     
   1.0900000000000021E-002    -2.7544291019439697     
   1.2000000000000011E-002    -2.7146649360656738     
   1.3100000000000001E-002    -2.5990288257598877     
   1.4200000000000018E-002    -2.5003449916839600     
   1.5300000000000008E-002    -2.4238471984863281     
   1.6400000000000026E-002    -2.2854411602020264     
   1.7500000000000016E-002    -2.0361635684967041     
   1.8600000000000005E-002    -1.7417649030685425     
   1.9700000000000023E-002    -1.4712942838668823     
   2.0800000000000013E-002    -1.1902265548706055     
   2.1900000000000003E-002   -0.81523704528808594     
   2.3000000000000020E-002   -0.35878312587738037     
   2.4100000000000010E-002     8.0163359642028809E-002
   2.5200000000000000E-002    0.45758935809135437     
   2.6300000000000018E-002    0.85605412721633911     
   2.7400000000000008E-002     1.3583955764770508     
   2.8500000000000025E-002     1.9039200544357300     
   2.9600000000000015E-002     2.3683645725250244     
   3.0700000000000005E-002     2.7339575290679932     
   3.1800000000000023E-002     3.1096463203430176     
   3.2900000000000013E-002     3.5552527904510498     
   3.4000000000000002E-002     3.9821212291717529     
   3.5100000000000020E-002     4.2780780792236328     
   3.6200000000000010E-002     4.4713115692138672     
   3.7300000000000028E-002     4.6785488128662109     
   3.8400000000000017E-002     4.9112372398376465     
   3.9500000000000007E-002     5.0472326278686523     
   4.0600000000000025E-002     5.0147171020507812     
   4.1700000000000015E-002     4.9057612419128418     
   4.2800000000000005E-002     4.8359751701354980     
   4.3900000000000022E-002     4.7700047492980957     
   4.5000000000000012E-002     4.5618968009948730     
   4.6100000000000002E-002     4.1883363723754883     
   4.7200000000000020E-002     3.7883706092834473     
   4.8300000000000010E-002     3.4554362297058105     
   4.9400000000000027E-002     3.1056783199310303     
   5.0500000000000017E-002     2.6174702644348145     
   5.1600000000000007E-002     2.0304698944091797     
   5.2700000000000025E-002     1.4909915924072266     
   5.3800000000000014E-002     1.0468811988830566     
   5.4900000000000004E-002    0.56356662511825562     
   5.6000000000000022E-002    -3.6957133561372757E-002
   5.7100000000000012E-002   -0.65029549598693848     
   5.8200000000000002E-002    -1.1281164884567261     
   5.9300000000000019E-002    -1.4887875318527222     
   6.0400000000000009E-002    -1.8970078229904175     
   6.1500000000000027E-002    -2.3975105285644531     
   6.2600000000000017E-002    -2.8395056724548340     
   6.3700000000000007E-002    -3.0977613925933838     
   6.4800000000000024E-002    -3.2522771358489990     
   6.5900000000000014E-002    -3.4647397994995117     
   6.7000000000000004E-002    -3.7200968265533447     
   6.8100000000000022E-002    -3.8544511795043945     
   6.9200000000000012E-002    -3.8123512268066406     
   7.0300000000000029E-002    -3.7348012924194336     
   7.1400000000000019E-002    -3.7453567981719971     
   7.2500000000000009E-002    -3.7546770572662354     
   7.3600000000000027E-002    -3.5978753566741943     
   7.4700000000000016E-002    -3.2950494289398193     
   7.5800000000000006E-002    -3.0401303768157959     
   7.6900000000000024E-002    -2.9092669486999512     
   7.8000000000000014E-002    -2.7537713050842285     
   7.9100000000000004E-002    -2.4285812377929688     
   8.0200000000000021E-002    -2.0187373161315918     
   8.1300000000000011E-002    -1.7163376808166504     
   8.2400000000000029E-002    -1.5357046127319336     
   8.3500000000000019E-002    -1.3037192821502686     
   8.4600000000000009E-002   -0.93629902601242065     
   8.5700000000000026E-002   -0.57451224327087402     
   8.6800000000000016E-002   -0.36740544438362122     
   8.7900000000000006E-002   -0.24101109802722931     
   8.9000000000000024E-002    -1.3187491334974766E-002
   9.0100000000000013E-002    0.31646379828453064     
   9.1200000000000003E-002    0.55407100915908813     
   9.2300000000000021E-002    0.60516142845153809     
   9.3400000000000011E-002    0.62357604503631592     
   9.4500000000000028E-002    0.78338688611984253     
   9.5600000000000018E-002     1.0155286788940430     
   9.6700000000000008E-002     1.1124078035354614     
   9.7800000000000026E-002     1.0406852960586548     
   9.8900000000000016E-002    0.99104577302932739     
  0.10000000000000001          1.0836282968521118     
  0.10110000000000002          1.1911852359771729     
  0.10220000000000001          1.1447510719299316     
  0.10330000000000003         0.99909043312072754     
  0.10440000000000002         0.94691729545593262     
  0.10550000000000001          1.0191498994827271     
  0.10660000000000003          1.0339542627334595     
  0.10770000000000002         0.88204789161682129     
  0.10880000000000001         0.70365202426910400     
  0.10990000000000003         0.68047046661376953     
  0.11100000000000002         0.75733476877212524     
  0.11210000000000001         0.72489130496978760     
  0.11320000000000002         0.53758341073989868     
  0.11430000000000001         0.38361442089080811     
  0.11540000000000003         0.39931374788284302     
  0.11650000000000002         0.46533560752868652     
  0.11760000000000001         0.39441603422164917     
  0.11870000000000003         0.21802839636802673     
  0.11980000000000002         0.13528133928775787     
  0.12090000000000001         0.20280006527900696     
  0.12200000000000003         0.25013279914855957     
  0.12310000000000001         0.14326614141464233     
  0.12420000000000003         -6.9015836343169212E-003
  0.12530000000000002         -1.5654223039746284E-002
  0.12640000000000001          9.0665198862552643E-002
  0.12750000000000003         0.11519728600978851     
  0.12860000000000002         -7.4899662286043167E-003
  0.12970000000000001        -0.11471752077341080     
  0.13080000000000003         -6.6222690045833588E-002
  0.13190000000000002          4.0670070797204971E-002
  0.13300000000000001          2.5541339069604874E-002
  0.13410000000000000         -9.6760511398315430E-002
  0.13520000000000004        -0.14214748144149780     
  0.13630000000000003         -4.4316519051790237E-002
  0.13740000000000002          4.1087638586759567E-002
  0.13850000000000001         -2.2465273737907410E-002
  0.13960000000000000        -0.14179882407188416     
  0.14070000000000005        -0.13472552597522736     
  0.14180000000000004         -9.4034979119896889E-003
  0.14290000000000003          4.8817701637744904E-002
  0.14400000000000002         -4.2095590382814407E-002
  0.14510000000000001        -0.13998880982398987     
  0.14620000000000000         -9.7768843173980713E-002
  0.14730000000000004          1.7127320170402527E-002
  0.14840000000000003          3.3234030008316040E-002
  0.14950000000000002         -6.2381997704505920E-002
  0.15060000000000001        -0.11244896799325943     
  0.15170000000000000         -3.7187539041042328E-002
  0.15280000000000005          4.4851541519165039E-002
  0.15390000000000004          6.3304416835308075E-003
  0.15500000000000003         -8.9719198644161224E-002
  0.15610000000000002         -8.9198000729084015E-002
  0.15720000000000001          1.3054063543677330E-002
  0.15830000000000000          6.4422391355037689E-002
  0.15940000000000004         -1.1145693250000477E-002
  0.16050000000000003         -9.7299799323081970E-002
  0.16160000000000002         -6.3487268984317780E-002
  0.16270000000000001          3.8421843200922012E-002
  0.16380000000000000          5.6814361363649368E-002
  0.16490000000000005         -2.9393011704087257E-002
  0.16600000000000004         -8.4405578672885895E-002
  0.16710000000000003         -2.6056576520204544E-002
  0.16820000000000002          5.2778776735067368E-002
  0.16930000000000001          3.2179288566112518E-002
  0.17040000000000000         -5.1642742007970810E-002
  0.17150000000000004         -6.7288838326931000E-002
  0.17260000000000003          8.7098199874162674E-003
  0.17370000000000002          5.9532146900892258E-002
  0.17480000000000001          9.4785951077938080E-003
  0.17590000000000000         -6.2231946736574173E-002
  0.17700000000000005         -4.6555191278457642E-002
  0.17810000000000004          2.9902840033173561E-002
  0.17920000000000003          5.0618339329957962E-002
  0.18030000000000002         -1.1669602245092392E-002
  0.18140000000000001         -5.8098442852497101E-002
  0.18250000000000000         -1.9104357808828354E-002
  0.18360000000000004          4.1897147893905640E-002
  0.18470000000000003          3.0929971486330032E-002
  0.18580000000000002         -3.2156214118003845E-002
  0.18690000000000001         -4.7919698059558868E-002
  0.18800000000000000          7.9362578690052032E-003
  0.18910000000000005          4.9554694443941116E-002
  0.19020000000000004          1.4438670128583908E-002
  0.19130000000000003         -4.2257741093635559E-002
  0.19240000000000002         -3.4210640937089920E-002
  0.19350000000000001          2.5769963860511780E-002
  0.19460000000000005          4.8694964498281479E-002
  0.19570000000000004          4.6436432749032974E-003
  0.19680000000000003         -3.6429714411497116E-002
  0.19790000000000002         -1.3616963289678097E-002
  0.19900000000000001          3.6376737058162689E-002
  0.20010000000000000          4.0689337998628616E-002
  0.20120000000000005          4.2703925282694399E-004
  0.20230000000000004         -1.7248427495360374E-002
  0.20340000000000003          1.5614828094840050E-002
  0.20450000000000002          4.9328014254570007E-002
  0.20560000000000000          3.7289131432771683E-002
  0.20670000000000005          6.2928395345807076E-003
  0.20780000000000004          1.1324059218168259E-002
  0.20890000000000003          5.0202537328004837E-002
