 -0.12000000000000000          0.0000000000000000     
 -0.11889999999999999          0.0000000000000000     
 -0.11780000000000000          0.0000000000000000     
 -0.11670000000000000          0.0000000000000000     
 -0.11559999999999999          0.0000000000000000     
 -0.11449999999999999          0.0000000000000000     
 -0.11340000000000000          0.0000000000000000     
 -0.11230000000000000          0.0000000000000000     
 -0.11119999999999999          1.9834912209620766E-018
 -0.11009999999999999         -1.5591446302311988E-017
 -0.10900000000000000          8.5724631171361508E-018
 -0.10790000000000000          2.1681375295926238E-016
 -0.10679999999999999         -2.8792661580423397E-016
 -0.10569999999999999         -1.9376594411282550E-015
 -0.10460000000000000          2.4443128338031252E-015
 -0.10349999999999999          1.4178512456176993E-014
 -0.10239999999999999         -1.0537715821191517E-014
 -0.10130000000000000         -8.6801713820167103E-014
 -0.10020000000000000          3.5274759086205854E-015
  -9.9099999999999994E-002     4.2599374006600799E-013
  -9.7999999999999990E-002     3.1031373217554892E-013
  -9.6899999999999986E-002    -1.5523696694427769E-012
  -9.5799999999999996E-002    -2.6095462596353869E-012
  -9.4699999999999993E-002     3.4200682650503689E-012
  -9.3599999999999989E-002     1.2604283936012983E-011
  -9.2499999999999999E-002     1.0918968637238513E-012
  -9.1399999999999995E-002    -3.9291143255626437E-011
  -9.0299999999999991E-002    -4.4909357482803003E-011
  -8.9200000000000002E-002     6.5584856989708840E-011
  -8.8099999999999984E-002     1.9646992366340044E-010
  -8.6999999999999994E-002     4.6736083753051716E-011
  -8.5899999999999990E-002    -4.4051737257966295E-010
  -8.4799999999999986E-002    -6.1716221022578566E-010
  -8.3699999999999997E-002     2.8456922929187556E-010
  -8.2599999999999993E-002     1.6617273113084252E-009
  -8.1499999999999989E-002     1.3878350690887942E-009
  -8.0399999999999999E-002    -1.5139884901316236E-009
  -7.9299999999999995E-002    -4.3085504053408386E-009
  -7.8199999999999992E-002    -2.8239039995270332E-009
  -7.7100000000000002E-002     2.9114153310416668E-009
  -7.5999999999999984E-002     7.8174471340730634E-009
  -7.4899999999999994E-002     7.9957356291515680E-009
  -7.3799999999999991E-002     3.6650724677400603E-009
  -7.2699999999999987E-002    -7.2499237724343857E-009
  -7.1599999999999997E-002    -2.8946066876756049E-008
  -7.0499999999999993E-002    -4.6726295721555289E-008
  -6.9399999999999989E-002    -1.5985461843115445E-008
  -6.8300000000000000E-002     8.7276085025678185E-008
  -6.7199999999999996E-002     1.8424074710310379E-007
  -6.6099999999999992E-002     1.1457587589802642E-007
  -6.5000000000000002E-002    -1.7381475458932982E-007
  -6.3899999999999985E-002    -4.5659609781978361E-007
  -6.2799999999999995E-002    -3.7681201092709671E-007
  -6.1699999999999991E-002     1.4187162378220819E-007
  -6.0599999999999994E-002     6.9568739036185434E-007
  -5.9499999999999990E-002     7.6868025189469336E-007
  -5.8399999999999994E-002     2.9778013299619488E-007
  -5.7299999999999990E-002    -3.0255557703640079E-007
  -5.6199999999999986E-002    -7.1104619792095036E-007
  -5.5099999999999996E-002    -1.0149321951757884E-006
  -5.3999999999999992E-002    -1.2367025874482351E-006
  -5.2899999999999989E-002    -8.5831095475441543E-007
  -5.1799999999999985E-002     5.9185083500779001E-007
  -5.0699999999999995E-002     2.4479857074766187E-006
  -4.9599999999999991E-002     3.1342603961093118E-006
  -4.8499999999999988E-002     1.9812896425719373E-006
  -4.7399999999999998E-002     2.1825536578035099E-007
  -4.6299999999999994E-002    -7.5175603342358954E-007
  -4.5199999999999990E-002    -1.6761168808443472E-006
  -4.4099999999999986E-002    -4.4826506382378284E-006
  -4.2999999999999997E-002    -8.4428356785792857E-006
  -4.1899999999999993E-002    -9.0427856775932014E-006
  -4.0799999999999989E-002    -2.7081557618657826E-006
  -3.9699999999999985E-002     7.8533894338761456E-006
  -3.8599999999999995E-002     1.5407676983159035E-005
  -3.7499999999999992E-002     1.5933275790303014E-005
  -3.6399999999999988E-002     1.2403396794979926E-005
  -3.5299999999999984E-002     9.3640855993726291E-006
  -3.4199999999999994E-002     5.9727817642851733E-006
  -3.3099999999999991E-002    -2.4898977244447451E-006
  -3.1999999999999987E-002    -1.7186941477120854E-005
  -3.0899999999999997E-002    -3.3672458812361583E-005
  -2.9799999999999993E-002    -4.7333265683846548E-005
  -2.8699999999999989E-002    -5.5730874009896070E-005
  -2.7599999999999986E-002    -5.3078591008670628E-005
  -2.6499999999999996E-002    -2.8659917006734759E-005
  -2.5399999999999992E-002     2.1298339561326429E-005
  -2.4299999999999988E-002     8.2424856373108923E-005
  -2.3199999999999985E-002     1.3314408715814352E-004
  -2.2099999999999995E-002     1.6963527014013380E-004
  -2.0999999999999991E-002     2.0922877592965961E-004
  -1.9899999999999987E-002     2.6053714100271463E-004
  -1.8799999999999983E-002     3.0016253003850579E-004
  -1.7699999999999994E-002     2.9688517679460347E-004
  -1.6599999999999990E-002     2.5902761262841523E-004
  -1.5499999999999986E-002     2.3767210950609297E-004
  -1.4399999999999996E-002     2.7143210172653198E-004
  -1.3299999999999992E-002     3.4275033976882696E-004
  -1.2199999999999989E-002     4.0975335286930203E-004
  -1.1099999999999985E-002     4.7309760702773929E-004
  -9.9999999999999950E-003     5.8471888769418001E-004
  -8.8999999999999913E-003     7.8537029912695289E-004
  -7.7999999999999875E-003     1.0586408898234367E-003
  -6.6999999999999837E-003     1.3646925799548626E-003
  -5.5999999999999939E-003     1.6974599566310644E-003
  -4.4999999999999901E-003     2.0792386494576931E-003
  -3.3999999999999864E-003     2.5132615119218826E-003
  -2.2999999999999826E-003     2.9831677675247192E-003
  -1.1999999999999927E-003     3.5071938764303923E-003
  -9.9999999999988987E-005     4.1429218836128712E-003
   1.0000000000000148E-003     4.9150912091135979E-003
   2.1000000000000185E-003     5.7821478694677353E-003
   3.2000000000000084E-003     6.7300340160727501E-003
   4.3000000000000121E-003     7.8628305345773697E-003
   5.4000000000000159E-003     9.3197925016283989E-003
   6.5000000000000058E-003     1.1076766066253185E-002
   7.6000000000000234E-003     1.2936390005052090E-002
   8.7000000000000133E-003     1.4785912819206715E-002
   9.8000000000000032E-003     1.6799183562397957E-002
   1.0900000000000021E-002     1.9294509664177895E-002
   1.2000000000000011E-002     2.2360352799296379E-002
   1.3100000000000001E-002     2.5752421468496323E-002
   1.4200000000000018E-002     2.9218850657343864E-002
   1.5300000000000008E-002     3.2838653773069382E-002
   1.6400000000000026E-002     3.6923568695783615E-002
   1.7500000000000016E-002     4.1619721800088882E-002
   1.8600000000000005E-002     4.6750344336032867E-002
   1.9700000000000023E-002     5.2086628973484039E-002
   2.0800000000000013E-002     5.7592075318098068E-002
   2.1900000000000003E-002     6.3333928585052490E-002
   2.3000000000000020E-002     6.9327622652053833E-002
   2.4100000000000010E-002     7.5611926615238190E-002
   2.5200000000000000E-002     8.2323558628559113E-002
   2.6300000000000018E-002     8.9331150054931641E-002
   2.7400000000000008E-002     9.6164770424365997E-002
   2.8500000000000025E-002    0.10227396339178085     
   2.9600000000000015E-002    0.10772456228733063     
   3.0700000000000005E-002    0.11303868144750595     
   3.1800000000000023E-002    0.11874158680438995     
   3.2900000000000013E-002    0.12404524534940720     
   3.4000000000000002E-002    0.12760752439498901     
   3.5100000000000020E-002    0.12869849801063538     
   3.6200000000000010E-002    0.12826059758663177     
   3.7300000000000028E-002    0.12708437442779541     
   3.8400000000000017E-002    0.12485914677381516     
   3.9500000000000007E-002    0.12014218419790268     
   4.0600000000000025E-002    0.11208932101726532     
   4.1700000000000015E-002    0.10055582225322723     
   4.2800000000000005E-002     8.6257919669151306E-002
   4.3900000000000022E-002     6.9477692246437073E-002
   4.5000000000000012E-002     4.9985986202955246E-002
   4.6100000000000002E-002     2.7259709313511848E-002
   4.7200000000000020E-002     5.8600160991773009E-004
   4.8300000000000010E-002    -3.0898937955498695E-002
   4.9400000000000027E-002    -6.7554526031017303E-002
   5.0500000000000017E-002   -0.10682237893342972     
   5.1600000000000007E-002   -0.14720816910266876     
   5.2700000000000025E-002   -0.18903487920761108     
   5.3800000000000014E-002   -0.23506891727447510     
   5.4900000000000004E-002   -0.28606948256492615     
   5.6000000000000022E-002   -0.34013339877128601     
   5.7100000000000012E-002   -0.39344391226768494     
   5.8200000000000002E-002   -0.44375187158584595     
   5.9300000000000019E-002   -0.49340882897377014     
   6.0400000000000009E-002   -0.54318302869796753     
   6.1500000000000027E-002   -0.59454905986785889     
   6.2600000000000017E-002   -0.64205366373062134     
   6.3700000000000007E-002   -0.68336874246597290     
   6.4800000000000024E-002   -0.71651983261108398     
   6.5900000000000014E-002   -0.74222135543823242     
   6.7000000000000004E-002   -0.76264137029647827     
   6.8100000000000022E-002   -0.77705281972885132     
   6.9200000000000012E-002   -0.78244352340698242     
   7.0300000000000029E-002   -0.77613043785095215     
   7.1400000000000019E-002   -0.75720268487930298     
   7.2500000000000009E-002   -0.72357547283172607     
   7.3600000000000027E-002   -0.67819547653198242     
   7.4700000000000016E-002   -0.62388503551483154     
   7.5800000000000006E-002   -0.56235682964324951     
   7.6900000000000024E-002   -0.48945957422256470     
   7.8000000000000014E-002   -0.39789700508117676     
   7.9100000000000004E-002   -0.28993535041809082     
   8.0200000000000021E-002   -0.17432989180088043     
   8.1300000000000011E-002    -5.8932516723871231E-002
   8.2400000000000029E-002     5.9234101325273514E-002
   8.3500000000000019E-002    0.18607251346111298     
   8.4600000000000009E-002    0.32539844512939453     
   8.5700000000000026E-002    0.46961680054664612     
   8.6800000000000016E-002    0.60847502946853638     
   8.7900000000000006E-002    0.73814356327056885     
   8.9000000000000024E-002    0.86231499910354614     
   9.0100000000000013E-002    0.98238205909729004     
   9.1200000000000003E-002     1.0957579612731934     
   9.2300000000000021E-002     1.1997323036193848     
   9.3400000000000011E-002     1.2917535305023193     
   9.4500000000000028E-002     1.3690593242645264     
   9.5600000000000018E-002     1.4241187572479248     
   9.6700000000000008E-002     1.4558140039443970     
   9.7800000000000026E-002     1.4703376293182373     
   9.8900000000000016E-002     1.4762561321258545     
  0.10000000000000001          1.4700603485107422     
  0.10110000000000002          1.4391494989395142     
  0.10220000000000001          1.3757169246673584     
  0.10330000000000003          1.2892788648605347     
  0.10440000000000002          1.1943093538284302     
  0.10550000000000001          1.0950295925140381     
  0.10660000000000003         0.98135888576507568     
  0.10770000000000002         0.84753876924514771     
  0.10880000000000001         0.69863140583038330     
  0.10990000000000003         0.54266619682312012     
  0.11100000000000002         0.38257098197937012     
  0.11210000000000001         0.22123944759368896     
  0.11320000000000002          6.2044303864240646E-002
  0.11430000000000001         -8.9192502200603485E-002
  0.11540000000000003        -0.23864069581031799     
  0.11650000000000002        -0.39199051260948181     
  0.11760000000000001        -0.54098254442214966     
  0.11870000000000003        -0.67385935783386230     
  0.11980000000000002        -0.78169602155685425     
  0.12090000000000001        -0.87421220541000366     
  0.12200000000000003        -0.95893704891204834     
  0.12310000000000001         -1.0367531776428223     
  0.12420000000000003         -1.1023890972137451     
  0.12530000000000002         -1.1437448263168335     
  0.12640000000000001         -1.1602797508239746     
  0.12750000000000003         -1.1589736938476562     
  0.12860000000000002         -1.1520824432373047     
  0.12970000000000001         -1.1332943439483643     
  0.13080000000000003         -1.0995013713836670     
  0.13190000000000002         -1.0516482591629028     
  0.13300000000000001        -0.99546903371810913     
  0.13410000000000000        -0.92943507432937622     
  0.13520000000000004        -0.84915989637374878     
  0.13630000000000003        -0.76226347684860229     
  0.13740000000000002        -0.67810648679733276     
  0.13850000000000001        -0.59942692518234253     
  0.13960000000000000        -0.51679134368896484     
  0.14070000000000005        -0.42301166057586670     
  0.14180000000000004        -0.32512393593788147     
  0.14290000000000003        -0.23756133019924164     
  0.14400000000000002        -0.16426289081573486     
  0.14510000000000001         -9.5642291009426117E-002
  0.14620000000000000         -2.3744972422719002E-002
  0.14730000000000004          4.6516899019479752E-002
  0.14840000000000003         0.10571657866239548     
  0.14950000000000002         0.15343959629535675     
  0.15060000000000001         0.19625234603881836     
  0.15170000000000000         0.23621310293674469     
  0.15280000000000005         0.26670497655868530     
  0.15390000000000004         0.28457459807395935     
  0.15500000000000003         0.29769492149353027     
  0.15610000000000002         0.31288895010948181     
  0.15720000000000001         0.32599979639053345     
  0.15830000000000000         0.32569798827171326     
  0.15940000000000004         0.31175625324249268     
  0.16050000000000003         0.29717028141021729     
  0.16160000000000002         0.29121327400207520     
  0.16270000000000001         0.28724196553230286     
  0.16380000000000000         0.27219718694686890     
  0.16490000000000005         0.24565880000591278     
  0.16600000000000004         0.22043162584304810     
  0.16710000000000003         0.20450574159622192     
  0.16820000000000002         0.19127276539802551     
  0.16930000000000001         0.17143149673938751     
  0.17040000000000000         0.14863096177577972     
  0.17150000000000004         0.13192702829837799     
  0.17260000000000003         0.12216039001941681     
  0.17370000000000002         0.10922200232744217     
  0.17480000000000001          9.0443104505538940E-002
  0.17590000000000000          7.6291844248771667E-002
  0.17700000000000005          7.5503021478652954E-002
  0.17810000000000004          8.0075964331626892E-002
  0.17920000000000003          7.5758717954158783E-002
  0.18030000000000002          6.3121624290943146E-002
  0.18140000000000001          5.8357354253530502E-002
  0.18250000000000000          7.0861876010894775E-002
  0.18360000000000004          8.8969722390174866E-002
  0.18470000000000003          9.6787028014659882E-002
  0.18580000000000002          9.5608808100223541E-002
  0.18690000000000001         0.10058102011680603     
  0.18800000000000000         0.11713734269142151     
  0.18910000000000005         0.13497404754161835     
  0.19020000000000004         0.14511112868785858     
  0.19130000000000003         0.15311335027217865     
  0.19240000000000002         0.16742324829101562     
  0.19350000000000001         0.18473854660987854     
  0.19460000000000005         0.19470913708209991     
  0.19570000000000004         0.19479484856128693     
  0.19680000000000003         0.19830924272537231     
  0.19790000000000002         0.21218082308769226     
  0.19900000000000001         0.22322188317775726     
  0.20010000000000000         0.21778996288776398     
  0.20120000000000005         0.20003509521484375     
  0.20230000000000004         0.18842980265617371     
  0.20340000000000003         0.18839716911315918     
  0.20450000000000002         0.18454663455486298     
  0.20560000000000000         0.16259191930294037     
  0.20670000000000005         0.13033969700336456     
  0.20780000000000004         0.10238260775804520     
  0.20890000000000003          8.2334764301776886E-002
