 -0.12000000000000000          0.0000000000000000     
 -0.11889999999999999          0.0000000000000000     
 -0.11780000000000000          5.7030726807738574E-009
 -0.11670000000000000          6.2262417444003404E-009
 -0.11559999999999999         -2.3212104238723441E-008
 -0.11449999999999999         -3.3697602930260473E-008
 -0.11340000000000000          5.4658176651400936E-008
 -0.11230000000000000          1.2594773579621688E-007
 -0.11119999999999999         -5.2622109336653011E-008
 -0.11009999999999999         -3.1760373531142250E-007
 -0.10900000000000000         -1.0819401552453201E-007
 -0.10790000000000000          5.4488799605678651E-007
 -0.10679999999999999          5.8939764358001412E-007
 -0.10569999999999999         -5.1740300932578975E-007
 -0.10460000000000000         -1.3211156328907236E-006
 -0.10349999999999999         -8.3327350353101792E-008
 -0.10239999999999999          1.9580502339522354E-006
 -0.10130000000000000          1.4124537983661867E-006
 -0.10020000000000000         -1.9452720607660012E-006
  -9.9099999999999994E-002    -3.3329808957205387E-006
  -9.7999999999999990E-002     5.4441932206827914E-007
  -9.6899999999999986E-002     5.1065903790004086E-006
  -9.5799999999999996E-002     2.9420912142086308E-006
  -9.4699999999999993E-002    -4.6294389903778210E-006
  -9.3599999999999989E-002    -7.1327772275253665E-006
  -9.2499999999999999E-002     5.5258504971789080E-007
  -9.1399999999999995E-002     8.8268234321731143E-006
  -9.0299999999999991E-002     5.4045653996581677E-006
  -8.9200000000000002E-002    -6.2548174355470110E-006
  -8.8099999999999984E-002    -1.0009005563915707E-005
  -8.6999999999999994E-002     1.3863201786534773E-007
  -8.5899999999999990E-002     1.0309024219168350E-005
  -8.4799999999999986E-002     6.2048861764196772E-006
  -8.3699999999999997E-002    -5.8799928410735447E-006
  -8.2599999999999993E-002    -8.4262137534096837E-006
  -8.1499999999999989E-002     9.7230145001958590E-007
  -8.0399999999999999E-002     6.6568600232130848E-006
  -7.9299999999999995E-002     2.2702403157381923E-007
  -7.8199999999999992E-002    -5.9926128415099811E-006
  -7.7100000000000002E-002     1.4327805786251702E-007
  -7.5999999999999984E-002     8.6113077486515976E-006
  -7.4899999999999994E-002     2.1684843432012713E-006
  -7.3799999999999991E-002    -1.2870582395407837E-005
  -7.2699999999999987E-002    -1.1678883311105892E-005
  -7.1599999999999997E-002     9.8757491286960430E-006
  -7.0499999999999993E-002     2.2379776055458933E-005
  -6.9399999999999989E-002     3.4233373753522756E-006
  -6.8300000000000000E-002    -2.5092758733080700E-005
  -6.7199999999999996E-002    -2.3285509087145329E-005
  -6.6099999999999992E-002     9.1063648142153397E-006
  -6.5000000000000002E-002     2.8764241505996324E-005
  -6.3899999999999985E-002     8.8684328147792257E-006
  -6.2799999999999995E-002    -2.2660409740637988E-005
  -6.1699999999999991E-002    -2.3612719814991578E-005
  -6.0599999999999994E-002     2.6613602130964864E-006
  -5.9499999999999990E-002     1.6143583707162179E-005
  -5.8399999999999994E-002     1.5838758145036991E-006
  -5.7299999999999990E-002    -1.2541636351670604E-005
  -5.6199999999999986E-002    -4.1029693420568947E-006
  -5.5099999999999996E-002     6.2280764723254833E-006
  -5.3999999999999992E-002    -7.8856319305486977E-006
  -5.2899999999999989E-002    -2.8500619009719230E-005
  -5.1799999999999985E-002    -1.7080341422115453E-005
  -5.0699999999999995E-002     1.9343420717632398E-005
  -4.9599999999999991E-002     2.7514275643625297E-005
  -4.8499999999999988E-002    -1.4185400686983485E-005
  -4.7399999999999998E-002    -5.4597356211161241E-005
  -4.6299999999999994E-002    -3.6851972254225984E-005
  -4.5199999999999990E-002     1.7838077837950550E-005
  -4.4099999999999986E-002     3.5668177588377148E-005
  -4.2999999999999997E-002    -6.6439870352041908E-006
  -4.1899999999999993E-002    -5.0375027058180422E-005
  -4.0799999999999989E-002    -4.0476319554727525E-005
  -3.9699999999999985E-002    -1.0292734486938571E-006
  -3.8599999999999995E-002     8.3659715528483503E-006
  -3.7499999999999992E-002    -1.7048729205271229E-005
  -3.6399999999999988E-002    -2.8502818167908117E-005
  -3.5299999999999984E-002    -7.8046023190836422E-006
  -3.4199999999999994E-002     3.2549078241572715E-006
  -3.3099999999999991E-002    -2.4369401216972619E-005
  -3.1999999999999987E-002    -5.0630875193746760E-005
  -3.0899999999999997E-002    -2.4606861188658513E-005
  -2.9799999999999993E-002     2.8080034098820761E-005
  -2.8699999999999989E-002     3.2670930522726849E-005
  -2.7599999999999986E-002    -2.3469534426112659E-005
  -2.6499999999999996E-002    -6.3741121266502887E-005
  -2.5399999999999992E-002    -2.8755852326867171E-005
  -2.4299999999999988E-002     3.6374891351442784E-005
  -2.3199999999999985E-002     4.6773042413406074E-005
  -2.2099999999999995E-002    -7.2556480290586478E-007
  -2.0999999999999991E-002    -2.8875741918454878E-005
  -1.9899999999999987E-002     2.3605698515893891E-006
  -1.8799999999999983E-002     4.1888517444022000E-005
  -1.7699999999999994E-002     3.3734177122823894E-005
  -1.6599999999999990E-002     5.3540065891866107E-006
  -1.5499999999999986E-002     1.8633361833053641E-005
  -1.4399999999999996E-002     6.4199710323009640E-005
  -1.3299999999999992E-002     7.3853334470186383E-005
  -1.2199999999999989E-002     3.1005114578874782E-005
  -1.1099999999999985E-002     3.3028768484655302E-006
  -9.9999999999999950E-003     4.3301108235027641E-005
  -8.8999999999999913E-003     1.0413568816147745E-004
  -7.7999999999999875E-003     1.0463093349244446E-004
  -6.6999999999999837E-003     4.8493144277017564E-005
  -5.5999999999999939E-003     1.9548815544112585E-005
  -4.4999999999999901E-003     5.8077195717487484E-005
  -3.3999999999999864E-003     1.0509294224902987E-004
  -2.2999999999999826E-003     9.4910785264801234E-005
  -1.1999999999999927E-003     4.9910737288882956E-005
  -9.9999999999988987E-005     4.0520524635212496E-005
   1.0000000000000148E-003     7.3516115662641823E-005
   2.1000000000000185E-003     8.4742627223022282E-005
   3.2000000000000084E-003     4.5354441681411117E-005
   4.3000000000000121E-003     9.9574281193781644E-006
   5.4000000000000159E-003     2.8616399504244328E-005
   6.5000000000000058E-003     6.4689083956182003E-005
   7.6000000000000234E-003     4.8960897402139381E-005
   8.7000000000000133E-003    -1.1808076123998035E-005
   9.8000000000000032E-003    -4.1887858969857916E-005
   1.0900000000000021E-002    -1.1504274880280718E-005
   1.2000000000000011E-002     1.8453947632224299E-005
   1.3100000000000001E-002    -1.0265999662806280E-005
   1.4200000000000018E-002    -6.7145854700356722E-005
   1.5300000000000008E-002    -8.2453276263549924E-005
   1.6400000000000026E-002    -5.2109826356172562E-005
   1.7500000000000016E-002    -3.9654820284340531E-005
   1.8600000000000005E-002    -7.5904434197582304E-005
   1.9700000000000023E-002    -1.1378866474842653E-004
   2.0800000000000013E-002    -1.0502467193873599E-004
   2.1900000000000003E-002    -7.4341609433759004E-005
   2.3000000000000020E-002    -7.7747383329551667E-005
   2.4100000000000010E-002    -1.1478735541459173E-004
   2.5200000000000000E-002    -1.2978722224943340E-004
   2.6300000000000018E-002    -9.9264623713679612E-005
   2.7400000000000008E-002    -6.9520006945822388E-005
   2.8500000000000025E-002    -8.1685895565897226E-005
   2.9600000000000015E-002    -1.1026851279893890E-004
   3.0700000000000005E-002    -1.0451229900354519E-004
   3.1800000000000023E-002    -6.6048254666384310E-005
   3.2900000000000013E-002    -4.4762084144167602E-005
   3.4000000000000002E-002    -5.8556597650749609E-005
   3.5100000000000020E-002    -6.9226749474182725E-005
   3.6200000000000010E-002    -4.5595159463118762E-005
   3.7300000000000028E-002    -1.0148878573090769E-005
   3.8400000000000017E-002    -4.7361194788209104E-007
   3.9500000000000007E-002    -1.3250963093014434E-005
   4.0600000000000025E-002    -1.1027494110749103E-005
   4.1700000000000015E-002     1.5857607650104910E-005
   4.2800000000000005E-002     3.4920762118417770E-005
   4.3900000000000022E-002     3.0208133466658182E-005
   4.5000000000000012E-002     2.4749442673055455E-005
   4.6100000000000002E-002     4.0540868212701753E-005
   4.7200000000000020E-002     6.4091254898812622E-005
   4.8300000000000010E-002     6.7729226429946721E-005
   4.9400000000000027E-002     5.4194639233173802E-005
   5.0500000000000017E-002     4.9843460146803409E-005
   5.1600000000000007E-002     6.1557970184367150E-005
   5.2700000000000025E-002     6.9492285547312349E-005
   5.3800000000000014E-002     6.0830981965409592E-005
   5.4900000000000004E-002     5.0626793381525204E-005
   5.6000000000000022E-002     5.4287436796585098E-005
   5.7100000000000012E-002     6.1146391090005636E-005
   5.8200000000000002E-002     5.3864339861320332E-005
   5.9300000000000019E-002     3.8113041227916256E-005
   6.0400000000000009E-002     3.4381668228888884E-005
   6.1500000000000027E-002     4.2713902075774968E-005
   6.2600000000000017E-002     4.1580879042157903E-005
   6.3700000000000007E-002     2.2904461729922332E-005
   6.4800000000000024E-002     7.2215234467876144E-006
   6.5900000000000014E-002     1.0576515705906786E-005
   6.7000000000000004E-002     1.7680102246231399E-005
   6.8100000000000022E-002     8.0973095464287326E-006
   6.9200000000000012E-002    -8.1553698692005128E-006
   7.0300000000000029E-002    -5.8308819461672101E-006
   7.1400000000000019E-002     1.0505671525606886E-005
   7.2500000000000009E-002     8.1174266597372480E-006
   7.3600000000000027E-002    -2.1242010916466825E-005
   7.4700000000000016E-002    -4.0872157114790753E-005
   7.5800000000000006E-002    -2.1700361685361713E-005
   7.6900000000000024E-002     9.5608565970906056E-006
   7.8000000000000014E-002     5.7811653277894948E-006
   7.9100000000000004E-002    -2.9039050787105225E-005
   8.0200000000000021E-002    -4.3540421756915748E-005
   8.1300000000000011E-002    -1.7561018466949463E-005
   8.2400000000000029E-002     7.0825012699060608E-006
   8.3500000000000019E-002    -7.0805344876134768E-006
   8.4600000000000009E-002    -3.2837277103681117E-005
   8.5700000000000026E-002    -2.2873919078847393E-005
   8.6800000000000016E-002     1.0893696526181884E-005
   8.7900000000000006E-002     1.2374927791825030E-005
   8.9000000000000024E-002    -2.8341883080429398E-005
   9.0100000000000013E-002    -5.0020571507047862E-005
   9.1200000000000003E-002    -1.1702953997883014E-005
   9.2300000000000021E-002     3.7349542253650725E-005
   9.3400000000000011E-002     2.7214315196033567E-005
   9.4500000000000028E-002    -2.6870626243180595E-005
   9.5600000000000018E-002    -4.5003176637692377E-005
   9.6700000000000008E-002    -1.3476484355123830E-006
   9.7800000000000026E-002     3.7413206882774830E-005
   9.8900000000000016E-002     1.4805590581090655E-005
  0.10000000000000001         -2.8468550226534717E-005
  0.10110000000000002         -2.0248666260158643E-005
  0.10220000000000001          2.6147492462769151E-005
  0.10330000000000003          3.2002681109588593E-005
  0.10440000000000002         -1.8922990420833230E-005
  0.10550000000000001         -4.7335815906990319E-005
  0.10660000000000003         -4.9917570521529342E-008
  0.10770000000000002          5.9730795328505337E-005
  0.10880000000000001          4.1607236198615283E-005
  0.10990000000000003         -3.3701049687806517E-005
  0.11100000000000002         -5.9266036259941757E-005
  0.11210000000000001         -9.9732368141758343E-008
  0.11320000000000002          5.5079464800655842E-005
  0.11430000000000001          2.8135227694292553E-005
  0.11540000000000003         -3.3240379707422107E-005
  0.11650000000000002         -3.3223972423002124E-005
  0.11760000000000001          2.2914980945643038E-005
  0.11870000000000003          4.0781673305900767E-005
  0.11980000000000002         -1.0598607332212850E-005
  0.12090000000000001         -4.7580491809640080E-005
  0.12200000000000003         -4.7288299356296193E-006
  0.12310000000000001          5.6410422985209152E-005
  0.12420000000000003          3.7669778976123780E-005
  0.12530000000000002         -4.0953305870061740E-005
  0.12640000000000001         -6.4430925704073161E-005
  0.12750000000000003          4.1047173908737022E-006
  0.12860000000000002          6.4757521613501012E-005
  0.12970000000000001          3.0206465453375131E-005
  0.13080000000000003         -4.3564512452576309E-005
  0.13190000000000002         -4.4691416405839846E-005
  0.13300000000000001          2.3670507289352827E-005
  0.13410000000000000          5.1569157221820205E-005
  0.13520000000000004         -5.1519050430215430E-006
  0.13630000000000003         -5.6175689678639174E-005
  0.13740000000000002         -1.8421322238282301E-005
  0.13850000000000001          5.2336912631290033E-005
  0.13960000000000000          4.5633147237822413E-005
  0.14070000000000005         -3.2301108149113134E-005
  0.14180000000000004         -6.5176362113561481E-005
  0.14290000000000003         -3.1778536140336655E-006
  0.14400000000000002          6.1286424170248210E-005
  0.14510000000000001          3.4244916605530307E-005
  0.14620000000000000         -3.8927493733353913E-005
  0.14730000000000004         -4.6874069084879011E-005
  0.14840000000000003          1.6636855434626341E-005
  0.14950000000000002          4.8030640755314380E-005
  0.15060000000000001         -1.4812208064540755E-006
  0.15170000000000000         -5.0290997023694217E-005
  0.15280000000000005         -1.6667610907461494E-005
  0.15390000000000004          4.9963335186475888E-005
  0.15500000000000003          4.3406995246186852E-005
  0.15610000000000002         -3.2848107366589829E-005
  0.15720000000000001         -6.5962391090579331E-005
  0.15830000000000000         -3.8916709854674991E-006
  0.15940000000000004          6.4132800616789609E-005
  0.16050000000000003          4.0418541175313294E-005
  0.16160000000000002         -3.6836576327914372E-005
  0.16270000000000001         -5.4395881306845695E-005
  0.16380000000000000          6.5062945395766292E-006
  0.16490000000000005          4.8833218897925690E-005
  0.16600000000000004          1.1988529877271503E-005
  0.16710000000000003         -3.9749807910993695E-005
  0.16820000000000002         -2.3441089069820009E-005
  0.16930000000000001          3.2618059776723385E-005
  0.17040000000000000          3.6500099668046460E-005
  0.17150000000000004         -2.0774659788003191E-005
  0.17260000000000003         -4.9977039452642202E-005
  0.17370000000000002         -2.8747078886226518E-006
  0.17480000000000001          5.1320173952262849E-005
  0.17590000000000000          3.0838098609820008E-005
  0.17700000000000005         -3.4167758713010699E-005
  0.17810000000000004         -4.7739005822222680E-005
  0.17920000000000003          7.3611613515822683E-006
  0.18030000000000002          4.6834469685563818E-005
  0.18140000000000001          1.4463756087934598E-005
  0.18250000000000000         -3.6021774576511234E-005
  0.18360000000000004         -2.7591526304604486E-005
  0.18470000000000003          2.2891266780789010E-005
  0.18580000000000002          3.5188404581276700E-005
  0.18690000000000001         -8.7709267972968519E-006
  0.18800000000000000         -3.9237449527718127E-005
  0.18910000000000005         -8.3832737800548784E-006
  0.19020000000000004          3.6586054193321615E-005
  0.19130000000000003          2.7296993721392937E-005
  0.19240000000000002         -2.1631251001963392E-005
  0.19350000000000001         -3.6944002204108983E-005
  0.19460000000000005          1.6566198155487655E-006
  0.19570000000000004          3.3997748687397689E-005
  0.19680000000000003          1.3224380381871015E-005
  0.19790000000000002         -2.5531466235406697E-005
  0.19900000000000001         -2.2874444766785018E-005
  0.20010000000000000          1.4406883565243334E-005
  0.20120000000000005          2.7827345547848381E-005
  0.20230000000000004         -1.3749004210694693E-006
  0.20340000000000003         -2.6132300263270736E-005
  0.20450000000000002         -8.5632736954721622E-006
  0.20560000000000000          2.2713000362273306E-005
  0.20670000000000005          1.8920942238764837E-005
  0.20780000000000004         -1.4048658158571925E-005
  0.20890000000000003         -2.6658439310267568E-005
