 -0.12000000000000000          0.0000000000000000     
 -0.11889999999999999          0.0000000000000000     
 -0.11780000000000000          0.0000000000000000     
 -0.11670000000000000          0.0000000000000000     
 -0.11559999999999999          0.0000000000000000     
 -0.11449999999999999          0.0000000000000000     
 -0.11340000000000000          3.7333332904071134E-015
 -0.11230000000000000         -5.2391147721693974E-015
 -0.11119999999999999         -3.3520241297284661E-014
 -0.11009999999999999          3.2159591287737876E-014
 -0.10900000000000000          1.4327482342896269E-013
 -0.10790000000000000         -1.5196439213330942E-013
 -0.10679999999999999         -3.2490809630421336E-013
 -0.10569999999999999          1.2175888552609648E-012
 -0.10460000000000000          1.2988453628598462E-012
 -0.10349999999999999         -7.2000664978755236E-012
 -0.10239999999999999         -1.2619196486374218E-011
 -0.10130000000000000          1.8466886006485161E-011
 -0.10020000000000000          6.7603277142946894E-011
  -9.9099999999999994E-002     1.8233083445839959E-011
  -9.7999999999999990E-002    -1.6871849750632606E-010
  -9.6899999999999986E-002    -2.3723323305802069E-010
  -9.5799999999999996E-002     8.9115485824020624E-011
  -9.4699999999999993E-002     5.0614645807911529E-010
  -9.3599999999999989E-002     3.7834449462259556E-010
  -9.2499999999999999E-002    -7.5518181985589905E-011
  -9.1399999999999995E-002     4.1878028822495139E-011
  -9.0299999999999991E-002    -3.2150070800041064E-011
  -8.9200000000000002E-002    -2.6504538563898450E-009
  -8.8099999999999984E-002    -6.0058349404812361E-009
  -8.6999999999999994E-002    -1.3967916823176552E-009
  -8.5899999999999990E-002     1.4788890112527042E-008
  -8.4799999999999986E-002     2.5754626875595932E-008
  -8.3699999999999997E-002     6.6298135870113128E-009
  -8.2599999999999993E-002    -3.6520667379136285E-008
  -8.1499999999999989E-002    -5.7627111971214617E-008
  -8.0399999999999999E-002    -2.6412381615159575E-008
  -7.9299999999999995E-002     2.2332969251692703E-008
  -7.8199999999999992E-002     4.1578402942832327E-008
  -7.7100000000000002E-002     6.3671670602616359E-008
  -7.5999999999999984E-002     1.4729283748238231E-007
  -7.4899999999999994E-002     1.9699423603469768E-007
  -7.3799999999999991E-002    -2.0897164887401232E-008
  -7.2699999999999987E-002    -5.1091791419821675E-007
  -7.1599999999999997E-002    -7.9450609291598084E-007
  -7.0499999999999993E-002    -3.4839044360523985E-007
  -6.9399999999999989E-002     6.1628054481843719E-007
  -6.8300000000000000E-002     1.1884604873557691E-006
  -6.7199999999999996E-002     8.7752982835809235E-007
  -6.6099999999999992E-002     3.2737906963120622E-007
  -6.5000000000000002E-002     2.8894066872453550E-007
  -6.3899999999999985E-002     1.3261073661396949E-007
  -6.2799999999999995E-002    -1.4620609363191761E-006
  -6.1699999999999991E-002    -3.9155393096734770E-006
  -6.0599999999999994E-002    -4.2238830246787984E-006
  -5.9499999999999990E-002    -5.7086316473942134E-007
  -5.8399999999999994E-002     4.2886395021923818E-006
  -5.7299999999999990E-002     5.6677190514164977E-006
  -5.6199999999999986E-002     3.3839203297247877E-006
  -5.5099999999999996E-002     2.6299962883058470E-006
  -5.3999999999999992E-002     6.1273840401554480E-006
  -5.2899999999999989E-002     7.9302681115223095E-006
  -5.1799999999999985E-002    -2.1669312388894468E-007
  -5.0699999999999995E-002    -1.6294790839310735E-005
  -4.9599999999999991E-002    -2.7285421310807578E-005
  -4.8499999999999988E-002    -2.4141785615938716E-005
  -4.7399999999999998E-002    -1.2703098036581650E-005
  -4.6299999999999994E-002    -3.5877683330909349E-006
  -4.5199999999999990E-002     5.6160238273150753E-006
  -4.4099999999999986E-002     2.7779995434684679E-005
  -4.2999999999999997E-002     6.2786108173895627E-005
  -4.1899999999999993E-002     8.6703097622375935E-005
  -4.0799999999999989E-002     7.4396179115865380E-005
  -3.9699999999999985E-002     2.8586142434505746E-005
  -3.8599999999999995E-002    -2.5378923965035938E-005
  -3.7499999999999992E-002    -7.3121431341860443E-005
  -3.6399999999999988E-002    -1.2463843449950218E-004
  -3.5299999999999984E-002    -1.8645242380443960E-004
  -3.4199999999999994E-002    -2.3336599406320602E-004
  -3.3099999999999991E-002    -2.2416685533244163E-004
  -3.1999999999999987E-002    -1.4123716391623020E-004
  -3.0899999999999997E-002     1.8925138647318818E-006
  -2.9799999999999993E-002     1.9039481412619352E-004
  -2.8699999999999989E-002     4.2088981717824936E-004
  -2.7599999999999986E-002     6.7195738665759563E-004
  -2.6499999999999996E-002     8.8486773893237114E-004
  -2.5399999999999992E-002     1.0035809827968478E-003
  -2.4299999999999988E-002     1.0292999213561416E-003
  -2.3199999999999985E-002     1.0064688976854086E-003
  -2.2099999999999995E-002     9.5362029969692230E-004
  -2.0999999999999991E-002     8.4786955267190933E-004
  -1.9899999999999987E-002     7.0378865348175168E-004
  -1.8799999999999983E-002     6.3460465753450990E-004
  -1.7699999999999994E-002     7.8354618744924664E-004
  -1.6599999999999990E-002     1.1934249196201563E-003
  -1.5499999999999986E-002     1.7907782457768917E-003
  -1.4399999999999996E-002     2.5123441591858864E-003
  -1.3299999999999992E-002     3.3940407447516918E-003
  -1.2199999999999989E-002     4.4890334829688072E-003
  -1.1099999999999985E-002     5.7373843155801296E-003
  -9.9999999999999950E-003     6.9982889108359814E-003
  -8.8999999999999913E-003     8.2270307466387749E-003
  -7.7999999999999875E-003     9.5557849854230881E-003
  -6.6999999999999837E-003     1.1164792813360691E-002
  -5.5999999999999939E-003     1.3120661489665508E-002
  -4.4999999999999901E-003     1.5407457016408443E-002
  -3.3999999999999864E-003     1.8074989318847656E-002
  -2.2999999999999826E-003     2.1270651370286942E-002
  -1.1999999999999927E-003     2.5114031508564949E-002
  -9.9999999999988987E-005     2.9619529843330383E-002
   1.0000000000000148E-003     3.4784179180860519E-002
   2.1000000000000185E-003     4.0690321475267410E-002
   3.2000000000000084E-003     4.7414164990186691E-002
   4.3000000000000121E-003     5.4917719215154648E-002
   5.4000000000000159E-003     6.3118599355220795E-002
   6.5000000000000058E-003     7.2120606899261475E-002
   7.6000000000000234E-003     8.2207828760147095E-002
   8.7000000000000133E-003     9.3561902642250061E-002
   9.8000000000000032E-003    0.10606390982866287     
   1.0900000000000021E-002    0.11947789043188095     
   1.2000000000000011E-002    0.13389007747173309     
   1.3100000000000001E-002    0.14965336024761200     
   1.4200000000000018E-002    0.16696885228157043     
   1.5300000000000008E-002    0.18562380969524384     
   1.6400000000000026E-002    0.20521317422389984     
   1.7500000000000016E-002    0.22548833489418030     
   1.8600000000000005E-002    0.24644893407821655     
   1.9700000000000023E-002    0.26793274283409119     
   2.0800000000000013E-002    0.28957536816596985     
   2.1900000000000003E-002    0.31085258722305298     
   2.3000000000000020E-002    0.33158749341964722     
   2.4100000000000010E-002    0.35153406858444214     
   2.5200000000000000E-002    0.37026661634445190     
   2.6300000000000018E-002    0.38713550567626953     
   2.7400000000000008E-002    0.40143725275993347     
   2.8500000000000025E-002    0.41276425123214722     
   2.9600000000000015E-002    0.42048433423042297     
   3.0700000000000005E-002    0.42329233884811401     
   3.1800000000000023E-002    0.42007687687873840     
   3.2900000000000013E-002    0.41013902425765991     
   3.4000000000000002E-002    0.39302590489387512     
   3.5100000000000020E-002    0.36776316165924072     
   3.6200000000000010E-002    0.33305904269218445     
   3.7300000000000028E-002    0.28870767354965210     
   3.8400000000000017E-002    0.23439045250415802     
   3.9500000000000007E-002    0.16969220340251923     
   4.0600000000000025E-002     9.3373611569404602E-002
   4.1700000000000015E-002     5.0581987015902996E-003
   4.2800000000000005E-002    -9.5403417944908142E-002
   4.3900000000000022E-002   -0.20717610418796539     
   4.5000000000000012E-002   -0.33038556575775146     
   4.6100000000000002E-002   -0.46475306153297424     
   4.7200000000000020E-002   -0.61034500598907471     
   4.8300000000000010E-002   -0.76492547988891602     
   4.9400000000000027E-002   -0.92569392919540405     
   5.0500000000000017E-002    -1.0920091867446899     
   5.1600000000000007E-002    -1.2626867294311523     
   5.2700000000000025E-002    -1.4350172281265259     
   5.3800000000000014E-002    -1.6061192750930786     
   5.4900000000000004E-002    -1.7711551189422607     
   5.6000000000000022E-002    -1.9293553829193115     
   5.7100000000000012E-002    -2.0770146846771240     
   5.8200000000000002E-002    -2.2108564376831055     
   5.9300000000000019E-002    -2.3265242576599121     
   6.0400000000000009E-002    -2.4200248718261719     
   6.1500000000000027E-002    -2.4910235404968262     
   6.2600000000000017E-002    -2.5339171886444092     
   6.3700000000000007E-002    -2.5447094440460205     
   6.4800000000000024E-002    -2.5195457935333252     
   6.5900000000000014E-002    -2.4577941894531250     
   6.7000000000000004E-002    -2.3618471622467041     
   6.8100000000000022E-002    -2.2321422100067139     
   6.9200000000000012E-002    -2.0584061145782471     
   7.0300000000000029E-002    -1.8374327421188354     
   7.1400000000000019E-002    -1.5782936811447144     
   7.2500000000000009E-002    -1.2878990173339844     
   7.3600000000000027E-002   -0.96737176179885864     
   7.4700000000000016E-002   -0.61252087354660034     
   7.5800000000000006E-002   -0.22556230425834656     
   7.6900000000000024E-002    0.18618004024028778     
   7.8000000000000014E-002    0.61262142658233643     
   7.9100000000000004E-002     1.0502753257751465     
   8.0200000000000021E-002     1.4949944019317627     
   8.1300000000000011E-002     1.9367232322692871     
   8.2400000000000029E-002     2.3672280311584473     
   8.3500000000000019E-002     2.7838563919067383     
   8.4600000000000009E-002     3.1837103366851807     
   8.5700000000000026E-002     3.5572316646575928     
   8.6800000000000016E-002     3.8885083198547363     
   8.7900000000000006E-002     4.1684918403625488     
   8.9000000000000024E-002     4.4004778861999512     
   9.0100000000000013E-002     4.5888786315917969     
   9.1200000000000003E-002     4.7277541160583496     
   9.2300000000000021E-002     4.8028025627136230     
   9.3400000000000011E-002     4.8060302734375000     
   9.4500000000000028E-002     4.7437968254089355     
   9.5600000000000018E-002     4.6233091354370117     
   9.6700000000000008E-002     4.4468617439270020     
   9.7800000000000026E-002     4.2115845680236816     
   9.8900000000000016E-002     3.9188268184661865     
  0.10000000000000001          3.5704519748687744     
  0.10110000000000002          3.1763772964477539     
  0.10220000000000001          2.7394111156463623     
  0.10330000000000003          2.2709772586822510     
  0.10440000000000002          1.7826324701309204     
  0.10550000000000001          1.2835947275161743     
  0.10660000000000003         0.77112668752670288     
  0.10770000000000002         0.24480302631855011     
  0.10880000000000001        -0.28017961978912354     
  0.10990000000000003        -0.78185814619064331     
  0.11100000000000002         -1.2482638359069824     
  0.11210000000000001         -1.6860178709030151     
  0.11320000000000002         -2.1044716835021973     
  0.11430000000000001         -2.4937891960144043     
  0.11540000000000003         -2.8297014236450195     
  0.11650000000000002         -3.1076695919036865     
  0.11760000000000001         -3.3362371921539307     
  0.11870000000000003         -3.5149362087249756     
  0.11980000000000002         -3.6447393894195557     
  0.12090000000000001         -3.7243130207061768     
  0.12200000000000003         -3.7534980773925781     
  0.12310000000000001         -3.7328448295593262     
  0.12420000000000003         -3.6624531745910645     
  0.12530000000000002         -3.5444984436035156     
  0.12640000000000001         -3.3867199420928955     
  0.12750000000000003         -3.2019293308258057     
  0.12860000000000002         -2.9969458580017090     
  0.12970000000000001         -2.7659082412719727     
  0.13080000000000003         -2.5009684562683105     
  0.13190000000000002         -2.2127015590667725     
  0.13300000000000001         -1.9244406223297119     
  0.13410000000000000         -1.6465812921524048     
  0.13520000000000004         -1.3700515031814575     
  0.13630000000000003         -1.0854862928390503     
  0.13740000000000002        -0.80042576789855957     
  0.13850000000000001        -0.53190618753433228     
  0.13960000000000000        -0.28773006796836853     
  0.14070000000000005         -6.1210606247186661E-002
  0.14180000000000004         0.15276418626308441     
  0.14290000000000003         0.34788861870765686     
  0.14400000000000002         0.51674705743789673     
  0.14510000000000001         0.66239762306213379     
  0.14620000000000000         0.79147046804428101     
  0.14730000000000004         0.90105110406875610     
  0.14840000000000003         0.98314869403839111     
  0.14950000000000002          1.0381282567977905     
  0.15060000000000001          1.0781924724578857     
  0.15170000000000000          1.1106128692626953     
  0.15280000000000005          1.1263847351074219     
  0.15390000000000004          1.1159613132476807     
  0.15500000000000003          1.0865845680236816     
  0.15610000000000002          1.0554890632629395     
  0.15720000000000001          1.0271270275115967     
  0.15830000000000000         0.98679786920547485     
  0.15940000000000004         0.92419403791427612     
  0.16050000000000003         0.85147285461425781     
  0.16160000000000002         0.78979653120040894     
  0.16270000000000001         0.73952168226242065     
  0.16380000000000000         0.68288916349411011     
  0.16490000000000005         0.61045920848846436     
  0.16600000000000004         0.53433465957641602     
  0.16710000000000003         0.47210469841957092     
  0.16820000000000002         0.42156067490577698     
  0.16930000000000001         0.36914774775505066     
  0.17040000000000000         0.31185564398765564     
  0.17150000000000004         0.26080292463302612     
  0.17260000000000003         0.22001327574253082     
  0.17370000000000002         0.17990446090698242     
  0.17480000000000001         0.13368700444698334     
  0.17590000000000000          9.3273639678955078E-002
  0.17700000000000005          7.2000414133071899E-002
  0.17810000000000004          6.1457213014364243E-002
  0.17920000000000003          3.9537742733955383E-002
  0.18030000000000002          2.5779970455914736E-003
  0.18140000000000001         -2.6754530146718025E-002
  0.18250000000000000         -3.0659509822726250E-002
  0.18360000000000004         -2.2633694112300873E-002
  0.18470000000000003         -2.8781987726688385E-002
  0.18580000000000002         -5.1427263766527176E-002
  0.18690000000000001         -6.7256756126880646E-002
  0.18800000000000000         -6.2670409679412842E-002
  0.18910000000000005         -5.2441976964473724E-002
  0.19020000000000004         -5.6000094860792160E-002
  0.19130000000000003         -6.8297237157821655E-002
  0.19240000000000002         -6.9049604237079620E-002
  0.19350000000000001         -5.6135501712560654E-002
  0.19460000000000005         -4.8739347606897354E-002
  0.19570000000000004         -5.6204725056886673E-002
  0.19680000000000003         -6.3698343932628632E-002
  0.19790000000000002         -5.5281031876802444E-002
  0.19900000000000001         -4.0047038346529007E-002
  0.20010000000000000         -3.8324162364006042E-002
  0.20120000000000005         -4.9265123903751373E-002
  0.20230000000000004         -5.1358383148908615E-002
  0.20340000000000003         -3.5840693861246109E-002
  0.20450000000000002         -2.1974707022309303E-002
  0.20560000000000000         -2.8438685461878777E-002
  0.20670000000000005         -4.3006248772144318E-002
  0.20780000000000004         -3.9626196026802063E-002
  0.20890000000000003         -1.7892414703965187E-002
