 -0.12000000000000000          0.0000000000000000     
 -0.11889999999999999          0.0000000000000000     
 -0.11780000000000000          0.0000000000000000     
 -0.11670000000000000          0.0000000000000000     
 -0.11559999999999999          0.0000000000000000     
 -0.11449999999999999          0.0000000000000000     
 -0.11340000000000000          0.0000000000000000     
 -0.11230000000000000         -1.1383680269470081E-017
 -0.11119999999999999          8.4573831033398134E-017
 -0.11009999999999999         -2.6138958641873653E-017
 -0.10900000000000000         -1.0787037639875216E-015
 -0.10790000000000000          9.4614543708282850E-016
 -0.10679999999999999          8.7509023600574123E-015
 -0.10569999999999999         -5.8314275480089110E-015
 -0.10460000000000000         -5.5820006548881057E-014
 -0.10349999999999999          6.5982062410932345E-015
 -0.10239999999999999          2.8185299146693543E-013
 -0.10130000000000000          1.5994761667480900E-013
 -0.10020000000000000         -1.0590776302818461E-012
  -9.9099999999999994E-002    -1.4832028834288469E-012
  -9.7999999999999990E-002     2.5192408922847243E-012
  -9.6899999999999986E-002     7.2620624791408517E-012
  -9.5799999999999996E-002    -9.9733231655879662E-013
  -9.4699999999999993E-002    -2.2152214090853661E-011
  -9.3599999999999989E-002    -1.9349032792659315E-011
  -9.2499999999999999E-002     3.6607231135299401E-011
  -9.1399999999999995E-002     8.3073159462543344E-011
  -9.0299999999999991E-002     5.9615329166262665E-012
  -8.9200000000000002E-002    -1.5941423181509151E-010
  -8.8099999999999984E-002    -1.7596252233076370E-010
  -8.6999999999999994E-002     6.9265732038914507E-011
  -8.5899999999999990E-002     3.0670982420488713E-010
  -8.4799999999999986E-002     2.7006705205501191E-010
  -8.3699999999999997E-002     1.5513153261981216E-010
  -8.2599999999999993E-002     3.3107312030766778E-011
  -8.1499999999999989E-002    -8.7744972399050880E-010
  -8.0399999999999999E-002    -2.6078026404974253E-009
  -7.9299999999999995E-002    -1.8983494776136922E-009
  -7.8199999999999992E-002     4.8046500111809110E-009
  -7.7100000000000002E-002     1.2299506302326790E-008
  -7.5999999999999984E-002     5.8685727388763098E-009
  -7.4899999999999994E-002    -1.9135425688432406E-008
  -7.3799999999999991E-002    -3.7097329652624467E-008
  -7.2699999999999987E-002    -1.1122783583061846E-008
  -7.1599999999999997E-002     5.2004001105387943E-008
  -7.0499999999999993E-002     8.3057301480948809E-008
  -6.9399999999999989E-002     2.1627004187507737E-008
  -6.8300000000000000E-002    -9.2758988046170998E-008
  -6.7199999999999996E-002    -1.4312865914689610E-007
  -6.6099999999999992E-002    -6.9314737061176857E-008
  -6.5000000000000002E-002     6.4216337136713264E-008
  -6.3899999999999985E-002     1.6906865596411080E-007
  -6.2799999999999995E-002     2.3305989316213527E-007
  -6.1699999999999991E-002     2.2747090611119347E-007
  -6.0599999999999994E-002    -6.1952780683327546E-009
  -5.9499999999999990E-002    -5.4148301842360524E-007
  -5.8399999999999994E-002    -9.8156669992022216E-007
  -5.7299999999999990E-002    -6.1706924725513090E-007
  -5.6199999999999986E-002     6.7270877934788587E-007
  -5.5099999999999996E-002     1.8429268493491691E-006
  -5.3999999999999992E-002     1.5861343172218767E-006
  -5.2899999999999989E-002    -1.3928952213859702E-008
  -5.1799999999999985E-002    -1.3274444654598483E-006
  -5.0699999999999995E-002    -1.2022031796732335E-006
  -4.9599999999999991E-002    -6.2781549559076666E-007
  -4.8499999999999988E-002    -1.3579962114818045E-006
  -4.7399999999999998E-002    -2.9306961550901178E-006
  -4.6299999999999994E-002    -2.4716478037589695E-006
  -4.5199999999999990E-002     1.6197312788790441E-006
  -4.4099999999999986E-002     6.8073309194005560E-006
  -4.2999999999999997E-002     8.7742400864954107E-006
  -4.1899999999999993E-002     6.2727863223699387E-006
  -4.0799999999999989E-002     1.8175312561652390E-006
  -3.9699999999999985E-002    -2.5753834052011371E-006
  -3.8599999999999995E-002    -7.8408784247585572E-006
  -3.7499999999999992E-002    -1.4460718375630677E-005
  -3.6399999999999988E-002    -1.8868871848098934E-005
  -3.5299999999999984E-002    -1.6567591956118122E-005
  -3.4199999999999994E-002    -8.0810859799385071E-006
  -3.3099999999999991E-002     2.1800087779411115E-006
  -3.1999999999999987E-002     1.3550521543947980E-005
  -3.0899999999999997E-002     3.0443157811532728E-005
  -2.9799999999999993E-002     5.2308139856904745E-005
  -2.8699999999999989E-002     6.6484317358117551E-005
  -2.7599999999999986E-002     5.8071316743735224E-005
  -2.6499999999999996E-002     2.6161898858845234E-005
  -2.5399999999999992E-002    -1.7305112123722211E-005
  -2.4299999999999988E-002    -6.5933731093537062E-005
  -2.3199999999999985E-002    -1.2573241838254035E-004
  -2.2099999999999995E-002    -1.9628400332294405E-004
  -2.0999999999999991E-002    -2.5464428472332656E-004
  -1.9899999999999987E-002    -2.7432388742454350E-004
  -1.8799999999999983E-002    -2.6060538948513567E-004
  -1.7699999999999994E-002    -2.4962011957541108E-004
  -1.6599999999999990E-002    -2.6406015967950225E-004
  -1.5499999999999986E-002    -2.8565575485117733E-004
  -1.4399999999999996E-002    -2.8939728508703411E-004
  -1.3299999999999992E-002    -2.9467302374541759E-004
  -1.2199999999999989E-002    -3.5494097392074764E-004
  -1.1099999999999985E-002    -4.9196829786524177E-004
  -9.9999999999999950E-003    -6.6776300081983209E-004
  -8.8999999999999913E-003    -8.4064208203926682E-004
  -7.7999999999999875E-003    -1.0280614951625466E-003
  -6.6999999999999837E-003    -1.2865057215094566E-003
  -5.5999999999999939E-003    -1.6380535671487451E-003
  -4.4999999999999901E-003    -2.0529706962406635E-003
  -3.3999999999999864E-003    -2.5073655415326357E-003
  -2.2999999999999826E-003    -3.0167782679200172E-003
  -1.1999999999999927E-003    -3.5931512247771025E-003
  -9.9999999999988987E-005    -4.2118979617953300E-003
   1.0000000000000148E-003    -4.8773889429867268E-003
   2.1000000000000185E-003    -5.6811906397342682E-003
   3.2000000000000084E-003    -6.7331241443753242E-003
   4.3000000000000121E-003    -8.0204876139760017E-003
   5.4000000000000159E-003    -9.4068562611937523E-003
   6.5000000000000058E-003    -1.0850840248167515E-002
   7.6000000000000234E-003    -1.2521193362772465E-002
   8.7000000000000133E-003    -1.4626278541982174E-002
   9.8000000000000032E-003    -1.7136897891759872E-002
   1.0900000000000021E-002    -1.9797956570982933E-002
   1.2000000000000011E-002    -2.2484403103590012E-002
   1.3100000000000001E-002    -2.5399312376976013E-002
   1.4200000000000018E-002    -2.8856800869107246E-002
   1.5300000000000008E-002    -3.2897520810365677E-002
   1.6400000000000026E-002    -3.7260040640830994E-002
   1.7500000000000016E-002    -4.1762359440326691E-002
   1.8600000000000005E-002    -4.6496909111738205E-002
   1.9700000000000023E-002    -5.1649831235408783E-002
   2.0800000000000013E-002    -5.7295639067888260E-002
   2.1900000000000003E-002    -6.3341379165649414E-002
   2.3000000000000020E-002    -6.9718793034553528E-002
   2.4100000000000010E-002    -7.6284371316432953E-002
   2.5200000000000000E-002    -8.2795128226280212E-002
   2.6300000000000018E-002    -8.9051909744739532E-002
   2.7400000000000008E-002    -9.5175988972187042E-002
   2.8500000000000025E-002   -0.10158144682645798     
   2.9600000000000015E-002   -0.10828387737274170     
   3.0700000000000005E-002   -0.11442619562149048     
   3.1800000000000023E-002   -0.11927182227373123     
   3.2900000000000013E-002   -0.12274819612503052     
   3.4000000000000002E-002   -0.12580125033855438     
   3.5100000000000020E-002   -0.12869258224964142     
   3.6200000000000010E-002   -0.13034939765930176     
   3.7300000000000028E-002   -0.12916201353073120     
   3.8400000000000017E-002   -0.12487836927175522     
   3.9500000000000007E-002   -0.11841269582509995     
   4.0600000000000025E-002   -0.11049499362707138     
   4.1700000000000015E-002   -0.10061928629875183     
   4.2800000000000005E-002    -8.7723433971405029E-002
   4.3900000000000022E-002    -7.1296639740467072E-002
   4.5000000000000012E-002    -5.0890319049358368E-002
   4.6100000000000002E-002    -2.6162138208746910E-002
   4.7200000000000020E-002     2.0586790051311255E-003
   4.8300000000000010E-002     3.2574974000453949E-002
   4.9400000000000027E-002     6.5647989511489868E-002
   5.0500000000000017E-002    0.10218228399753571     
   5.1600000000000007E-002    0.14453262090682983     
   5.2700000000000025E-002    0.19182553887367249     
   5.3800000000000014E-002    0.24070045351982117     
   5.4900000000000004E-002    0.28861299157142639     
   5.6000000000000022E-002    0.33686432242393494     
   5.7100000000000012E-002    0.38706222176551819     
   5.8200000000000002E-002    0.44125261902809143     
   5.9300000000000019E-002    0.49770069122314453     
   6.0400000000000009E-002    0.55099481344223022     
   6.1500000000000027E-002    0.59703612327575684     
   6.2600000000000017E-002    0.63763940334320068     
   6.3700000000000007E-002    0.67690932750701904     
   6.4800000000000024E-002    0.71410274505615234     
   6.5900000000000014E-002    0.74620532989501953     
   6.7000000000000004E-002    0.76956009864807129     
   6.8100000000000022E-002    0.78149735927581787     
   6.9200000000000012E-002    0.78113651275634766     
   7.0300000000000029E-002    0.76935917139053345     
   7.1400000000000019E-002    0.75078999996185303     
   7.2500000000000009E-002    0.72645848989486694     
   7.3600000000000027E-002    0.68866944313049316     
   7.4700000000000016E-002    0.63238149881362915     
   7.5800000000000006E-002    0.55964887142181396     
   7.6900000000000024E-002    0.47792634367942810     
   7.8000000000000014E-002    0.39000725746154785     
   7.9100000000000004E-002    0.29315099120140076     
   8.0200000000000021E-002    0.18606579303741455     
   8.1300000000000011E-002     6.6843979060649872E-002
   8.2400000000000029E-002    -6.2113128602504730E-002
   8.3500000000000019E-002   -0.19706997275352478     
   8.4600000000000009E-002   -0.33345663547515869     
   8.5700000000000026E-002   -0.46767279505729675     
   8.6800000000000016E-002   -0.59962612390518188     
   8.7900000000000006E-002   -0.73153507709503174     
   8.9000000000000024E-002   -0.86266434192657471     
   9.0100000000000013E-002   -0.98969352245330811     
   9.1200000000000003E-002    -1.1059553623199463     
   9.2300000000000021E-002    -1.2055397033691406     
   9.3400000000000011E-002    -1.2876259088516235     
   9.4500000000000028E-002    -1.3561959266662598     
   9.5600000000000018E-002    -1.4160634279251099     
   9.6700000000000008E-002    -1.4640202522277832     
   9.7800000000000026E-002    -1.4891794919967651     
   9.8900000000000016E-002    -1.4863475561141968     
  0.10000000000000001         -1.4610266685485840     
  0.10110000000000002         -1.4214122295379639     
  0.10220000000000001         -1.3684413433074951     
  0.10330000000000003         -1.2996202707290649     
  0.10440000000000002         -1.2110233306884766     
  0.10550000000000001         -1.1014367341995239     
  0.10660000000000003        -0.97351312637329102     
  0.10770000000000002        -0.83453208208084106     
  0.10880000000000001        -0.69252747297286987     
  0.10990000000000003        -0.54458105564117432     
  0.11100000000000002        -0.38894557952880859     
  0.11210000000000001        -0.23023396730422974     
  0.11320000000000002         -6.7879281938076019E-002
  0.11430000000000001          9.7387619316577911E-002
  0.11540000000000003         0.25851133465766907     
  0.11650000000000002         0.40182778239250183     
  0.11760000000000001         0.53014755249023438     
  0.11870000000000003         0.65177237987518311     
  0.11980000000000002         0.77463144063949585     
  0.12090000000000001         0.88981562852859497     
  0.12200000000000003         0.98127967119216919     
  0.12310000000000001          1.0453681945800781     
  0.12420000000000003          1.0881508588790894     
  0.12530000000000002          1.1251473426818848     
  0.12640000000000001          1.1570961475372314     
  0.12750000000000003          1.1706469058990479     
  0.12860000000000002          1.1628878116607666     
  0.12970000000000001          1.1363501548767090     
  0.13080000000000003          1.0975466966629028     
  0.13190000000000002          1.0480978488922119     
  0.13300000000000001         0.98705512285232544     
  0.13410000000000000         0.92053872346878052     
  0.13520000000000004         0.85243868827819824     
  0.13630000000000003         0.77888709306716919     
  0.13740000000000002         0.69176864624023438     
  0.13850000000000001         0.59120720624923706     
  0.13960000000000000         0.49239045381546021     
  0.14070000000000005         0.40949890017509460     
  0.14180000000000004         0.33714380860328674     
  0.14290000000000003         0.25913080573081970     
  0.14400000000000002         0.16993287205696106     
  0.14510000000000001          8.2567274570465088E-002
  0.14620000000000000          1.0500834323465824E-002
  0.14730000000000004         -4.7408509999513626E-002
  0.14840000000000003        -0.10068946331739426     
  0.14950000000000002        -0.15202681720256805     
  0.15060000000000001        -0.19564116001129150     
  0.15170000000000000        -0.23044402897357941     
  0.15280000000000005        -0.26244193315505981     
  0.15390000000000004        -0.29290702939033508     
  0.15500000000000003        -0.31255209445953369     
  0.15610000000000002        -0.31503254175186157     
  0.15720000000000001        -0.30887052416801453     
  0.15830000000000000        -0.30957573652267456     
  0.15940000000000004        -0.31801527738571167     
  0.16050000000000003        -0.31883594393730164     
  0.16160000000000002        -0.30083766579627991     
  0.16270000000000001        -0.27368748188018799     
  0.16380000000000000        -0.25449350476264954     
  0.16490000000000005        -0.24470411241054535     
  0.16600000000000004        -0.23238992691040039     
  0.16710000000000003        -0.21022395789623260     
  0.16820000000000002        -0.18624906241893768     
  0.16930000000000001        -0.16887457668781281     
  0.17040000000000000        -0.15411180257797241     
  0.17150000000000004        -0.13409608602523804     
  0.17260000000000003        -0.11221619695425034     
  0.17370000000000002        -0.10025481879711151     
  0.17480000000000001         -9.8037451505661011E-002
  0.17590000000000000         -9.2631451785564423E-002
  0.17700000000000005         -7.7157653868198395E-002
  0.17810000000000004         -6.2139626592397690E-002
  0.17920000000000003         -6.1761695891618729E-002
  0.18030000000000002         -7.2960294783115387E-002
  0.18140000000000001         -7.9473465681076050E-002
  0.18250000000000000         -7.5225971639156342E-002
  0.18360000000000004         -7.2319522500038147E-002
  0.18470000000000003         -8.2770876586437225E-002
  0.18580000000000002        -0.10110078752040863     
  0.18690000000000001        -0.11343364417552948     
  0.18800000000000000        -0.11762773990631104     
  0.18910000000000005        -0.12580716609954834     
  0.19020000000000004        -0.14401692152023315     
  0.19130000000000003        -0.16247412562370300     
  0.19240000000000002        -0.17070668935775757     
  0.19350000000000001        -0.17525132000446320     
  0.19460000000000005        -0.18687489628791809     
  0.19570000000000004        -0.20404756069183350     
  0.19680000000000003        -0.21218393743038177     
  0.19790000000000002        -0.20835299789905548     
  0.19900000000000001        -0.20421613752841949     
  0.20010000000000000        -0.20890137553215027     
  0.20120000000000005        -0.21447174251079559     
  0.20230000000000004        -0.20694580674171448     
  0.20340000000000003        -0.18695293366909027     
  0.20450000000000002        -0.16695562005043030     
  0.20560000000000000        -0.15513493120670319     
  0.20670000000000005        -0.14110644161701202     
  0.20780000000000004        -0.11375162750482559     
  0.20890000000000003         -7.6957330107688904E-002
