 -0.12000000000000000          0.0000000000000000     
 -0.11889999999999999          0.0000000000000000     
 -0.11780000000000000          0.0000000000000000     
 -0.11670000000000000          0.0000000000000000     
 -0.11559999999999999          6.4928509617423469E-013
 -0.11449999999999999         -1.1329160266165816E-012
 -0.11340000000000000         -6.7333486876430815E-012
 -0.11230000000000000          1.0982585500751707E-011
 -0.11119999999999999          4.9937911444919436E-011
 -0.11009999999999999         -3.9287396252918327E-011
 -0.10900000000000000         -2.7724803008943866E-010
 -0.10790000000000000         -3.7451108186870030E-011
 -0.10679999999999999          1.0864600330506846E-009
 -0.10569999999999999          1.1499433627548683E-009
 -0.10460000000000000         -2.5528124059093216E-009
 -0.10349999999999999         -6.2735656669588025E-009
 -0.10239999999999999          7.4657274806710916E-010
 -0.10130000000000000          1.8076173446957000E-008
 -0.10020000000000000          1.8575729399117336E-008
  -9.9099999999999994E-002    -2.2345563621684050E-008
  -9.7999999999999990E-002    -6.8387294049898628E-008
  -9.6899999999999986E-002    -3.2670055105654683E-008
  -9.5799999999999996E-002     9.9011501220047649E-008
  -9.4699999999999993E-002     1.7896523729632463E-007
  -9.3599999999999989E-002     3.6256707858228765E-008
  -9.2499999999999999E-002    -2.5261925884478842E-007
  -9.1399999999999995E-002    -3.4893787415057886E-007
  -9.0299999999999991E-002    -4.5199524123518131E-008
  -8.9200000000000002E-002     3.8948456904108752E-007
  -8.8099999999999984E-002     4.6560901978409674E-007
  -8.6999999999999994E-002     1.0877414524657070E-007
  -8.5899999999999990E-002    -2.0525227739653928E-007
  -8.4799999999999986E-002    -1.1960197809912643E-007
  -8.3699999999999997E-002     2.7201760843809097E-008
  -8.2599999999999993E-002    -3.5596318070929556E-007
  -8.1499999999999989E-002    -1.1590110489123617E-006
  -8.0399999999999999E-002    -1.4852852245894610E-006
  -7.9299999999999995E-002    -6.4671525024095899E-007
  -7.8199999999999992E-002     1.1499382708279882E-006
  -7.7100000000000002E-002     3.3313476706098299E-006
  -7.5999999999999984E-002     5.6706276154727675E-006
  -7.4899999999999994E-002     7.9256369645008817E-006
  -7.3799999999999991E-002     9.2077607405371964E-006
  -7.2699999999999987E-002     8.7718808572390117E-006
  -7.1599999999999997E-002     7.5659859248844441E-006
  -7.0499999999999993E-002     7.8176981332944706E-006
  -6.9399999999999989E-002     1.0308445780538023E-005
  -6.8300000000000000E-002     1.3066838619124610E-005
  -6.7199999999999996E-002     1.4200955774867907E-005
  -6.6099999999999992E-002     1.5505886040045880E-005
  -6.5000000000000002E-002     2.1150797692826018E-005
  -6.3899999999999985E-002     3.2118812669068575E-005
  -6.2799999999999995E-002     4.3944641220150515E-005
  -6.1699999999999991E-002     5.1823884859913960E-005
  -6.0599999999999994E-002     5.6874650908866897E-005
  -5.9499999999999990E-002     6.4991072576958686E-005
  -5.8399999999999994E-002     7.9751232988201082E-005
  -5.7299999999999990E-002     9.9170531029812992E-005
  -5.6199999999999986E-002     1.2023153249174356E-004
  -5.5099999999999996E-002     1.4367660332936794E-004
  -5.3999999999999992E-002     1.7200363799929619E-004
  -5.2899999999999989E-002     2.0509984460659325E-004
  -5.1799999999999985E-002     2.4177775776479393E-004
  -5.0699999999999995E-002     2.8481404297053814E-004
  -4.9599999999999991E-002     3.3949324279092252E-004
  -4.8499999999999988E-002     4.0560937486588955E-004
  -4.7399999999999998E-002     4.7589646419510245E-004
  -4.6299999999999994E-002     5.4684502538293600E-004
  -4.5199999999999990E-002     6.2782363966107368E-004
  -4.4099999999999986E-002     7.3278130730614066E-004
  -4.2999999999999997E-002     8.6298724636435509E-004
  -4.1899999999999993E-002     1.0050883283838630E-003
  -4.0799999999999989E-002     1.1495284270495176E-003
  -3.9699999999999985E-002     1.3048567343503237E-003
  -3.8599999999999995E-002     1.4875894412398338E-003
  -3.7499999999999992E-002     1.7018084181472659E-003
  -3.6399999999999988E-002     1.9374631810933352E-003
  -3.5299999999999984E-002     2.1883293520659208E-003
  -3.4199999999999994E-002     2.4615449365228415E-003
  -3.3099999999999991E-002     2.7649432886391878E-003
  -3.1999999999999987E-002     3.0940959695726633E-003
  -3.0899999999999997E-002     3.4413333050906658E-003
  -2.9799999999999993E-002     3.8121668621897697E-003
  -2.8699999999999989E-002     4.2194952256977558E-003
  -2.7599999999999986E-002     4.6605854295194149E-003
  -2.6499999999999996E-002     5.1136827096343040E-003
  -2.5399999999999992E-002     5.5649299174547195E-003
  -2.4299999999999988E-002     6.0276803560554981E-003
  -2.3199999999999985E-002     6.5221274271607399E-003
  -2.2099999999999995E-002     7.0410277694463730E-003
  -2.0999999999999991E-002     7.5520910322666168E-003
  -1.9899999999999987E-002     8.0355359241366386E-003
  -1.8799999999999983E-002     8.5016340017318726E-003
  -1.7699999999999994E-002     8.9621637016534805E-003
  -1.6599999999999990E-002     9.3991281464695930E-003
  -1.5499999999999986E-002     9.7793107852339745E-003
  -1.4399999999999996E-002     1.0092265903949738E-002
  -1.3299999999999992E-002     1.0350318625569344E-002
  -1.2199999999999989E-002     1.0548455640673637E-002
  -1.1099999999999985E-002     1.0646660812199116E-002
  -9.9999999999999950E-003     1.0608148761093616E-002
  -8.8999999999999913E-003     1.0438816621899605E-002
  -7.7999999999999875E-003     1.0163296945393085E-002
  -6.6999999999999837E-003     9.7695011645555496E-003
  -5.5999999999999939E-003     9.2038745060563087E-003
  -4.4999999999999901E-003     8.4300478920340538E-003
  -3.3999999999999864E-003     7.4648447334766388E-003
  -2.2999999999999826E-003     6.3376040197908878E-003
  -1.1999999999999927E-003     5.0367773510515690E-003
  -9.9999999999988987E-005     3.5219974815845490E-003
   1.0000000000000148E-003     1.7839440843090415E-003
   2.1000000000000185E-003    -1.4151442155707628E-004
   3.2000000000000084E-003    -2.2306088358163834E-003
   4.3000000000000121E-003    -4.5056850649416447E-003
   5.4000000000000159E-003    -6.9861416704952717E-003
   6.5000000000000058E-003    -9.6301687881350517E-003
   7.6000000000000234E-003    -1.2363363988697529E-002
   8.7000000000000133E-003    -1.5159329399466515E-002
   9.8000000000000032E-003    -1.8049165606498718E-002
   1.0900000000000021E-002    -2.1037917584180832E-002
   1.2000000000000011E-002    -2.4047147482633591E-002
   1.3100000000000001E-002    -2.6972712948918343E-002
   1.4200000000000018E-002    -2.9778692871332169E-002
   1.5300000000000008E-002    -3.2485727220773697E-002
   1.6400000000000026E-002    -3.5073418170213699E-002
   1.7500000000000016E-002    -3.7449691444635391E-002
   1.8600000000000005E-002    -3.9529226720333099E-002
   1.9700000000000023E-002    -4.1297059506177902E-002
   2.0800000000000013E-002    -4.2759560048580170E-002
   2.1900000000000003E-002    -4.3862063437700272E-002
   2.3000000000000020E-002    -4.4508714228868484E-002
   2.4100000000000010E-002    -4.4661425054073334E-002
   2.5200000000000000E-002    -4.4363737106323242E-002
   2.6300000000000018E-002    -4.3641310185194016E-002
   2.7400000000000008E-002    -4.2427167296409607E-002
   2.8500000000000025E-002    -4.0636021643877029E-002
   2.9600000000000015E-002    -3.8283668458461761E-002
   3.0700000000000005E-002    -3.5472143441438675E-002
   3.1800000000000023E-002    -3.2257284969091415E-002
   3.2900000000000013E-002    -2.8595693409442902E-002
   3.4000000000000002E-002    -2.4453220888972282E-002
   3.5100000000000020E-002    -1.9908888265490532E-002
   3.6200000000000010E-002    -1.5093894675374031E-002
   3.7300000000000028E-002    -1.0061274282634258E-002
   3.8400000000000017E-002    -4.7886753454804420E-003
   3.9500000000000007E-002     6.8828818621113896E-004
   4.0600000000000025E-002     6.2231300398707390E-003
   4.1700000000000015E-002     1.1678121984004974E-002
   4.2800000000000005E-002     1.7034634947776794E-002
   4.3900000000000022E-002     2.2319037467241287E-002
   4.5000000000000012E-002     2.7455268427729607E-002
   4.6100000000000002E-002     3.2270584255456924E-002
   4.7200000000000020E-002     3.6653831601142883E-002
   4.8300000000000010E-002     4.0631458163261414E-002
   4.9400000000000027E-002     4.4240657240152359E-002
   5.0500000000000017E-002     4.7395292669534683E-002
   5.1600000000000007E-002     4.9954239279031754E-002
   5.2700000000000025E-002     5.1886178553104401E-002
   5.3800000000000014E-002     5.3276143968105316E-002
   5.4900000000000004E-002     5.4163772612810135E-002
   5.6000000000000022E-002     5.4460547864437103E-002
   5.7100000000000012E-002     5.4082598537206650E-002
   5.8200000000000002E-002     5.3098972886800766E-002
   5.9300000000000019E-002     5.1659669727087021E-002
   6.0400000000000009E-002     4.9803908914327621E-002
   6.1500000000000027E-002     4.7444194555282593E-002
   6.2600000000000017E-002     4.4556982815265656E-002
   6.3700000000000007E-002     4.1283495724201202E-002
   6.4800000000000024E-002     3.7792634218931198E-002
   6.5900000000000014E-002     3.4107845276594162E-002
   6.7000000000000004E-002     3.0160550028085709E-002
   6.8100000000000022E-002     2.5988398119807243E-002
   6.9200000000000012E-002     2.1764997392892838E-002
   7.0300000000000029E-002     1.7616381868720055E-002
   7.1400000000000019E-002     1.3509232550859451E-002
   7.2500000000000009E-002     9.3859061598777771E-003
   7.3600000000000027E-002     5.3369500674307346E-003
   7.4700000000000016E-002     1.5416991664096713E-003
   7.5800000000000006E-002    -1.9402861362323165E-003
   7.6900000000000024E-002    -5.2091744728386402E-003
   7.8000000000000014E-002    -8.3269951865077019E-003
   7.9100000000000004E-002    -1.1181845329701900E-002
   8.0200000000000021E-002    -1.3624472543597221E-002
   8.1300000000000011E-002    -1.5669837594032288E-002
   8.2400000000000029E-002    -1.7456497997045517E-002
   8.3500000000000019E-002    -1.9026575610041618E-002
   8.4600000000000009E-002    -2.0265335217118263E-002
   8.5700000000000026E-002    -2.1091943606734276E-002
   8.6800000000000016E-002    -2.1601730957627296E-002
   8.7900000000000006E-002    -2.1936701610684395E-002
   8.9000000000000024E-002    -2.2085040807723999E-002
   9.0100000000000013E-002    -2.1922584623098373E-002
   9.1200000000000003E-002    -2.1438118070363998E-002
   9.2300000000000021E-002    -2.0793993026018143E-002
   9.3400000000000011E-002    -2.0119961351156235E-002
   9.4500000000000028E-002    -1.9352028146386147E-002
   9.5600000000000018E-002    -1.8362589180469513E-002
   9.6700000000000008E-002    -1.7186099663376808E-002
   9.7800000000000026E-002    -1.5999326482415199E-002
   9.8900000000000016E-002    -1.4887226745486259E-002
  0.10000000000000001         -1.3752277940511703E-002
  0.10110000000000002         -1.2499344535171986E-002
  0.10220000000000001         -1.1207574978470802E-002
  0.10330000000000003         -1.0026758536696434E-002
  0.10440000000000002         -8.9620379731059074E-003
  0.10550000000000001         -7.8849401324987411E-003
  0.10660000000000003         -6.7531615495681763E-003
  0.10770000000000002         -5.6950566358864307E-003
  0.10880000000000001         -4.8235482536256313E-003
  0.10990000000000003         -4.0651597082614899E-003
  0.11100000000000002         -3.2728798687458038E-003
  0.11210000000000001         -2.4530808441340923E-003
  0.11320000000000002         -1.7589920898899436E-003
  0.11430000000000001         -1.2590995756909251E-003
  0.11540000000000003         -8.3280733088031411E-004
  0.11650000000000002         -3.5269209183752537E-004
  0.11760000000000001          1.2733320181723684E-004
  0.11870000000000003          4.6416383702307940E-004
  0.11980000000000002          6.5166491549462080E-004
  0.12090000000000001          8.3371199434623122E-004
  0.12200000000000003          1.0867356322705746E-003
  0.12310000000000001          1.3086674734950066E-003
  0.12420000000000003          1.3841405743733048E-003
  0.12530000000000002          1.3687040191143751E-003
  0.12640000000000001          1.4088195748627186E-003
  0.12750000000000003          1.5226727118715644E-003
  0.12860000000000002          1.5801358968019485E-003
  0.12970000000000001          1.5094946138560772E-003
  0.13080000000000003          1.4105378650128841E-003
  0.13190000000000002          1.4025511918589473E-003
  0.13300000000000001          1.4442072715610266E-003
  0.13410000000000000          1.4030290767550468E-003
  0.13520000000000004          1.2648077681660652E-003
  0.13630000000000003          1.1585599277168512E-003
  0.13740000000000002          1.1592397931963205E-003
  0.13850000000000001          1.1735517764464021E-003
  0.13960000000000000          1.0844204807654023E-003
  0.14070000000000005          9.3161582481116056E-004
  0.14180000000000004          8.5180741734802723E-004
  0.14290000000000003          8.7191397324204445E-004
  0.14400000000000002          8.7221409194171429E-004
  0.14510000000000001          7.7086302917450666E-004
  0.14620000000000000          6.4530648523941636E-004
  0.14730000000000004          6.0889514861628413E-004
  0.14840000000000003          6.3775345915928483E-004
  0.14950000000000002          6.1303924303501844E-004
  0.15060000000000001          5.0714256940409541E-004
  0.15170000000000000          4.2458146344870329E-004
  0.15280000000000005          4.3771133641712368E-004
  0.15390000000000004          4.7399345203302801E-004
  0.15500000000000003          4.2784551624208689E-004
  0.15610000000000002          3.2266444759443402E-004
  0.15720000000000001          2.7463957667350769E-004
  0.15830000000000000          3.1622272217646241E-004
  0.15940000000000004          3.4943816717714071E-004
  0.16050000000000003          2.9603097937069833E-004
  0.16160000000000002          2.1230717538855970E-004
  0.16270000000000001          1.9738788250833750E-004
  0.16380000000000000          2.4203721841331571E-004
  0.16490000000000005          2.4914866662584245E-004
  0.16600000000000004          1.8678244668990374E-004
  0.16710000000000003          1.3469638361129910E-004
  0.16820000000000002          1.5698837523814291E-004
  0.16930000000000001          2.0199702703393996E-004
  0.17040000000000000          1.8322035612072796E-004
  0.17150000000000004          1.1343288497300819E-004
  0.17260000000000003          8.4854815213475376E-005
  0.17370000000000002          1.2822434655390680E-004
  0.17480000000000001          1.6726244939491153E-004
  0.17590000000000000          1.3499957276508212E-004
  0.17700000000000005          7.2574875957798213E-005
  0.17810000000000004          6.3440442318096757E-005
  0.17920000000000003          1.0835387365659699E-004
  0.18030000000000002          1.2989334936719388E-004
  0.18140000000000001          9.2275156930554658E-005
  0.18250000000000000          5.1218135922681540E-005
  0.18360000000000004          6.3705199863761663E-005
  0.18470000000000003          1.0194416245212778E-004
  0.18580000000000002          1.0078449849970639E-004
  0.18690000000000001          5.9135752962902188E-005
  0.18800000000000000          3.8732428947696462E-005
  0.18910000000000005          6.7182765633333474E-005
  0.19020000000000004          9.7553514933679253E-005
  0.19130000000000003          8.3158483903389424E-005
  0.19240000000000002          4.8462574341101572E-005
  0.19350000000000001          4.8824160330696031E-005
  0.19460000000000005          8.5133993707131594E-005
  0.19570000000000004          1.0493064473848790E-004
  0.19680000000000003          8.4448169218376279E-005
  0.19790000000000002          6.3857114582788199E-005
  0.19900000000000001          8.4658968262374401E-005
  0.20010000000000000          1.2771152250934392E-004
  0.20120000000000005          1.4445313718169928E-004
  0.20230000000000004          1.3022600614931434E-004
  0.20340000000000003          1.2898766726721078E-004
  0.20450000000000002          1.6692301142029464E-004
  0.20560000000000000          2.1715334150940180E-004
  0.20670000000000005          2.4404497526120394E-004
  0.20780000000000004          2.5539912167005241E-004
  0.20890000000000003          2.8628946165554225E-004
