 -0.12000000000000000          0.0000000000000000     
 -0.11889999999999999          0.0000000000000000     
 -0.11780000000000000          1.0369226401962806E-005
 -0.11670000000000000         -9.4180286396294832E-006
 -0.11559999999999999         -4.4106240238761529E-005
 -0.11449999999999999          2.5041716071427800E-005
 -0.11340000000000000          1.3560523802880198E-004
 -0.11230000000000000         -5.9878002502955496E-006
 -0.11119999999999999         -3.1868490623310208E-004
 -0.11009999999999999         -1.6310013597831130E-004
 -0.10900000000000000          5.4384581744670868E-004
 -0.10790000000000000          6.4357620431110263E-004
 -0.10679999999999999         -5.6265050079673529E-004
 -0.10569999999999999         -1.4497147640213370E-003
 -0.10460000000000000         -1.1580582395254169E-005
 -0.10349999999999999          2.2621063981205225E-003
 -0.10239999999999999          1.4494912466034293E-003
 -0.10130000000000000         -2.4414877407252789E-003
 -0.10020000000000000         -3.6634735297411680E-003
  -9.9099999999999994E-002     1.1403686366975307E-003
  -9.7999999999999990E-002     5.9094573371112347E-003
  -9.6899999999999986E-002     2.3853997699916363E-003
  -9.5799999999999996E-002    -6.3208569772541523E-003
  -9.4699999999999993E-002    -7.4455719441175461E-003
  -9.3599999999999989E-002     2.8940483462065458E-003
  -9.2499999999999999E-002     1.1079371906816959E-002
  -9.1399999999999995E-002     3.9646951481699944E-003
  -9.0299999999999991E-002    -1.0187047533690929E-002
  -8.9200000000000002E-002    -1.1011828668415546E-002
  -8.8099999999999984E-002     4.1861045174300671E-003
  -8.6999999999999994E-002     1.4264184050261974E-002
  -8.5899999999999990E-002     4.2274123989045620E-003
  -8.4799999999999986E-002    -1.1689485050737858E-002
  -8.3699999999999997E-002    -1.0283012874424458E-002
  -8.2599999999999993E-002     5.6533892638981342E-003
  -8.1499999999999989E-002     1.1434739455580711E-002
  -8.0399999999999999E-002    -1.0989530710503459E-003
  -7.9299999999999995E-002    -1.0591566562652588E-002
  -7.8199999999999992E-002    -7.1707688039168715E-004
  -7.7100000000000002E-002     1.1873112060129642E-002
  -7.5999999999999984E-002     3.5238617565482855E-003
  -7.4899999999999994E-002    -1.5237579122185707E-002
  -7.3799999999999991E-002    -1.2107432819902897E-002
  -7.2699999999999987E-002     1.4273064211010933E-002
  -7.1599999999999997E-002     2.4918217211961746E-002
  -7.0499999999999993E-002    -2.1823178976774216E-003
  -6.9399999999999989E-002    -3.2284110784530640E-002
  -6.8300000000000000E-002    -1.9564498215913773E-002
  -6.7199999999999996E-002     2.2849859669804573E-002
  -6.6099999999999992E-002     3.6045461893081665E-002
  -6.5000000000000002E-002    -3.0553247779607773E-004
  -6.3899999999999985E-002    -3.5869523882865906E-002
  -6.2799999999999995E-002    -2.1453369408845901E-002
  -6.1699999999999991E-002     1.9723044708371162E-002
  -6.0599999999999994E-002     2.8043420985341072E-002
  -5.9499999999999990E-002    -3.5340876784175634E-003
  -5.8399999999999994E-002    -2.2932553663849831E-002
  -5.7299999999999990E-002    -2.7417971286922693E-003
  -5.6199999999999986E-002     1.8080346286296844E-002
  -5.5099999999999996E-002     6.8569672293961048E-004
  -5.3999999999999992E-002    -2.6331147179007530E-002
  -5.2899999999999989E-002    -1.1135281994938850E-002
  -5.1799999999999985E-002     3.1872138381004333E-002
  -5.0699999999999995E-002     3.4353271126747131E-002
  -4.9599999999999991E-002    -1.9480384886264801E-002
  -4.8499999999999988E-002    -5.6318856775760651E-002
  -4.7399999999999998E-002    -1.7168967053294182E-002
  -4.6299999999999994E-002     4.9364563077688217E-002
  -4.5199999999999990E-002     5.0059851258993149E-002
  -4.4099999999999986E-002    -1.7563605681061745E-002
  -4.2999999999999997E-002    -5.9257496148347855E-002
  -4.1899999999999993E-002    -2.0264506340026855E-002
  -4.0799999999999989E-002     3.8134794682264328E-002
  -3.9699999999999985E-002     3.3645454794168472E-002
  -3.8599999999999995E-002    -1.6522563993930817E-002
  -3.7499999999999992E-002    -2.9752442613244057E-002
  -3.6399999999999988E-002     8.9728180319070816E-003
  -3.5299999999999984E-002     2.8712663799524307E-002
  -3.4199999999999994E-002    -8.9019332081079483E-003
  -3.3099999999999991E-002    -4.1408963501453400E-002
  -3.1999999999999987E-002    -5.7476037181913853E-003
  -3.0899999999999997E-002     5.3142387419939041E-002
  -2.9799999999999993E-002     4.2013674974441528E-002
  -2.8699999999999989E-002    -3.4139275550842285E-002
  -2.7599999999999986E-002    -6.7663356661796570E-002
  -2.6499999999999996E-002    -4.6738991513848305E-003
  -2.5399999999999992E-002     6.8277686834335327E-002
  -2.4299999999999988E-002     4.9255907535552979E-002
  -2.3199999999999985E-002    -3.0436133965849876E-002
  -2.2099999999999995E-002    -5.5197898298501968E-002
  -2.0999999999999991E-002     4.2966310866177082E-003
  -1.9899999999999987E-002     5.1517609506845474E-002
  -1.8799999999999983E-002     1.8946606665849686E-002
  -1.7699999999999994E-002    -3.1750824302434921E-002
  -1.6599999999999990E-002    -1.6148934140801430E-002
  -1.5499999999999986E-002     3.8843382149934769E-002
  -1.4399999999999996E-002     3.9841771125793457E-002
  -1.3299999999999992E-002    -2.3251114413142204E-002
  -1.2199999999999989E-002    -5.2687980234622955E-002
  -1.1099999999999985E-002     4.5269196853041649E-003
  -9.9999999999999950E-003     6.8829521536827087E-002
  -8.8999999999999913E-003     4.0972501039505005E-002
  -7.7999999999999875E-003    -4.1220929473638535E-002
  -6.6999999999999837E-003    -5.9467144310474396E-002
  -5.5999999999999939E-003     8.2401549443602562E-003
  -4.4999999999999901E-003     5.8084964752197266E-002
  -3.3999999999999864E-003     2.4491561576724052E-002
  -2.2999999999999826E-003    -4.0698591619729996E-002
  -1.1999999999999927E-003    -3.8164906203746796E-002
  -9.9999999999988987E-005     2.0272169262170792E-002
   1.0000000000000148E-003     3.7289403378963470E-002
   2.1000000000000185E-003    -1.4584581367671490E-002
   3.2000000000000084E-003    -5.2952919155359268E-002
   4.3000000000000121E-003    -1.4157881028950214E-002
   5.4000000000000159E-003     4.3308224529027939E-002
   6.5000000000000058E-003     2.3695100098848343E-002
   7.6000000000000234E-003    -4.6381305903196335E-002
   8.7000000000000133E-003    -6.2263045459985733E-002
   9.8000000000000032E-003    -4.2775293695740402E-004
   1.0900000000000021E-002     4.8675902187824249E-002
   1.2000000000000011E-002     1.2282301671802998E-002
   1.3100000000000001E-002    -5.3417917340993881E-002
   1.4200000000000018E-002    -5.0471093505620956E-002
   1.5300000000000008E-002     1.0689691640436649E-002
   1.6400000000000026E-002     3.6032140254974365E-002
   1.7500000000000016E-002    -7.3791211470961571E-003
   1.8600000000000005E-002    -4.6252045780420303E-002
   1.9700000000000023E-002    -1.8982971087098122E-002
   2.0800000000000013E-002     2.8076432645320892E-002
   2.1900000000000003E-002     2.0678000524640083E-002
   2.3000000000000020E-002    -2.7495518326759338E-002
   2.4100000000000010E-002    -3.6635521799325943E-002
   2.5200000000000000E-002     1.2078324332833290E-002
   2.6300000000000018E-002     4.3764799833297729E-002
   2.7400000000000008E-002     1.1115306057035923E-002
   2.8500000000000025E-002    -3.3616177737712860E-002
   2.9600000000000015E-002    -2.2814083844423294E-002
   3.0700000000000005E-002     2.8230678290128708E-002
   3.1800000000000023E-002     4.5941732823848724E-002
   3.2900000000000013E-002     7.9154390841722488E-003
   3.4000000000000002E-002    -2.7315044775605202E-002
   3.5100000000000020E-002    -7.2435438632965088E-003
   3.6200000000000010E-002     3.1392075121402740E-002
   3.7300000000000028E-002     3.1944796442985535E-002
   3.8400000000000017E-002     4.1955709457397461E-004
   3.9500000000000007E-002    -1.0120149701833725E-002
   4.0600000000000025E-002     1.3120901770889759E-002
   4.1700000000000015E-002     2.8436090797185898E-002
   4.2800000000000005E-002     8.2495808601379395E-003
   4.3900000000000022E-002    -1.5211962163448334E-002
   4.5000000000000012E-002    -5.5367429740726948E-003
   4.6100000000000002E-002     2.3058298975229263E-002
   4.7200000000000020E-002     2.8046382591128349E-002
   4.8300000000000010E-002    -1.3685164740309119E-003
   4.9400000000000027E-002    -1.9106134772300720E-002
   5.0500000000000017E-002    -7.0201400667428970E-003
   5.1600000000000007E-002     1.1622837744653225E-002
   5.2700000000000025E-002     8.9734271168708801E-003
   5.3800000000000014E-002    -2.5996319018304348E-003
   5.4900000000000004E-002    -3.9094886742532253E-003
   5.6000000000000022E-002     1.7373167211189866E-003
   5.7100000000000012E-002    -4.4212020002305508E-003
   5.8200000000000002E-002    -1.7936646938323975E-002
   5.9300000000000019E-002    -1.2816507369279861E-002
   6.0400000000000009E-002     1.0660219006240368E-002
   6.1500000000000027E-002     1.7285075038671494E-002
   6.2600000000000017E-002    -6.2899827025830746E-003
   6.3700000000000007E-002    -2.7798913419246674E-002
   6.4800000000000024E-002    -1.7218574881553650E-002
   6.5900000000000014E-002     6.4558261074125767E-003
   6.7000000000000004E-002     8.7093263864517212E-003
   6.8100000000000022E-002    -6.5742773003876209E-003
   6.9200000000000012E-002    -8.4570990875363350E-003
   7.0300000000000029E-002     4.4960132800042629E-003
   7.1400000000000019E-002     3.3957569394260645E-003
   7.2500000000000009E-002    -1.8799245357513428E-002
   7.3600000000000027E-002    -2.4139370769262314E-002
   7.4700000000000016E-002     7.0721912197768688E-003
   7.5800000000000006E-002     3.6019131541252136E-002
   7.6900000000000024E-002     1.5394591726362705E-002
   7.8000000000000014E-002    -3.1204279512166977E-002
   7.9100000000000004E-002    -3.6906704306602478E-002
   8.0200000000000021E-002     7.6638893224298954E-003
   8.1300000000000011E-002     3.7538517266511917E-002
   8.2400000000000029E-002     1.1178027838468552E-002
   8.3500000000000019E-002    -2.6603208854794502E-002
   8.4600000000000009E-002    -1.5216828323900700E-002
   8.5700000000000026E-002     2.5218460708856583E-002
   8.6800000000000016E-002     2.3477569222450256E-002
   8.7900000000000006E-002    -2.3503152653574944E-002
   8.9000000000000024E-002    -3.8156136870384216E-002
   9.0100000000000013E-002     1.3237543404102325E-002
   9.1200000000000003E-002     5.6655477732419968E-002
   9.2300000000000021E-002     2.0477538928389549E-002
   9.3400000000000011E-002    -4.9418617039918900E-002
   9.4500000000000028E-002    -5.0791610032320023E-002
   9.5600000000000018E-002     2.1764859557151794E-002
   9.6700000000000008E-002     6.1672285199165344E-002
   9.7800000000000026E-002     1.2892066501080990E-002
   9.8900000000000016E-002    -4.7541167587041855E-002
  0.10000000000000001         -2.9152465984225273E-002
  0.10110000000000002          3.3360753208398819E-002
  0.10220000000000001          3.6940559744834900E-002
  0.10330000000000003         -2.4578437209129333E-002
  0.10440000000000002         -4.8498827964067459E-002
  0.10550000000000001          1.1429063975811005E-002
  0.10660000000000003          6.3769631087779999E-002
  0.10770000000000002          1.9081404432654381E-002
  0.10880000000000001         -6.2699958682060242E-002
  0.10990000000000003         -5.6711267679929733E-002
  0.11100000000000002          3.4468989819288254E-002
  0.11210000000000001          7.7372059226036072E-002
  0.11320000000000002          7.5034135952591896E-003
  0.11430000000000001         -7.0881575345993042E-002
  0.11540000000000003         -4.0900200605392456E-002
  0.11650000000000002          4.8539344221353531E-002
  0.11760000000000001          5.8797150850296021E-002
  0.11870000000000003         -2.4721775203943253E-002
  0.11980000000000002         -6.9381706416606903E-002
  0.12090000000000001         -2.8787099290639162E-003
  0.12200000000000003          7.2436183691024780E-002
  0.12310000000000001          3.6329533904790878E-002
  0.12420000000000003         -5.9154994785785675E-002
  0.12530000000000002         -6.7694418132305145E-002
  0.12640000000000001          2.6320116594433784E-002
  0.12750000000000003          8.0904595553874969E-002
  0.12860000000000002          1.3722124509513378E-002
  0.12970000000000001         -7.1335211396217346E-002
  0.13080000000000003         -4.4704340398311615E-002
  0.13190000000000002          4.8685673624277115E-002
  0.13300000000000001          6.1486486345529556E-002
  0.13410000000000000         -2.5353688746690750E-002
  0.13520000000000004         -7.2402454912662506E-002
  0.13630000000000003         -1.2201755307614803E-003
  0.13740000000000002          7.8834228217601776E-002
  0.13850000000000001          3.8483526557683945E-002
  0.13960000000000000         -6.6878430545330048E-002
  0.14070000000000005         -7.7032588422298431E-002
  0.14180000000000004          2.7824969962239265E-002
  0.14290000000000003          9.2880629003047943E-002
  0.14400000000000002          2.1807214245200157E-002
  0.14510000000000001         -7.7777676284313202E-002
  0.14620000000000000         -5.8153040707111359E-002
  0.14730000000000004          4.5258369296789169E-002
  0.14840000000000003          7.3358982801437378E-002
  0.14950000000000002         -1.1693242006003857E-002
  0.15060000000000001         -7.3250576853752136E-002
  0.15170000000000000         -1.6163306310772896E-002
  0.15280000000000005          6.6903054714202881E-002
  0.15390000000000004          4.2817443609237671E-002
  0.15500000000000003         -5.2586231380701065E-002
  0.15610000000000002         -6.9698534905910492E-002
  0.15720000000000001          2.1549990400671959E-002
  0.15830000000000000          8.2881487905979156E-002
  0.15940000000000004          2.0407078787684441E-002
  0.16050000000000003         -7.1141496300697327E-002
  0.16160000000000002         -5.4012637585401535E-002
  0.16270000000000001          4.2282707989215851E-002
  0.16380000000000000          6.9675751030445099E-002
  0.16490000000000005         -1.0391748510301113E-002
  0.16600000000000004         -7.0861704647541046E-002
  0.16710000000000003         -1.8559021875262260E-002
  0.16820000000000002          6.2796220183372498E-002
  0.16930000000000001          4.4871896505355835E-002
  0.17040000000000000         -4.5256704092025757E-002
  0.17150000000000004         -6.7523777484893799E-002
  0.17260000000000003          1.4380876906216145E-002
  0.17370000000000002          7.6668865978717804E-002
  0.17480000000000001          2.4964056909084320E-002
  0.17590000000000000         -6.2515489757061005E-002
  0.17700000000000005         -5.5820282548666000E-002
  0.17810000000000004          3.0885355547070503E-002
  0.17920000000000003          6.5867602825164795E-002
  0.18030000000000002          1.7403580714017153E-003
  0.18140000000000001         -5.8701042085886002E-002
  0.18250000000000000         -2.5312947109341621E-002
  0.18360000000000004          4.4057063758373260E-002
  0.18470000000000003          4.0209252387285233E-002
  0.18580000000000002         -2.7349730953574181E-002
  0.18690000000000001         -4.9805581569671631E-002
  0.18800000000000000          8.1304823979735374E-003
  0.18910000000000005          5.4705142974853516E-002
  0.19020000000000004          1.6066240146756172E-002
  0.19130000000000003         -4.8771556466817856E-002
  0.19240000000000002         -4.0096227079629898E-002
  0.19350000000000001          2.8681861236691475E-002
  0.19460000000000005          5.2981138229370117E-002
  0.19570000000000004         -2.3661251179873943E-003
  0.19680000000000003         -5.1694143563508987E-002
  0.19790000000000002         -2.1457608789205551E-002
  0.19900000000000001          3.9755493402481079E-002
  0.20010000000000000          3.9230879396200180E-002
  0.20120000000000005         -1.9210569560527802E-002
  0.20230000000000004         -4.5790642499923706E-002
  0.20340000000000003         -3.2766533549875021E-003
  0.20450000000000002          4.0441140532493591E-002
  0.20560000000000000          2.0346442237496376E-002
  0.20670000000000005         -2.9058787971735001E-002
  0.20780000000000004         -3.1898722052574158E-002
  0.20890000000000003          1.2635903432965279E-002
