 -0.12000000000000000          0.0000000000000000     
 -0.11889999999999999          0.0000000000000000     
 -0.11780000000000000          5.7030726807738574E-009
 -0.11670000000000000          8.2583655469647965E-009
 -0.11559999999999999         -1.8503472531961052E-008
 -0.11449999999999999         -4.2331798510986118E-008
 -0.11340000000000000          9.5338297256830629E-009
 -0.11230000000000000          7.8906559508595819E-008
 -0.11119999999999999          1.9130149908619387E-008
 -0.11009999999999999         -6.3409835604488762E-008
 -0.10900000000000000          1.2427011597537785E-007
 -0.10790000000000000          3.5611469684226904E-007
 -0.10679999999999999         -1.5840153366752929E-007
 -0.10569999999999999         -1.3460042964652530E-006
 -0.10460000000000000         -1.4365760989676346E-006
 -0.10349999999999999          8.8288072674913565E-007
 -0.10239999999999999          3.5998518796986900E-006
 -0.10130000000000000          2.9310426725714933E-006
 -0.10020000000000000         -1.2493960639403667E-006
  -9.9099999999999994E-002    -4.0318263927474618E-006
  -9.7999999999999990E-002    -1.9913502455892740E-006
  -9.6899999999999986E-002     1.0668976528904750E-006
  -9.5799999999999996E-002    -7.9752464898774633E-007
  -9.4699999999999993E-002    -5.5093532864702865E-006
  -9.3599999999999989E-002    -4.0031914068094920E-006
  -9.2499999999999999E-002     6.0873658185300883E-006
  -9.1399999999999995E-002     1.3960720934846904E-005
  -9.0299999999999991E-002     9.4116785476217046E-006
  -8.9200000000000002E-002    -6.6615768901101546E-007
  -8.8099999999999984E-002     8.1195440770898131E-007
  -8.6999999999999994E-002     1.6846805010573007E-005
  -8.5899999999999990E-002     2.9433842428261414E-005
  -8.4799999999999986E-002     2.3248945581144653E-005
  -8.3699999999999997E-002     7.9552219176548533E-006
  -8.2599999999999993E-002     5.9520525610423647E-006
  -8.1499999999999989E-002     2.1798556190333329E-005
  -8.0399999999999999E-002     3.7580262869596481E-005
  -7.9299999999999995E-002     4.0596627513878047E-005
  -7.8199999999999992E-002     4.1178449464496225E-005
  -7.7100000000000002E-002     5.4146486945683137E-005
  -7.5999999999999984E-002     7.4648625741247088E-005
  -7.4899999999999994E-002     8.8054941443260759E-005
  -7.3799999999999991E-002     9.7880954854190350E-005
  -7.2699999999999987E-002     1.2366540613584220E-004
  -7.1599999999999997E-002     1.6798928845673800E-004
  -7.0499999999999993E-002     2.0639873400796205E-004
  -6.9399999999999989E-002     2.2364486358128488E-004
  -6.8300000000000000E-002     2.4387105077039450E-004
  -6.7199999999999996E-002     3.0237014289014041E-004
  -6.6099999999999992E-002     3.9393841871060431E-004
  -6.5000000000000002E-002     4.7664868179708719E-004
  -6.3899999999999985E-002     5.3292879601940513E-004
  -6.2799999999999995E-002     6.0029223095625639E-004
  -6.1699999999999991E-002     7.2204729076474905E-004
  -6.0599999999999994E-002     8.8647718075662851E-004
  -5.9499999999999990E-002     1.0447071399539709E-003
  -5.8399999999999994E-002     1.1833306634798646E-003
  -5.7299999999999990E-002     1.3455119915306568E-003
  -5.6199999999999986E-002     1.5700323274359107E-003
  -5.5099999999999996E-002     1.8399655818939209E-003
  -5.3999999999999992E-002     2.1162137854844332E-003
  -5.2899999999999989E-002     2.4010436609387398E-003
  -5.1799999999999985E-002     2.7331889141350985E-003
  -5.0699999999999995E-002     3.1259921379387379E-003
  -4.9599999999999991E-002     3.5501283127814531E-003
  -4.8499999999999988E-002     3.9894580841064453E-003
  -4.7399999999999998E-002     4.4772480614483356E-003
  -4.6299999999999994E-002     5.0469394773244858E-003
  -4.5199999999999990E-002     5.6714415550231934E-003
  -4.4099999999999986E-002     6.2948334962129593E-003
  -4.2999999999999997E-002     6.9195544347167015E-003
  -4.1899999999999993E-002     7.6144565828144550E-003
  -4.0799999999999989E-002     8.4184417501091957E-003
  -3.9699999999999985E-002     9.2757232487201691E-003
  -3.8599999999999995E-002     1.0103343985974789E-002
  -3.7499999999999992E-002     1.0899175889790058E-002
  -3.6399999999999988E-002     1.1734827421605587E-002
  -3.5299999999999984E-002     1.2644041329622269E-002
  -3.4199999999999994E-002     1.3568626716732979E-002
  -3.3099999999999991E-002     1.4434857293963432E-002
  -3.1999999999999987E-002     1.5240038745105267E-002
  -3.0899999999999997E-002     1.6021979972720146E-002
  -2.9799999999999993E-002     1.6768980771303177E-002
  -2.8699999999999989E-002     1.7415884882211685E-002
  -2.7599999999999986E-002     1.7928658053278923E-002
  -2.6499999999999996E-002     1.8335040658712387E-002
  -2.5399999999999992E-002     1.8645603209733963E-002
  -2.4299999999999988E-002     1.8789758905768394E-002
  -2.3199999999999985E-002     1.8677406013011932E-002
  -2.2099999999999995E-002     1.8301704898476601E-002
  -2.0999999999999991E-002     1.7723878845572472E-002
  -1.9899999999999987E-002     1.6954300925135612E-002
  -1.8799999999999983E-002     1.5903100371360779E-002
  -1.7699999999999994E-002     1.4478726312518120E-002
  -1.6599999999999990E-002     1.2692095711827278E-002
  -1.5499999999999986E-002     1.0612161830067635E-002
  -1.4399999999999996E-002     8.2441382110118866E-003
  -1.3299999999999992E-002     5.5155605077743530E-003
  -1.2199999999999989E-002     2.3867958225309849E-003
  -1.1099999999999985E-002    -1.0863537900149822E-003
  -9.9999999999999950E-003    -4.8334398306906223E-003
  -8.8999999999999913E-003    -8.8635673746466637E-003
  -7.7999999999999875E-003    -1.3223538175225258E-002
  -6.6999999999999837E-003    -1.7883954569697380E-002
  -5.5999999999999939E-003    -2.2730166092514992E-002
  -4.4999999999999901E-003    -2.7675101533532143E-002
  -3.3999999999999864E-003    -3.2719850540161133E-002
  -2.2999999999999826E-003    -3.7871878594160080E-002
  -1.1999999999999927E-003    -4.3045546859502792E-002
  -9.9999999999988987E-005    -4.8099867999553680E-002
   1.0000000000000148E-003    -5.2951138466596603E-002
   2.1000000000000185E-003    -5.7583078742027283E-002
   3.2000000000000084E-003    -6.1950162053108215E-002
   4.3000000000000121E-003    -6.5927743911743164E-002
   5.4000000000000159E-003    -6.9386385381221771E-002
   6.5000000000000058E-003    -7.2277128696441650E-002
   7.6000000000000234E-003    -7.4596308171749115E-002
   8.7000000000000133E-003    -7.6283805072307587E-002
   9.8000000000000032E-003    -7.7213779091835022E-002
   1.0900000000000021E-002    -7.7297553420066833E-002
   1.2000000000000011E-002    -7.6542168855667114E-002
   1.3100000000000001E-002    -7.4978791177272797E-002
   1.4200000000000018E-002    -7.2576537728309631E-002
   1.5300000000000008E-002    -6.9272421300411224E-002
   1.6400000000000026E-002    -6.5065354108810425E-002
   1.7500000000000016E-002    -6.0028828680515289E-002
   1.8600000000000005E-002    -5.4228767752647400E-002
   1.9700000000000023E-002    -4.7678977251052856E-002
   2.0800000000000013E-002    -4.0402084589004517E-002
   2.1900000000000003E-002    -3.2497588545084000E-002
   2.3000000000000020E-002    -2.4110112339258194E-002
   2.4100000000000010E-002    -1.5343984588980675E-002
   2.5200000000000000E-002    -6.2530878931283951E-003
   2.6300000000000018E-002     3.0821966938674450E-003
   2.7400000000000008E-002     1.2512141838669777E-002
   2.8500000000000025E-002     2.1868221461772919E-002
   2.9600000000000015E-002     3.1029943376779556E-002
   3.0700000000000005E-002     3.9915934205055237E-002
   3.1800000000000023E-002     4.8422385007143021E-002
   3.2900000000000013E-002     5.6411858648061752E-002
   3.4000000000000002E-002     6.3764780759811401E-002
   3.5100000000000020E-002     7.0409305393695831E-002
   3.6200000000000010E-002     7.6285459101200104E-002
   3.7300000000000028E-002     8.1303603947162628E-002
   3.8400000000000017E-002     8.5372060537338257E-002
   3.9500000000000007E-002     8.8455662131309509E-002
   4.0600000000000025E-002     9.0572446584701538E-002
   4.1700000000000015E-002     9.1731593012809753E-002
   4.2800000000000005E-002     9.1907210648059845E-002
   4.3900000000000022E-002     9.1084055602550507E-002
   4.5000000000000012E-002     8.9303307235240936E-002
   4.6100000000000002E-002     8.6639076471328735E-002
   4.7200000000000020E-002     8.3159036934375763E-002
   4.8300000000000010E-002     7.8926086425781250E-002
   4.9400000000000027E-002     7.4016593396663666E-002
   5.0500000000000017E-002     6.8522304296493530E-002
   5.1600000000000007E-002     6.2531329691410065E-002
   5.2700000000000025E-002     5.6127466261386871E-002
   5.3800000000000014E-002     4.9407862126827240E-002
   5.4900000000000004E-002     4.2490247637033463E-002
   5.6000000000000022E-002     3.5489093512296677E-002
   5.7100000000000012E-002     2.8489619493484497E-002
   5.8200000000000002E-002     2.1561549976468086E-002
   5.9300000000000019E-002     1.4785316772758961E-002
   6.0400000000000009E-002     8.2487575709819794E-003
   6.1500000000000027E-002     2.0247711800038815E-003
   6.2600000000000017E-002    -3.8327181246131659E-003
   6.3700000000000007E-002    -9.2704091221094131E-003
   6.4800000000000024E-002    -1.4232410117983818E-002
   6.5900000000000014E-002    -1.8686136230826378E-002
   6.7000000000000004E-002    -2.2631777450442314E-002
   6.8100000000000022E-002    -2.6073474436998367E-002
   6.9200000000000012E-002    -2.8991747647523880E-002
   7.0300000000000029E-002    -3.1361501663923264E-002
   7.1400000000000019E-002    -3.3194210380315781E-002
   7.2500000000000009E-002    -3.4536618739366531E-002
   7.3600000000000027E-002    -3.5424742847681046E-002
   7.4700000000000016E-002    -3.5865686833858490E-002
   7.5800000000000006E-002    -3.5876862704753876E-002
   7.6900000000000024E-002    -3.5516768693923950E-002
   7.8000000000000014E-002    -3.4848690032958984E-002
   7.9100000000000004E-002    -3.3891860395669937E-002
   8.0200000000000021E-002    -3.2644789665937424E-002
   8.1300000000000011E-002    -3.1152181327342987E-002
   8.2400000000000029E-002    -2.9507979750633240E-002
   8.3500000000000019E-002    -2.7778562158346176E-002
   8.4600000000000009E-002    -2.5957373902201653E-002
   8.5700000000000026E-002    -2.4024052545428276E-002
   8.6800000000000016E-002    -2.2023329511284828E-002
   8.7900000000000006E-002    -2.0042579621076584E-002
   8.9000000000000024E-002    -1.8121263012290001E-002
   9.0100000000000013E-002    -1.6232198104262352E-002
   9.1200000000000003E-002    -1.4363172464072704E-002
   9.2300000000000021E-002    -1.2568962760269642E-002
   9.3400000000000011E-002    -1.0908380150794983E-002
   9.4500000000000028E-002    -9.3645052984356880E-003
   9.5600000000000018E-002    -7.8805517405271530E-003
   9.6700000000000008E-002    -6.4627067185938358E-003
   9.7800000000000026E-002    -5.1878085359930992E-003
   9.8900000000000016E-002    -4.0943701751530170E-003
  0.10000000000000001         -3.1206049025058746E-003
  0.10110000000000002         -2.1927503403276205E-003
  0.10220000000000001         -1.3309927890077233E-003
  0.10330000000000003         -6.1209016712382436E-004
  0.10440000000000002         -4.5689423131989315E-005
  0.10550000000000001          4.4676789548248053E-004
  0.10660000000000003          9.1592170065268874E-004
  0.10770000000000002          1.3133245520293713E-003
  0.10880000000000001          1.5793971251696348E-003
  0.10990000000000003          1.7547800671309233E-003
  0.11100000000000002          1.9340962171554565E-003
  0.11210000000000001          2.1260944195091724E-003
  0.11320000000000002          2.2406016942113638E-003
  0.11430000000000001          2.2310561034828424E-003
  0.11540000000000003          2.1781204268336296E-003
  0.11650000000000002          2.1821758709847927E-003
  0.11760000000000001          2.2219140082597733E-003
  0.11870000000000003          2.1939380094408989E-003
  0.11980000000000002          2.0736476872116327E-003
  0.12090000000000001          1.9528500270098448E-003
  0.12200000000000003          1.9002512563019991E-003
  0.12310000000000001          1.8617965979501605E-003
  0.12420000000000003          1.7538429237902164E-003
  0.12530000000000002          1.6013896092772484E-003
  0.12640000000000001          1.5021193539723754E-003
  0.12750000000000003          1.4715178404003382E-003
  0.12860000000000002          1.4141557039692998E-003
  0.12970000000000001          1.2722957180812955E-003
  0.13080000000000003          1.1223335750401020E-003
  0.13190000000000002          1.0637973900884390E-003
  0.13300000000000001          1.0667408350855112E-003
  0.13410000000000000          1.0137046920135617E-003
  0.13520000000000004          8.7678426643833518E-004
  0.13630000000000003          7.5984309660270810E-004
  0.13740000000000002          7.4028392555192113E-004
  0.13850000000000001          7.5261201709508896E-004
  0.13960000000000000          6.9102877750992775E-004
  0.14070000000000005          5.7225755881518126E-004
  0.14180000000000004          5.0826609367504716E-004
  0.14290000000000003          5.3147197468206286E-004
  0.14400000000000002          5.4350926075130701E-004
  0.14510000000000001          4.6695346827618778E-004
  0.14620000000000000          3.6505996831692755E-004
  0.14730000000000004          3.4428457729518414E-004
  0.14840000000000003          3.9032843778841197E-004
  0.14950000000000002          3.9079581620171666E-004
  0.15060000000000001          3.0835086363367736E-004
  0.15170000000000000          2.3665791377425194E-004
  0.15280000000000005          2.5398115394636989E-004
  0.15390000000000004          3.0208655516617000E-004
  0.15500000000000003          2.7758505893871188E-004
  0.15610000000000002          1.9308317860122770E-004
  0.15720000000000001          1.5768336015753448E-004
  0.15830000000000000          2.0698373555205762E-004
  0.15940000000000004          2.4644401855766773E-004
  0.16050000000000003          1.9628182053565979E-004
  0.16160000000000002          1.1455117783043534E-004
  0.16270000000000001          1.0892593127209693E-004
  0.16380000000000000          1.7273172852583230E-004
  0.16490000000000005          1.9630724273156375E-004
  0.16600000000000004          1.3442938507068902E-004
  0.16710000000000003          7.2486138378735632E-005
  0.16820000000000002          9.3080772785469890E-005
  0.16930000000000001          1.5084241749718785E-004
  0.17040000000000000          1.4600681606680155E-004
  0.17150000000000004          7.9149038356263191E-005
  0.17260000000000003          4.7756853746250272E-005
  0.17370000000000002          9.3384551291819662E-005
  0.17480000000000001          1.3766663323622197E-004
  0.17590000000000000          1.0460336488904431E-004
  0.17700000000000005          3.8263646274572238E-005
  0.17810000000000004          3.4577871701912954E-005
  0.17920000000000003          9.4173054094426334E-005
  0.18030000000000002          1.2255701585672796E-004
  0.18140000000000001          7.4841576861217618E-005
  0.18250000000000000          2.1898078557569534E-005
  0.18360000000000004          3.9519942220067605E-005
  0.18470000000000003          9.4108218036126345E-005
  0.18580000000000002          9.8364907898940146E-005
  0.18690000000000001          4.6390858187805861E-005
  0.18800000000000000          1.9603585315053351E-005
  0.18910000000000005          5.8797206293093041E-005
  0.19020000000000004          1.0267785546602681E-004
  0.19130000000000003          8.5298481280915439E-005
  0.19240000000000002          3.8488400605274364E-005
  0.19350000000000001          4.1517771023791283E-005
  0.19460000000000005          9.8285985586699098E-005
  0.19570000000000004          1.3196490181144327E-004
  0.19680000000000003          1.0338528954889625E-004
  0.19790000000000002          7.0242429501377046E-005
  0.19900000000000001          9.8621239885687828E-005
  0.20010000000000000          1.6452759155072272E-004
  0.20120000000000005          1.9380138837732375E-004
  0.20230000000000004          1.7510743055026978E-004
  0.20340000000000003          1.7371535068377852E-004
  0.20450000000000002          2.3062333639245480E-004
  0.20560000000000000          3.0433875508606434E-004
  0.20670000000000005          3.3984211040660739E-004
  0.20780000000000004          3.5310696694068611E-004
  0.20890000000000003          4.0245123091153800E-004
