 -0.12000000000000000          0.0000000000000000     
 -0.11889999999999999          0.0000000000000000     
 -0.11780000000000000          0.0000000000000000     
 -0.11670000000000000          0.0000000000000000     
 -0.11559999999999999          1.1805184607638353E-009
 -0.11449999999999999         -4.4208841032400414E-009
 -0.11340000000000000         -5.7617208781834961E-009
 -0.11230000000000000          3.7972512245687540E-008
 -0.11119999999999999          3.2855353992999881E-008
 -0.11009999999999999         -1.9508317450345203E-007
 -0.10900000000000000         -2.3757250744438352E-007
 -0.10790000000000000          6.7356694444242748E-007
 -0.10679999999999999          1.3699078635909245E-006
 -0.10569999999999999         -1.2544836636152468E-006
 -0.10460000000000000         -5.4777997320343275E-006
 -0.10349999999999999         -1.2872068282376858E-006
 -0.10239999999999999          1.4051095604372676E-005
 -0.10130000000000000          1.7457272406318225E-005
 -0.10020000000000000         -1.6548990970477462E-005
  -9.9099999999999994E-002    -5.7853361795423552E-005
  -9.7999999999999990E-002    -2.5858875233097933E-005
  -9.6899999999999986E-002     9.0799301688093692E-005
  -9.5799999999999996E-002     1.4862170792184770E-004
  -9.4699999999999993E-002    -3.2512723464606097E-006
  -9.3599999999999989E-002    -2.5621880195103586E-004
  -9.2499999999999999E-002    -2.6901022647507489E-004
  -9.1399999999999995E-002     9.3885515525471419E-005
  -9.0299999999999991E-002     4.5836600475013256E-004
  -8.9200000000000002E-002     3.3196870936080813E-004
  -8.8099999999999984E-002    -1.9356061238795519E-004
  -8.6999999999999994E-002    -4.5523003791458905E-004
  -8.5899999999999990E-002    -1.1572711082408205E-004
  -8.4799999999999986E-002     2.7145491912961006E-004
  -8.3699999999999997E-002    -4.5390083869278897E-006
  -8.2599999999999993E-002    -6.9212453672662377E-004
  -8.1499999999999989E-002    -7.6796242501586676E-004
  -8.0399999999999999E-002     1.7473650223109871E-004
  -7.9299999999999995E-002     1.3499360065907240E-003
  -7.8199999999999992E-002     1.9167070277035236E-003
  -7.7100000000000002E-002     2.0494915079325438E-003
  -7.5999999999999984E-002     2.2037448361515999E-003
  -7.4899999999999994E-002     1.8962714821100235E-003
  -7.3799999999999991E-002     4.3486332288011909E-004
  -7.2699999999999987E-002    -1.2273699976503849E-003
  -7.1599999999999997E-002    -9.6516398480162024E-004
  -7.0499999999999993E-002     1.4228164218366146E-003
  -6.9399999999999989E-002     3.1058113090693951E-003
  -6.8300000000000000E-002     1.9094479503110051E-003
  -6.7199999999999996E-002     1.5257755876518786E-004
  -6.6099999999999992E-002     2.2200183011591434E-003
  -6.5000000000000002E-002     8.0434549599885941E-003
  -6.3899999999999985E-002     1.1898367665708065E-002
  -6.2799999999999995E-002     9.6031147986650467E-003
  -6.1699999999999991E-002     4.7227847389876842E-003
  -6.0599999999999994E-002     4.4604362919926643E-003
  -5.9499999999999990E-002     1.0296694934368134E-002
  -5.8399999999999994E-002     1.6539992764592171E-002
  -5.7299999999999990E-002     1.8767777830362320E-002
  -5.6199999999999986E-002     1.9524997100234032E-002
  -5.5099999999999996E-002     2.3102344945073128E-002
  -5.3999999999999992E-002     2.8401283547282219E-002
  -5.2899999999999989E-002     3.1773719936609268E-002
  -5.1799999999999985E-002     3.4913536161184311E-002
  -5.0699999999999995E-002     4.3334148824214935E-002
  -4.9599999999999991E-002     5.6082390248775482E-002
  -4.8499999999999988E-002     6.4128473401069641E-002
  -4.7399999999999998E-002     6.3666224479675293E-002
  -4.6299999999999994E-002     6.5331384539604187E-002
  -4.5199999999999990E-002     8.1902869045734406E-002
  -4.4099999999999986E-002    0.10892902314662933     
  -4.2999999999999997E-002    0.12780855596065521     
  -4.1899999999999993E-002    0.13055735826492310     
  -4.0799999999999989E-002    0.13206101953983307     
  -3.9699999999999985E-002    0.15035526454448700     
  -3.8599999999999995E-002    0.18188677728176117     
  -3.7499999999999992E-002    0.20760238170623779     
  -3.6399999999999988E-002    0.22085872292518616     
  -3.5299999999999984E-002    0.23525996506214142     
  -3.4199999999999994E-002    0.26149526238441467     
  -3.3099999999999991E-002    0.29013898968696594     
  -3.1999999999999987E-002    0.30832049250602722     
  -3.0899999999999997E-002    0.32302129268646240     
  -2.9799999999999993E-002    0.35122314095497131     
  -2.8699999999999989E-002    0.38937130570411682     
  -2.7599999999999986E-002    0.41260784864425659     
  -2.6499999999999996E-002    0.41120502352714539     
  -2.5399999999999992E-002    0.40924409031867981     
  -2.4299999999999988E-002    0.43212205171585083     
  -2.3199999999999985E-002    0.46686375141143799     
  -2.2099999999999995E-002    0.47658020257949829     
  -2.0999999999999991E-002    0.45262867212295532     
  -1.9899999999999987E-002    0.42636716365814209     
  -1.8799999999999983E-002    0.42109471559524536     
  -1.7699999999999994E-002    0.41623210906982422     
  -1.6599999999999990E-002    0.37824404239654541     
  -1.5499999999999986E-002    0.31300014257431030     
  -1.4399999999999996E-002    0.25599738955497742     
  -1.3299999999999992E-002    0.21316596865653992     
  -1.2199999999999989E-002    0.14706778526306152     
  -1.1099999999999985E-002     3.1484484672546387E-002
  -9.9999999999999950E-003   -0.10151044279336929     
  -8.8999999999999913E-003   -0.20638325810432434     
  -7.7999999999999875E-003   -0.29456701874732971     
  -6.6999999999999837E-003   -0.42141994833946228     
  -5.5999999999999939E-003   -0.60701006650924683     
  -4.4999999999999901E-003   -0.79995620250701904     
  -3.3999999999999864E-003   -0.95497566461563110     
  -2.2999999999999826E-003    -1.0945230722427368     
  -1.1999999999999927E-003    -1.2705922126770020     
  -9.9999999999988987E-005    -1.4835609197616577     
   1.0000000000000148E-003    -1.6765445470809937     
   2.1000000000000185E-003    -1.8242529630661011     
   3.2000000000000084E-003    -1.9740734100341797     
   4.3000000000000121E-003    -2.1624126434326172     
   5.4000000000000159E-003    -2.3475074768066406     
   6.5000000000000058E-003    -2.4598710536956787     
   7.6000000000000234E-003    -2.5095877647399902     
   8.7000000000000133E-003    -2.5739977359771729     
   9.8000000000000032E-003    -2.6802597045898438     
   1.0900000000000021E-002    -2.7538425922393799     
   1.2000000000000011E-002    -2.7174916267395020     
   1.3100000000000001E-002    -2.6017050743103027     
   1.4200000000000018E-002    -2.5000803470611572     
   1.5300000000000008E-002    -2.4218103885650635     
   1.6400000000000026E-002    -2.2830901145935059     
   1.7500000000000016E-002    -2.0374157428741455     
   1.8600000000000005E-002    -1.7435550689697266     
   1.9700000000000023E-002    -1.4706841707229614     
   2.0800000000000013E-002    -1.1883980035781860     
   2.1900000000000003E-002   -0.81617140769958496     
   2.3000000000000020E-002   -0.35955420136451721     
   2.4100000000000010E-002     8.1929370760917664E-002
   2.5200000000000000E-002    0.45928561687469482     
   2.6300000000000018E-002    0.85419577360153198     
   2.7400000000000008E-002     1.3532730340957642     
   2.8500000000000025E-002     1.9033985137939453     
   2.9600000000000015E-002     2.3736779689788818     
   3.0700000000000005E-002     2.7382507324218750     
   3.1800000000000023E-002     3.1069989204406738     
   3.2900000000000013E-002     3.5504488945007324     
   3.4000000000000002E-002     3.9813380241394043     
   3.5100000000000020E-002     4.2811264991760254     
   3.6200000000000010E-002     4.4734454154968262     
   3.7300000000000028E-002     4.6768035888671875     
   3.8400000000000017E-002     4.9097070693969727     
   3.9500000000000007E-002     5.0483307838439941     
   4.0600000000000025E-002     5.0150117874145508     
   4.1700000000000015E-002     4.9031281471252441     
   4.2800000000000005E-002     4.8359274864196777     
   4.3900000000000022E-002     4.7720789909362793     
   4.5000000000000012E-002     4.5665206909179688     
   4.6100000000000002E-002     4.1886167526245117     
   4.7200000000000020E-002     3.7809579372406006     
   4.8300000000000010E-002     3.4510538578033447     
   4.9400000000000027E-002     3.1110594272613525     
   5.0500000000000017E-002     2.6246147155761719     
   5.1600000000000007E-002     2.0279860496520996     
   5.2700000000000025E-002     1.4846097230911255     
   5.3800000000000014E-002     1.0426020622253418     
   5.4900000000000004E-002    0.57124364376068115     
   5.6000000000000022E-002    -3.1664069741964340E-002
   5.7100000000000012E-002   -0.65552192926406860     
   5.8200000000000002E-002    -1.1329025030136108     
   5.9300000000000019E-002    -1.4840053319931030     
   6.0400000000000009E-002    -1.8901073932647705     
   6.1500000000000027E-002    -2.4002504348754883     
   6.2600000000000017E-002    -2.8492438793182373     
   6.3700000000000007E-002    -3.1025345325469971     
   6.4800000000000024E-002    -3.2445209026336670     
   6.5900000000000014E-002    -3.4550957679748535     
   6.7000000000000004E-002    -3.7217767238616943     
   6.8100000000000022E-002    -3.8638999462127686     
   6.9200000000000012E-002    -3.8149380683898926     
   7.0300000000000029E-002    -3.7279496192932129     
   7.1400000000000019E-002    -3.7395749092102051     
   7.2500000000000009E-002    -3.7573909759521484     
   7.3600000000000027E-002    -3.6043806076049805     
   7.4700000000000016E-002    -3.2961330413818359     
   7.5800000000000006E-002    -3.0347263813018799     
   7.6900000000000024E-002    -2.9086523056030273     
   7.8000000000000014E-002    -2.7600970268249512     
   7.9100000000000004E-002    -2.4305334091186523     
   8.0200000000000021E-002    -2.0106041431427002     
   8.1300000000000011E-002    -1.7082651853561401     
   8.2400000000000029E-002    -1.5402649641036987     
   8.3500000000000019E-002    -1.3144896030426025     
   8.4600000000000009E-002   -0.93785017728805542     
   8.5700000000000026E-002   -0.56510466337203979     
   8.6800000000000016E-002   -0.36173996329307556     
   8.7900000000000006E-002   -0.24729275703430176     
   8.9000000000000024E-002    -2.2440727800130844E-002
   9.0100000000000013E-002    0.31778931617736816     
   9.1200000000000003E-002    0.56310480833053589     
   9.2300000000000021E-002    0.60806232690811157     
   9.3400000000000011E-002    0.61748033761978149     
   9.4500000000000028E-002    0.77876543998718262     
   9.5600000000000018E-002     1.0202201604843140     
   9.6700000000000008E-002     1.1188611984252930     
   9.7800000000000026E-002     1.0389302968978882     
   9.8900000000000016E-002    0.98306918144226074     
  0.10000000000000001          1.0804730653762817     
  0.10110000000000002          1.1975882053375244     
  0.10220000000000001          1.1510854959487915     
  0.10330000000000003         0.99585616588592529     
  0.10440000000000002         0.93999677896499634     
  0.10550000000000001          1.0183591842651367     
  0.10660000000000003          1.0394128561019897     
  0.10770000000000002         0.88441526889801025     
  0.10880000000000001         0.70014542341232300     
  0.10990000000000003         0.67874211072921753     
  0.11100000000000002         0.76176983118057251     
  0.11210000000000001         0.72877514362335205     
  0.11320000000000002         0.53320032358169556     
  0.11430000000000001         0.37569332122802734     
  0.11540000000000003         0.39938300848007202     
  0.11650000000000002         0.47355288267135620     
  0.11760000000000001         0.39921742677688599     
  0.11870000000000003         0.21320711076259613     
  0.11980000000000002         0.12770771980285645     
  0.12090000000000001         0.20328387618064880     
  0.12200000000000003         0.25675141811370850     
  0.12310000000000001         0.14675155282020569     
  0.12420000000000003         -9.5335245132446289E-003
  0.12530000000000002         -1.8534658476710320E-002
  0.12640000000000001          9.1464333236217499E-002
  0.12750000000000003         0.11553894728422165     
  0.12860000000000002         -1.1054778471589088E-002
  0.12970000000000001        -0.11738474667072296     
  0.13080000000000003         -6.2531150877475739E-002
  0.13190000000000002          4.8005521297454834E-002
  0.13300000000000001          2.7727644890546799E-002
  0.13410000000000000        -0.10259960591793060     
  0.13520000000000004        -0.14871133863925934     
  0.13630000000000003         -4.4461823999881744E-002
  0.13740000000000002          4.5698761940002441E-002
  0.13850000000000001         -1.9680207595229149E-002
  0.13960000000000000        -0.14238063991069794     
  0.14070000000000005        -0.13544681668281555     
  0.14180000000000004         -9.6565894782543182E-003
  0.14290000000000003          4.6214491128921509E-002
  0.14400000000000002         -4.5669745653867722E-002
  0.14510000000000001        -0.13860581815242767     
  0.14620000000000000         -8.9679099619388580E-002
  0.14730000000000004          2.3477716371417046E-002
  0.14840000000000003          2.8992332518100739E-002
  0.14950000000000002         -7.3928005993366241E-002
  0.15060000000000001        -0.11861173808574677     
  0.15170000000000000         -3.1497474759817123E-002
  0.15280000000000005          5.5370423942804337E-002
  0.15390000000000004          1.0595093481242657E-002
  0.15500000000000003         -9.4501756131649017E-002
  0.15610000000000002         -9.6739195287227631E-002
  0.15720000000000001          9.4217211008071899E-003
  0.15830000000000000          6.6184736788272858E-002
  0.15940000000000004         -5.7928930036723614E-003
  0.16050000000000003         -9.1309592127799988E-002
  0.16160000000000002         -6.0914371162652969E-002
  0.16270000000000001          3.3788222819566727E-002
  0.16380000000000000          4.7392539680004120E-002
  0.16490000000000005         -3.4461572766304016E-002
  0.16600000000000004         -7.8931093215942383E-002
  0.16710000000000003         -1.5770381316542625E-002
  0.16820000000000002          5.6302666664123535E-002
  0.16930000000000001          2.5532046332955360E-002
  0.17040000000000000         -5.9670608490705490E-002
  0.17150000000000004         -6.7214287817478180E-002
  0.17260000000000003          1.5255209058523178E-002
  0.17370000000000002          6.3598565757274628E-002
  0.17480000000000001          7.3798545636236668E-003
  0.17590000000000000         -6.6039405763149261E-002
  0.17700000000000005         -4.7460421919822693E-002
  0.17810000000000004          3.0851691961288452E-002
  0.17920000000000003          5.0808623433113098E-002
  0.18030000000000002         -1.1646563187241554E-002
  0.18140000000000001         -5.6751161813735962E-002
  0.18250000000000000         -1.7898259684443474E-002
  0.18360000000000004          4.0602378547191620E-002
  0.18470000000000003          2.8923669829964638E-002
  0.18580000000000002         -3.1031534075737000E-002
  0.18690000000000001         -4.4693738222122192E-002
  0.18800000000000000          7.5958790257573128E-003
  0.18910000000000005          4.4131524860858917E-002
  0.19020000000000004          1.1088220402598381E-002
  0.19130000000000003         -3.7260673940181732E-002
  0.19240000000000002         -2.5823026895523071E-002
  0.19350000000000001          2.6480479165911674E-002
  0.19460000000000005          3.9537895470857620E-002
  0.19570000000000004         -3.5439776256680489E-003
  0.19680000000000003         -3.3697512000799179E-002
  0.19790000000000002         -3.7411695811897516E-003
  0.19900000000000001          4.1562836617231369E-002
  0.20010000000000000          3.6714538931846619E-002
  0.20120000000000005         -6.2754563987255096E-003
  0.20230000000000004         -1.9591683521866798E-002
  0.20340000000000003          1.7340557649731636E-002
  0.20450000000000002          5.1633231341838837E-002
  0.20560000000000000          3.9694629609584808E-002
  0.20670000000000005          9.1997263953089714E-003
  0.20780000000000004          1.1445064097642899E-002
  0.20890000000000003          4.4719420373439789E-002
