 -0.12000000000000000          0.0000000000000000     
 -0.11889999999999999          0.0000000000000000     
 -0.11780000000000000          0.0000000000000000     
 -0.11670000000000000          0.0000000000000000     
 -0.11559999999999999          0.0000000000000000     
 -0.11449999999999999          0.0000000000000000     
 -0.11340000000000000          0.0000000000000000     
 -0.11230000000000000          0.0000000000000000     
 -0.11119999999999999          1.0909201634512065E-021
 -0.11009999999999999         -6.0602680759326495E-021
 -0.10900000000000000         -1.1159464563384486E-020
 -0.10790000000000000          1.0746978026237848E-019
 -0.10679999999999999          9.0619652357927280E-020
 -0.10569999999999999         -1.0737565357101848E-018
 -0.10460000000000000         -1.0073545086399139E-018
 -0.10349999999999999          7.5504409384768700E-018
 -0.10239999999999999          1.0838527713947620E-017
 -0.10130000000000000         -3.7926002783707254E-017
 -0.10020000000000000         -8.7998960956853608E-017
  -9.9099999999999994E-002     1.1782556521574379E-016
  -9.7999999999999990E-002     5.1750356709184256E-016
  -9.6899999999999986E-002    -2.2669584481813943E-017
  -9.5799999999999996E-002    -2.1418426622945349E-015
  -9.4699999999999993E-002    -2.1315732348420238E-015
  -9.3599999999999989E-002     5.5063163975784500E-015
  -9.2499999999999999E-002     1.3384945922619278E-014
  -9.1399999999999995E-002    -2.8757967110903861E-015
  -9.0299999999999991E-002    -4.4681841776875175E-014
  -8.9200000000000002E-002    -4.3777556178650062E-014
  -8.8099999999999984E-002     7.2651371138716947E-014
  -8.6999999999999994E-002     2.0346095956028792E-013
  -8.5899999999999990E-002     6.5571795226666146E-014
  -8.4799999999999986E-002    -4.0398291808151077E-013
  -8.3699999999999997E-002    -6.5428028663341853E-013
  -8.2599999999999993E-002     2.6349802466915997E-014
  -8.1499999999999989E-002     1.3419978019471590E-012
  -8.0399999999999999E-002     1.7380983804993200E-012
  -7.9299999999999995E-002     6.0015719878601242E-014
  -7.8199999999999992E-002    -2.7681956119712803E-012
  -7.7100000000000002E-002    -4.5717370861231288E-012
  -7.5999999999999984E-002    -3.7991948996507485E-012
  -7.4899999999999994E-002     1.1539248289532678E-012
  -7.3799999999999991E-002     1.2516894638825438E-011
  -7.2699999999999987E-002     2.5908825432297000E-011
  -7.1599999999999997E-002     2.0619807944433077E-011
  -7.0499999999999993E-002    -2.7524415038837624E-011
  -6.9399999999999989E-002    -1.0166822939083886E-010
  -6.8300000000000000E-002    -1.1745068806412462E-010
  -6.7199999999999996E-002     1.3813838961596048E-011
  -6.6099999999999992E-002     2.5396412750566810E-010
  -6.5000000000000002E-002     3.9164349541209731E-010
  -6.3899999999999985E-002     2.0206862572091921E-010
  -6.2799999999999995E-002    -3.0168578746270214E-010
  -6.1699999999999991E-002    -8.0591477935598732E-010
  -6.0599999999999994E-002    -9.2236224213948503E-010
  -5.9499999999999990E-002    -4.6000309117388838E-010
  -5.8399999999999994E-002     5.1908732867644858E-010
  -5.7299999999999990E-002     1.7532153506749637E-009
  -5.6199999999999986E-002     2.6847164491528019E-009
  -5.5099999999999996E-002     2.3967927642587483E-009
  -5.3999999999999992E-002     1.3220058381335775E-010
  -5.2899999999999989E-002    -3.6777298983992068E-009
  -5.1799999999999985E-002    -7.0263914686563567E-009
  -5.0699999999999995E-002    -7.5326553883314773E-009
  -4.9599999999999991E-002    -4.3017798212474645E-009
  -4.8499999999999988E-002     1.6692125459627505E-009
  -4.7399999999999998E-002     8.9613365616969531E-009
  -4.6299999999999994E-002     1.6691862114726064E-008
  -4.5199999999999990E-002     2.2932393761720959E-008
  -4.4099999999999986E-002     2.2609448535604315E-008
  -4.2999999999999997E-002     9.2521839079040546E-009
  -4.1899999999999993E-002    -1.8889211972350495E-008
  -4.0799999999999989E-002    -5.3974424929492670E-008
  -3.9699999999999985E-002    -8.0634556809400237E-008
  -3.8599999999999995E-002    -8.3527410765782406E-008
  -3.7499999999999992E-002    -5.3685386802726498E-008
  -3.6399999999999988E-002     9.5336769589948744E-009
  -3.5299999999999984E-002     9.7545317601088755E-008
  -3.4199999999999994E-002     1.9013289431768499E-007
  -3.3099999999999991E-002     2.5581897489246330E-007
  -3.1999999999999987E-002     2.6020151722150331E-007
  -3.0899999999999997E-002     1.7884133285406278E-007
  -2.9799999999999993E-002     5.7276690057506130E-009
  -2.8699999999999989E-002    -2.4444932478218107E-007
  -2.7599999999999986E-002    -5.3299891078495421E-007
  -2.6499999999999996E-002    -7.9161264920912799E-007
  -2.5399999999999992E-002    -9.2731937684220611E-007
  -2.4299999999999988E-002    -8.4831060576107120E-007
  -2.3199999999999985E-002    -4.9762223852667375E-007
  -2.2099999999999995E-002     1.3147469246632681E-007
  -2.0999999999999991E-002     1.0044359441963024E-006
  -1.9899999999999987E-002     2.0570521428453503E-006
  -1.8799999999999983E-002     3.1949432468536543E-006
  -1.7699999999999994E-002     4.3000882214982994E-006
  -1.6599999999999990E-002     5.2690129450638779E-006
  -1.5499999999999986E-002     6.0648044382105581E-006
  -1.4399999999999996E-002     6.7335686253500171E-006
  -1.3299999999999992E-002     7.3725327638385352E-006
  -1.2199999999999989E-002     8.1002854130929336E-006
  -1.1099999999999985E-002     9.0748944785445929E-006
  -9.9999999999999950E-003     1.0527072845434304E-005
  -8.8999999999999913E-003     1.2733464245684445E-005
  -7.7999999999999875E-003     1.5924861145322211E-005
  -6.6999999999999837E-003     2.0218538338667713E-005
  -5.5999999999999939E-003     2.5649012968642637E-005
  -4.4999999999999901E-003     3.2255913538392633E-005
  -3.3999999999999864E-003     4.0128903492586687E-005
  -2.2999999999999826E-003     4.9387483159080148E-005
  -1.1999999999999927E-003     6.0166679759277031E-005
  -9.9999999999988987E-005     7.2656664997339249E-005
   1.0000000000000148E-003     8.7155065557453781E-005
   2.1000000000000185E-003     1.0408207162981853E-004
   3.2000000000000084E-003     1.2398748367559165E-004
   4.3000000000000121E-003     1.4757837925571948E-004
   5.4000000000000159E-003     1.7569464398548007E-004
   6.5000000000000058E-003     2.0915835921186954E-004
   7.6000000000000234E-003     2.4859467521309853E-004
   8.7000000000000133E-003     2.9445291147567332E-004
   9.8000000000000032E-003     3.4726259764283895E-004
   1.0900000000000021E-002     4.0785747114568949E-004
   1.2000000000000011E-002     4.7729237121529877E-004
   1.3100000000000001E-002     5.5654969764873385E-004
   1.4200000000000018E-002     6.4646051032468677E-004
   1.5300000000000008E-002     7.4800313450396061E-004
   1.6400000000000026E-002     8.6260068928822875E-004
   1.7500000000000016E-002     9.9199230317026377E-004
   1.8600000000000005E-002     1.1377595365047455E-003
   1.9700000000000023E-002     1.3010144466534257E-003
   2.0800000000000013E-002     1.4825266553089023E-003
   2.1900000000000003E-002     1.6830438980832696E-003
   2.3000000000000020E-002     1.9034136785194278E-003
   2.4100000000000010E-002     2.1444298326969147E-003
   2.5200000000000000E-002     2.4066746700555086E-003
   2.6300000000000018E-002     2.6905131526291370E-003
   2.7400000000000008E-002     2.9960381798446178E-003
   2.8500000000000025E-002     3.3228737302124500E-003
   2.9600000000000015E-002     3.6703061778098345E-003
   3.0700000000000005E-002     4.0375618264079094E-003
   3.1800000000000023E-002     4.4235484674572945E-003
   3.2900000000000013E-002     4.8260246403515339E-003
   3.4000000000000002E-002     5.2411677315831184E-003
   3.5100000000000020E-002     5.6642978452146053E-003
   3.6200000000000010E-002     6.0908575542271137E-003
   3.7300000000000028E-002     6.5163881517946720E-003
   3.8400000000000017E-002     6.9354237057268620E-003
   3.9500000000000007E-002     7.3406337760388851E-003
   4.0600000000000025E-002     7.7229929156601429E-003
   4.1700000000000015E-002     8.0731976777315140E-003
   4.2800000000000005E-002     8.3824591711163521E-003
   4.3900000000000022E-002     8.6418120190501213E-003
   4.5000000000000012E-002     8.8409343734383583E-003
   4.6100000000000002E-002     8.9679276570677757E-003
   4.7200000000000020E-002     9.0098958462476730E-003
   4.8300000000000010E-002     8.9536746963858604E-003
   4.9400000000000027E-002     8.7872827425599098E-003
   5.0500000000000017E-002     8.5005089640617371E-003
   5.1600000000000007E-002     8.0833127722144127E-003
   5.2700000000000025E-002     7.5249369256198406E-003
   5.3800000000000014E-002     6.8142674863338470E-003
   5.4900000000000004E-002     5.9412429109215736E-003
   5.6000000000000022E-002     4.8992019146680832E-003
   5.7100000000000012E-002     3.6854720674455166E-003
   5.8200000000000002E-002     2.3006913252174854E-003
   5.9300000000000019E-002     7.4556318577378988E-004
   6.0400000000000009E-002    -9.7940594423562288E-004
   6.1500000000000027E-002    -2.8708765748888254E-003
   6.2600000000000017E-002    -4.9201878719031811E-003
   6.3700000000000007E-002    -7.1111544966697693E-003
   6.4800000000000024E-002    -9.4226794317364693E-003
   6.5900000000000014E-002    -1.1834581382572651E-002
   6.7000000000000004E-002    -1.4327803626656532E-002
   6.8100000000000022E-002    -1.6879696398973465E-002
   6.9200000000000012E-002    -1.9459558650851250E-002
   7.0300000000000029E-002    -2.2029487416148186E-002
   7.1400000000000019E-002    -2.4549625813961029E-002
   7.2500000000000009E-002    -2.6982657611370087E-002
   7.3600000000000027E-002    -2.9294168576598167E-002
   7.4700000000000016E-002    -3.1447943300008774E-002
   7.5800000000000006E-002    -3.3403735607862473E-002
   7.6900000000000024E-002    -3.5118218511343002E-002
   7.8000000000000014E-002    -3.6548968404531479E-002
   7.9100000000000004E-002    -3.7659678608179092E-002
   8.0200000000000021E-002    -3.8419675081968307E-002
   8.1300000000000011E-002    -3.8803301751613617E-002
   8.2400000000000029E-002    -3.8787525147199631E-002
   8.3500000000000019E-002    -3.8347829133272171E-002
   8.4600000000000009E-002    -3.7463005632162094E-002
   8.5700000000000026E-002    -3.6122813820838928E-002
   8.6800000000000016E-002    -3.4331962466239929E-002
   8.7900000000000006E-002    -3.2104663550853729E-002
   8.9000000000000024E-002    -2.9454056173563004E-002
   9.0100000000000013E-002    -2.6391079649329185E-002
   9.1200000000000003E-002    -2.2935321554541588E-002
   9.2300000000000021E-002    -1.9123392179608345E-002
   9.3400000000000011E-002    -1.5003709122538567E-002
   9.4500000000000028E-002    -1.0627007111907005E-002
   9.5600000000000018E-002    -6.0423072427511215E-003
   9.6700000000000008E-002    -1.3004649663344026E-003
   9.7800000000000026E-002     3.5411890130490065E-003
   9.8900000000000016E-002     8.4201321005821228E-003
  0.10000000000000001          1.3270572759211063E-002
  0.10110000000000002          1.8024899065494537E-002
  0.10220000000000001          2.2616280242800713E-002
  0.10330000000000003          2.6983253657817841E-002
  0.10440000000000002          3.1075833365321159E-002
  0.10550000000000001          3.4848399460315704E-002
  0.10660000000000003          3.8248695433139801E-002
  0.10770000000000002          4.1221465915441513E-002
  0.10880000000000001          4.3721523135900497E-002
  0.10990000000000003          4.5726895332336426E-002
  0.11100000000000002          4.7232214361429214E-002
  0.11210000000000001          4.8229955136775970E-002
  0.11320000000000002          4.8702802509069443E-002
  0.11430000000000001          4.8639319837093353E-002
  0.11540000000000003          4.8052072525024414E-002
  0.11650000000000002          4.6972777694463730E-002
  0.11760000000000001          4.5432403683662415E-002
  0.11870000000000003          4.3457664549350739E-002
  0.11980000000000002          4.1084747761487961E-002
  0.12090000000000001          3.8357041776180267E-002
  0.12200000000000003          3.5319570451974869E-002
  0.12310000000000001          3.2018892467021942E-002
  0.12420000000000003          2.8507605195045471E-002
  0.12530000000000002          2.4847518652677536E-002
  0.12640000000000001          2.1099118515849113E-002
  0.12750000000000003          1.7309019342064857E-002
  0.12860000000000002          1.3513514772057533E-002
  0.12970000000000001          9.7580207511782646E-003
  0.13080000000000003          6.1019952408969402E-003
  0.13190000000000002          2.5992905721068382E-003
  0.13300000000000001         -7.1906612720340490E-004
  0.13410000000000000         -3.8360296748578548E-003
  0.13520000000000004         -6.7273899912834167E-003
  0.13630000000000003         -9.3582496047019958E-003
  0.13740000000000002         -1.1702166870236397E-002
  0.13850000000000001         -1.3754190877079964E-002
  0.13960000000000000         -1.5517125837504864E-002
  0.14070000000000005         -1.6986533999443054E-002
  0.14180000000000004         -1.8154690042138100E-002
  0.14290000000000003         -1.9026229158043861E-002
  0.14400000000000002         -1.9620301201939583E-002
  0.14510000000000001         -1.9954375922679901E-002
  0.14620000000000000         -2.0036213099956512E-002
  0.14730000000000004         -1.9875697791576385E-002
  0.14840000000000003         -1.9497381523251534E-002
  0.14950000000000002         -1.8932355567812920E-002
  0.15060000000000001         -1.8200661987066269E-002
  0.15170000000000000         -1.7312079668045044E-002
  0.15280000000000005         -1.6285147517919540E-002
  0.15390000000000004         -1.5153472311794758E-002
  0.15500000000000003         -1.3947810046374798E-002
  0.15610000000000002         -1.2679965235292912E-002
  0.15720000000000001         -1.1353028938174248E-002
  0.15830000000000000         -9.9842837080359459E-003
  0.15940000000000004         -8.6064133793115616E-003
  0.16050000000000003         -7.2436328046023846E-003
  0.16160000000000002         -5.8986251242458820E-003
  0.16270000000000001         -4.5684981159865856E-003
  0.16380000000000000         -3.2660481519997120E-003
  0.16490000000000005         -2.0153280347585678E-003
  0.16600000000000004         -8.2880642730742693E-004
  0.16710000000000003          2.9730395181104541E-004
  0.16820000000000002          1.3637874508276582E-003
  0.16930000000000001          2.3560856934636831E-003
  0.17040000000000000          3.2583163119852543E-003
  0.17150000000000004          4.0706042200326920E-003
  0.17260000000000003          4.8015979118645191E-003
  0.17370000000000002          5.4473248310387135E-003
  0.17480000000000001          5.9891678392887115E-003
  0.17590000000000000          6.4149349927902222E-003
  0.17700000000000005          6.7307245917618275E-003
  0.17810000000000004          6.9457287900149822E-003
  0.17920000000000003          7.0525142364203930E-003
  0.18030000000000002          7.0327096618711948E-003
  0.18140000000000001          6.8792244419455528E-003
  0.18250000000000000          6.6006588749587536E-003
  0.18360000000000004          6.2017575837671757E-003
  0.18470000000000003          5.6712036021053791E-003
  0.18580000000000002          4.9963262863457203E-003
  0.18690000000000001          4.1822437196969986E-003
  0.18800000000000000          3.2450684811919928E-003
  0.18910000000000005          2.1885759197175503E-003
  0.19020000000000004          1.0008496465161443E-003
  0.19130000000000003         -3.2266447669826448E-004
  0.19240000000000002         -1.7632620874792337E-003
  0.19350000000000001         -3.2946208957582712E-003
  0.19460000000000005         -4.9057654105126858E-003
  0.19570000000000004         -6.5980451181530952E-003
  0.19680000000000003         -8.3622783422470093E-003
  0.19790000000000002         -1.0169263929128647E-002
  0.19900000000000001         -1.1987281963229179E-002
  0.20010000000000000         -1.3798389583826065E-002
  0.20120000000000005         -1.5589932911098003E-002
  0.20230000000000004         -1.7335595563054085E-002
  0.20340000000000003         -1.8996682018041611E-002
  0.20450000000000002         -2.0542178303003311E-002
  0.20560000000000000         -2.1955724805593491E-002
  0.20670000000000005         -2.3219073191285133E-002
  0.20780000000000004         -2.4298436939716339E-002
  0.20890000000000003         -2.5155518203973770E-002
