 -0.12000000000000000          0.0000000000000000
 -0.11889999999999999          0.0000000000000000
 -0.11780000000000000          0.0000000000000000
 -0.11670000000000000          1.2546763107634806E-011
 -0.11559999999999999          1.3697711367943732E-011
 -0.11449999999999999         -3.8519888667654101E-011
 -0.11340000000000000         -6.0437016502490337E-011
 -0.11230000000000000          8.1728193657149006E-011
 -0.11119999999999999          2.1664815774702362E-010
 -0.11009999999999999         -3.4040614077524012E-011
 -0.10900000000000000         -4.8208054215237439E-010
 -0.10790000000000000         -2.7206706332272290E-010
 -0.10679999999999999          7.1667355383553399E-010
 -0.10569999999999999          1.0246070658581630E-009
 -0.10460000000000000         -4.2161413249530710E-010
 -0.10349999999999999         -1.8818480107540836E-009
 -0.10239999999999999         -6.0493338116529571E-010
 -0.10130000000000000          2.4258657305153974E-009
 -0.10020000000000000          2.5024646799209904E-009
  -9.9099999999999994E-002    -1.8537392731943214E-009
  -9.7999999999999990E-002    -4.8300972110837392E-009
  -9.6899999999999986E-002    -6.5601130083692283E-010
  -9.5799999999999996E-002     6.4044076708569264E-009
  -9.4699999999999993E-002     5.8165898764173107E-009
  -9.3599999999999989E-002    -3.7803706831596173E-009
  -9.2499999999999999E-002    -9.8755315036669344E-009
  -9.1399999999999995E-002    -2.5646533785561587E-009
  -9.0299999999999991E-002     9.5435064295656957E-009
  -8.9200000000000002E-002     9.3253387234426555E-009
  -8.8099999999999984E-002    -4.2171426350989805E-009
  -8.6999999999999994E-002    -1.2694440165716969E-008
  -8.5899999999999990E-002    -3.9120702233219617E-009
  -8.4799999999999986E-002     9.9854604584947992E-009
  -8.3699999999999997E-002     9.7387156117179074E-009
  -8.2599999999999993E-002    -2.9504683141112764E-009
  -8.1499999999999989E-002    -8.7990539299198645E-009
  -8.0399999999999999E-002    -8.1161039000576807E-010
  -7.9299999999999995E-002     5.8461169238910315E-009
  -7.8199999999999992E-002    -3.1187788462894162E-010
  -7.7100000000000002E-002    -7.3376864584417945E-009
  -7.5999999999999984E-002     2.9691941180048920E-012
  -7.4899999999999994E-002     1.1607462546692204E-008
  -7.3799999999999991E-002     4.7746384623792437E-009
  -7.2699999999999987E-002    -1.6708165517798079E-008
  -7.1599999999999997E-002    -2.0920309040661778E-008
  -7.0499999999999993E-002     5.0183723843133521E-009
  -6.9399999999999989E-002     2.8316698319486022E-008
  -6.8300000000000000E-002     1.2550958494728093E-008
  -6.7199999999999996E-002    -2.6887942539133292E-008
  -6.6099999999999992E-002    -3.8679164759969353E-008
  -6.5000000000000002E-002    -6.8538561492914596E-009
  -6.3899999999999985E-002     2.4600396386631473E-008
  -6.2799999999999995E-002     1.2652751735231504E-008
  -6.1699999999999991E-002    -2.5253452662354903E-008
  -6.0599999999999994E-002    -3.9293038156529292E-008
  -5.9499999999999990E-002    -1.9400914652578649E-008
  -5.8399999999999994E-002    -3.7838399080669660E-009
  -5.7299999999999990E-002    -1.5919523477236908E-008
  -5.6199999999999986E-002    -3.1369257413871310E-008
  -5.5099999999999996E-002    -2.4939522447198215E-008
  -5.3999999999999992E-002    -1.7682884490000106E-008
  -5.2899999999999989E-002    -4.2286462331730945E-008
  -5.1799999999999985E-002    -8.0362298149339040E-008
  -5.0699999999999995E-002    -7.9882468639880244E-008
  -4.9599999999999991E-002    -3.7831284771527862E-008
  -4.8499999999999988E-002    -1.9347170976402595E-008
  -4.7399999999999998E-002    -6.9011790060358180E-008
  -4.6299999999999994E-002    -1.3945387422609201E-007
  -4.5199999999999990E-002    -1.5015395149475808E-007
  -4.4099999999999986E-002    -1.0027047636640418E-007
  -4.2999999999999997E-002    -7.1666931944491807E-008
  -4.1899999999999993E-002    -1.1474452321635908E-007
  -4.0799999999999989E-002    -1.8237510346352792E-007
  -3.9699999999999985E-002    -2.0388004884352995E-007
  -3.8599999999999995E-002    -1.8465661355548946E-007
  -3.7499999999999992E-002    -1.8540903568009526E-007
  -3.6399999999999988E-002    -2.2214078398974380E-007
  -3.5299999999999984E-002    -2.4801934728202468E-007
  -3.4199999999999994E-002    -2.3923982439555402E-007
  -3.3099999999999991E-002    -2.4121229103002406E-007
  -3.1999999999999987E-002    -2.9318422889446083E-007
  -3.0899999999999997E-002    -3.5208702797717706E-007
  -2.9799999999999993E-002    -3.4674403082135541E-007
  -2.8699999999999989E-002    -2.9049104455225461E-007
  -2.7599999999999986E-002    -2.7545084435587341E-007
  -2.6499999999999996E-002    -3.4248205338371918E-007
  -2.5399999999999992E-002    -4.1515204429742880E-007
  -2.4299999999999988E-002    -4.0524611222281237E-007
  -2.3199999999999985E-002    -3.3571558333278517E-007
  -2.2099999999999995E-002    -3.0304008191706089E-007
  -2.0999999999999991E-002    -3.3726442438819504E-007
  -1.9899999999999987E-002    -3.6610245501833560E-007
  -1.8799999999999983E-002    -3.3274599786636827E-007
  -1.7699999999999994E-002    -2.7657031864691817E-007
  -1.6599999999999990E-002    -2.5848984819276666E-007
  -1.5499999999999986E-002    -2.6027734634226363E-007
  -1.4399999999999996E-002    -2.1478064127222751E-007
  -1.3299999999999992E-002    -1.2105300584153156E-007
  -1.2199999999999989E-002    -5.5594554737581348E-008
  -1.1099999999999985E-002    -5.3948753020449658E-008
  -9.9999999999999950E-003    -4.6930264119282583E-008
  -8.8999999999999913E-003     4.4146634792241457E-008
  -7.7999999999999875E-003     1.8381598465566640E-007
  -6.6999999999999837E-003     2.7294689175505482E-007
  -5.5999999999999939E-003     2.9075033580738818E-007
  -4.4999999999999901E-003     3.1965078051143792E-007
  -3.3999999999999864E-003     4.1699919961502019E-007
  -2.2999999999999826E-003     5.4522678283319692E-007
  -1.1999999999999927E-003     6.2424891211776412E-007
  -9.9999999999988987E-005     6.5646048597045592E-007
   1.0000000000000148E-003     7.1312780391963315E-007
   2.1000000000000185E-003     8.1592929745966103E-007
   3.2000000000000084E-003     9.0033648803000688E-007
   4.3000000000000121E-003     9.2081410230093752E-007
   5.4000000000000159E-003     9.2340673063517897E-007
   6.5000000000000058E-003     9.7919826202996774E-007
   7.6000000000000234E-003     1.0637889999998151E-006
   8.7000000000000133E-003     1.0917643749053241E-006
   9.8000000000000032E-003     1.0449374485688168E-006
   1.0900000000000021E-002     9.9729800240311306E-007
   1.2000000000000011E-002     1.0084798987008980E-006
   1.3100000000000001E-002     1.0350356660637772E-006
   1.4200000000000018E-002     9.9678504739131313E-007
   1.5300000000000008E-002     8.9746833964454709E-007
   1.6400000000000026E-002     8.1102291460410925E-007
   1.7500000000000016E-002     7.6813222449345631E-007
   1.8600000000000005E-002     7.1637845167060732E-007
   1.9700000000000023E-002     6.0867654383400804E-007
   2.0800000000000013E-002     4.7805906433495693E-007
   2.1900000000000003E-002     3.8140390756780107E-007
   2.3000000000000020E-002     3.0957309604673355E-007
   2.4100000000000010E-002     2.0483751939082140E-007
   2.5200000000000000E-002     5.5059103942767251E-008
   2.6300000000000018E-002    -7.9908872407941089E-008
   2.7400000000000008E-002    -1.6188299412078777E-007
   2.8500000000000025E-002    -2.3085145528511930E-007
   2.9600000000000015E-002    -3.3996005299741228E-007
   3.0700000000000005E-002    -4.7611510467504559E-007
   3.1800000000000023E-002    -5.7850326129482710E-007
   3.2900000000000013E-002    -6.2647046661368222E-007
   3.4000000000000002E-002    -6.6313361912762048E-007
   3.5100000000000020E-002    -7.3344273232578416E-007
   3.6200000000000010E-002    -8.1114148997585289E-007
   3.7300000000000028E-002    -8.5270158933781204E-007
   3.8400000000000017E-002    -8.5668017391071771E-007
   3.9500000000000007E-002    -8.5880577671559877E-007
   4.0600000000000025E-002    -8.7265834736172110E-007
   4.1700000000000015E-002    -8.7100880818979931E-007
   4.2800000000000005E-002    -8.3610251522259205E-007
   4.3900000000000022E-002    -7.9066836633501225E-007
   4.5000000000000012E-002    -7.6285709837975446E-007
   4.6100000000000002E-002    -7.4085221513087163E-007
   4.7200000000000020E-002    -6.9140611458351486E-007
   4.8300000000000010E-002    -6.0861071915496723E-007
   4.9400000000000027E-002    -5.2833365771220997E-007
   5.0500000000000017E-002    -4.7106487954806653E-007
   5.1600000000000007E-002    -4.2188034399259777E-007
   5.2700000000000025E-002    -3.5890420235773490E-007
   5.3800000000000014E-002    -2.8524652861960931E-007
   5.4900000000000004E-002    -2.1377150005719159E-007
   5.6000000000000022E-002    -1.4706157003274711E-007
   5.7100000000000012E-002    -7.9335400471336470E-008
   5.8200000000000002E-002    -1.6769027055829611E-008
   5.9300000000000019E-002     2.4695106404237777E-008
   6.0400000000000009E-002     4.9665175083646318E-008
   6.1500000000000027E-002     8.8215891480558639E-008
   6.2600000000000017E-002     1.4818279225892184E-007
   6.3700000000000007E-002     2.0011432866340328E-007
   6.4800000000000024E-002     2.1837564645466045E-007
   6.5900000000000014E-002     2.1572070352249284E-007
   6.7000000000000004E-002     2.2115469278105593E-007
   6.8100000000000022E-002     2.3705517548933130E-007
   6.9200000000000012E-002     2.4497200001860620E-007
   7.0300000000000029E-002     2.4263803766189085E-007
   7.1400000000000019E-002     2.4571252765781537E-007
   7.2500000000000009E-002     2.5291808469773969E-007
   7.3600000000000027E-002     2.3742339294585690E-007
   7.4700000000000016E-002     1.9288124519789562E-007
   7.5800000000000006E-002     1.5646354256659833E-007
   7.6900000000000024E-002     1.6388261769861856E-007
   7.8000000000000014E-002     1.9002099804765749E-007
   7.9100000000000004E-002     1.7841014710029413E-007
   8.0200000000000021E-002     1.2208141697556130E-007
   8.1300000000000011E-002     7.5042173364181508E-008
   8.2400000000000029E-002     7.3376561715576827E-008
   8.3500000000000019E-002     8.5086583112570224E-008
   8.4600000000000009E-002     6.4946306110869045E-008
   8.5700000000000026E-002     2.6185805523937233E-008
   8.6800000000000016E-002     1.7923314388212930E-008
   8.7900000000000006E-002     3.8304946770040260E-008
   8.9000000000000024E-002     3.0327704791943688E-008
   9.0100000000000013E-002    -2.4233759887692941E-008
   9.1200000000000003E-002    -6.2946519108209031E-008
   9.2300000000000021E-002    -3.2718364906259012E-008
   9.3400000000000011E-002     2.2081799500028865E-008
   9.4500000000000028E-002     1.7466371460272967E-008
   9.5600000000000018E-002    -4.8871520164084359E-008
   9.6700000000000008E-002    -8.8972271328202623E-008
   9.7800000000000026E-002    -5.4405301597171274E-008
   9.8900000000000016E-002    -4.3297032625844167E-009
  0.10000000000000001         -1.1632908858416613E-008
  0.10110000000000002         -5.4150895323346049E-008
  0.10220000000000001         -5.6289291450184464E-008
  0.10330000000000003         -1.3604038784365002E-008
  0.10440000000000002         -7.8518230806068345E-010
  0.10550000000000001         -4.6777820728038932E-008
  0.10660000000000003         -7.8853261697986454E-008
  0.10770000000000002         -3.3689175893414358E-008
  0.10880000000000001          3.4356116174194540E-008
  0.10990000000000003          2.6491631999192577E-008
  0.11100000000000002         -4.9740979335410884E-008
  0.11210000000000001         -8.4395715305163321E-008
  0.11320000000000002         -2.5319041085936078E-008
  0.11430000000000001          4.2658928833816390E-008
  0.11540000000000003          2.4916660734675133E-008
  0.11650000000000002         -4.2256036891785698E-008
  0.11760000000000001         -5.0683137686746704E-008
  0.11870000000000003          1.2029939711055704E-008
  0.11980000000000002          4.4817561217769253E-008
  0.12090000000000001         -6.3908180969463046E-009
  0.12200000000000003         -6.1142948482029169E-008
  0.12310000000000001         -2.8179506728065462E-008
  0.12420000000000003          4.8741252811623781E-008
  0.12530000000000002          5.4148070915971402E-008
  0.12640000000000001         -2.2417101064320377E-008
  0.12750000000000003         -6.7137030157482513E-008
  0.12860000000000002         -1.4046400487188748E-008
  0.12970000000000001          5.5794561859556779E-008
  0.13080000000000003          3.9240955373998077E-008
  0.13190000000000002         -3.1387738630428430E-008
  0.13300000000000001         -4.3129070093073096E-008
  0.13410000000000000          1.9552578223169803E-008
  0.13520000000000004          5.1570690828839361E-008
  0.13630000000000003         -4.0443723925420727E-009
  0.13740000000000002         -6.1130677408982592E-008
  0.13850000000000001         -2.2813903655105605E-008
  0.13960000000000000          6.2051938698459708E-008
  0.14070000000000005          6.5955596539879480E-008
  0.14180000000000004         -2.3306837348968656E-008
  0.14290000000000003         -7.8897713251535606E-008
  0.14400000000000002         -2.2106934949306378E-008
  0.14510000000000001          6.1088812230991607E-008
  0.14620000000000000          5.0168651455351210E-008
  0.14730000000000004         -3.1105571451917058E-008
  0.14840000000000003         -5.7629023331173812E-008
  0.14950000000000002          4.5903245649014934E-009
  0.15060000000000001          5.2625477309220514E-008
  0.15170000000000000          1.2072047361755267E-008
  0.15280000000000005         -4.8048715228787842E-008
  0.15390000000000004         -2.7203643782058862E-008
  0.15500000000000003          4.5459412234549745E-008
  0.15610000000000002          5.4495039591984096E-008
  0.15720000000000001         -2.0805645206678491E-008
  0.15830000000000000         -7.0011225261623622E-008
  0.15940000000000004         -1.8960719216920552E-008
  0.16050000000000003          5.6790938174344774E-008
  0.16160000000000002          4.6435506106945468E-008
  0.16270000000000001         -2.9258151457156600E-008
  0.16380000000000000         -5.3789477760801674E-008
  0.16490000000000005          5.9818567876845918E-009
  0.16600000000000004          5.3172751535157659E-008
  0.16710000000000003          1.4623327437846001E-008
  0.16820000000000002         -4.6374811546456840E-008
  0.16930000000000001         -3.1383940779505792E-008
  0.17040000000000000          3.7907774697032437E-008
  0.17150000000000004          5.2442938880403744E-008
  0.17260000000000003         -1.4742705722881055E-008
  0.17370000000000002         -6.4518204112573585E-008
  0.17480000000000001         -2.1516218140504861E-008
  0.17590000000000000          5.1658840760637759E-008
  0.17700000000000005          4.9221508646724033E-008
  0.17810000000000004         -2.0784234777693200E-008
  0.17920000000000003         -5.3398533594872788E-008
  0.18030000000000002         -6.3157585827866569E-009
  0.18140000000000001          4.2885844209195056E-008
  0.18250000000000000          2.1066075106546123E-008
  0.18360000000000004         -3.1394677080243127E-008
  0.18470000000000003         -3.0555018071254381E-008
  0.18580000000000002          1.8943035584584322E-008
  0.18690000000000001          3.5339915882559580E-008
  0.18800000000000000         -8.5199625132759138E-009
  0.18910000000000005         -4.2535809541277558E-008
  0.19020000000000004         -1.0372846581674366E-008
  0.19130000000000003          4.1247602666771854E-008
  0.19240000000000002          3.3842106006432005E-008
  0.19350000000000001         -2.2068816107889688E-008
  0.19460000000000005         -4.3288284956588541E-008
  0.19570000000000004         -3.8635722399149586E-010
  0.19680000000000003          3.9640603688440024E-008
  0.19790000000000002          1.7126177809245746E-008
  0.19900000000000001         -3.1356506724478095E-008
  0.20010000000000000         -3.1738078831722305E-008
  0.20120000000000005          1.5337747072408092E-008
  0.20230000000000004          3.9187483480418450E-008
  0.20340000000000003          7.6175217245122440E-009
  0.20450000000000002         -2.7901419841214192E-008
  0.20560000000000000         -1.4507940626629079E-008
  0.20670000000000005          2.3524691528109543E-008
  0.20780000000000004          2.6386715035187081E-008
  0.20890000000000003         -9.3474090689937839E-009
