 -0.12000000000000000          0.0000000000000000     
 -0.11889999999999999          0.0000000000000000     
 -0.11780000000000000          0.0000000000000000     
 -0.11670000000000000          0.0000000000000000     
 -0.11559999999999999          0.0000000000000000     
 -0.11449999999999999          0.0000000000000000     
 -0.11340000000000000          2.0533333888023789E-018
 -0.11230000000000000          1.2251536454669638E-018
 -0.11119999999999999         -2.0092491702876410E-017
 -0.11009999999999999         -2.0840848620498034E-017
 -0.10900000000000000          7.5648082385363036E-017
 -0.10790000000000000          7.0868771772374551E-017
 -0.10679999999999999         -1.9141100987797929E-016
 -0.10569999999999999          2.9956355148030758E-016
 -0.10460000000000000          1.6836027082694051E-015
 -0.10349999999999999         -1.5620697857226477E-015
 -0.10239999999999999         -1.2462664262396801E-014
 -0.10130000000000000         -9.2464318807942286E-015
 -0.10020000000000000          3.8092155840198372E-014
  -9.9099999999999994E-002     8.5302133466611668E-014
  -9.7999999999999990E-002     2.5351700346485945E-015
  -9.6899999999999986E-002    -2.2073820906982206E-013
  -9.5799999999999996E-002    -3.0220305966867367E-013
  -9.4699999999999993E-002     2.5191169815289363E-014
  -9.3599999999999989E-002     5.1166091762783195E-013
  -9.2499999999999999E-002     6.7821480853255678E-013
  -9.1399999999999995E-002     6.5971344056017789E-013
  -9.0299999999999991E-002     6.6506446617237147E-013
  -8.9200000000000002E-002    -8.1036766923572867E-013
  -8.8099999999999984E-002    -5.5713272537061265E-012
  -8.6999999999999994E-002    -9.6427709567192821E-012
  -8.5899999999999990E-002    -2.2771185978487374E-012
  -8.4799999999999986E-002     2.0021808863623924E-011
  -8.3699999999999997E-002     3.7833257360286865E-011
  -8.2599999999999993E-002     2.1393305529859852E-011
  -8.1499999999999989E-002    -3.0387983795954199E-011
  -8.0399999999999999E-002    -7.6609739385613551E-011
  -7.9299999999999995E-002    -7.8853389096078530E-011
  -7.8199999999999992E-002    -4.3702094026931704E-011
  -7.7100000000000002E-002     1.4185433210023302E-011
  -7.5999999999999984E-002     1.3021587974559878E-010
  -7.4899999999999994E-002     3.1957378410218951E-010
  -7.3799999999999991E-002     4.1642722603540960E-010
  -7.2699999999999987E-002     1.2392875614608556E-010
  -7.1599999999999997E-002    -5.9405447228044750E-010
  -7.0499999999999993E-002    -1.2226473167231688E-009
  -6.9399999999999989E-002    -1.0753075097014175E-009
  -6.8300000000000000E-002    -8.2699916359452175E-011
  -6.7199999999999996E-002     1.0535946559642184E-009
  -6.6099999999999992E-002     1.7162944399018443E-009
  -6.5000000000000002E-002     2.0552695101372365E-009
  -6.3899999999999985E-002     2.2871222693510163E-009
  -6.2799999999999995E-002     1.5559249444407897E-009
  -6.1699999999999991E-002    -1.4017542682154271E-009
  -6.0599999999999994E-002    -5.8784350720486600E-009
  -5.9499999999999990E-002    -8.5155447138163254E-009
  -5.8399999999999994E-002    -6.4707692537524508E-009
  -5.7299999999999990E-002    -9.9477182047280621E-010
  -5.6199999999999986E-002     3.9836316467756205E-009
  -5.5099999999999996E-002     7.2912769155664137E-009
  -5.3999999999999992E-002     1.2107817859430270E-008
  -5.2899999999999989E-002     1.9839525577936001E-008
  -5.1799999999999985E-002     2.4082027039185050E-008
  -5.0699999999999995E-002     1.5000747310978113E-008
  -4.9599999999999991E-002    -8.9683673820672993E-009
  -4.8499999999999988E-002    -3.7253371942824742E-008
  -4.7399999999999998E-002    -5.7518139584544770E-008
  -4.6299999999999994E-002    -6.6478158089466888E-008
  -4.5199999999999990E-002    -6.5362542045477312E-008
  -4.4099999999999986E-002    -4.6994589553150945E-008
  -4.2999999999999997E-002     2.8168205545853198E-009
  -4.1899999999999993E-002     8.5035779306963377E-008
  -4.0799999999999989E-002     1.7364027371513657E-007
  -3.9699999999999985E-002     2.3028044893180777E-007
  -3.8599999999999995E-002     2.3204422916478507E-007
  -3.7499999999999992E-002     1.7786885564419208E-007
  -3.6399999999999988E-002     6.9101268707072450E-008
  -3.5299999999999984E-002    -1.0199773470276341E-007
  -3.4199999999999994E-002    -3.3289720136053802E-007
  -3.3099999999999991E-002    -5.8454082818570896E-007
  -3.1999999999999987E-002    -7.8551403248638962E-007
  -3.0899999999999997E-002    -8.6215470673778327E-007
  -2.9799999999999993E-002    -7.5639644592229160E-007
  -2.8699999999999989E-002    -4.2018845647362468E-007
  -2.7599999999999986E-002     1.8087867204030772E-007
  -2.6499999999999996E-002     1.0371323924118769E-006
  -2.5399999999999992E-002     2.0757761376444250E-006
  -2.4299999999999988E-002     3.1938573101797374E-006
  -2.3199999999999985E-002     4.3135269152116962E-006
  -2.2099999999999995E-002     5.3915741773380432E-006
  -2.0999999999999991E-002     6.3824140852375422E-006
  -1.9899999999999987E-002     7.2358416218776256E-006
  -1.8799999999999983E-002     7.9719284258317202E-006
  -1.7699999999999994E-002     8.7518865257152356E-006
  -1.6599999999999990E-002     9.8392438303562813E-006
  -1.5499999999999986E-002     1.1480608918645885E-005
  -1.4399999999999996E-002     1.3847330592398066E-005
  -1.3299999999999992E-002     1.7095784642151557E-005
  -1.2199999999999989E-002     2.1431418645079248E-005
  -1.1099999999999985E-002     2.7055912141804583E-005
  -9.9999999999999950E-003     3.4060540201608092E-005
  -8.8999999999999913E-003     4.2434494389453903E-005
  -7.7999999999999875E-003     5.2215087634976953E-005
  -6.6999999999999837E-003     6.3611398218199611E-005
  -5.5999999999999939E-003     7.6968448411207646E-005
  -4.4999999999999901E-003     9.2658920038957149E-005
  -3.3999999999999864E-003     1.1107420868938789E-004
  -2.2999999999999826E-003     1.3271466013975441E-004
  -1.1999999999999927E-003     1.5822667046450078E-004
  -9.9999999999988987E-005     1.8832941714208573E-004
   1.0000000000000148E-003     2.2375101980287582E-004
   2.1000000000000185E-003     2.6526214787736535E-004
   3.2000000000000084E-003     3.1371961813420057E-004
   4.3000000000000121E-003     3.7000089650973678E-004
   5.4000000000000159E-003     4.3491931864991784E-004
   6.5000000000000058E-003     5.0930242286995053E-004
   7.6000000000000234E-003     5.9418694581836462E-004
   8.7000000000000133E-003     6.9086311850696802E-004
   9.8000000000000032E-003     8.0065435031428933E-004
   1.0900000000000021E-002     9.2470034724101424E-004
   1.2000000000000011E-002     1.0640553664416075E-003
   1.3100000000000001E-002     1.2200054479762912E-003
   1.4200000000000018E-002     1.3941482175141573E-003
   1.5300000000000008E-002     1.5880749560892582E-003
   1.6400000000000026E-002     1.8030297942459583E-003
   1.7500000000000016E-002     2.0399005152285099E-003
   1.8600000000000005E-002     2.2994591854512691E-003
   1.9700000000000023E-002     2.5823775213211775E-003
   2.0800000000000013E-002     2.8890166431665421E-003
   2.1900000000000003E-002     3.2192748039960861E-003
   2.3000000000000020E-002     3.5726183559745550E-003
   2.4100000000000010E-002     3.9483127184212208E-003
   2.5200000000000000E-002     4.3453034013509750E-003
   2.6300000000000018E-002     4.7618574462831020E-003
   2.7400000000000008E-002     5.1955915987491608E-003
   2.8500000000000025E-002     5.6434664875268936E-003
   2.9600000000000015E-002     6.1017675325274467E-003
   3.0700000000000005E-002     6.5657999366521835E-003
   3.1800000000000023E-002     7.0296162739396095E-003
   3.2900000000000013E-002     7.4862316250801086E-003
   3.4000000000000002E-002     7.9279029741883278E-003
   3.5100000000000020E-002     8.3461860194802284E-003
   3.6200000000000010E-002     8.7316706776618958E-003
   3.7300000000000028E-002     9.0739205479621887E-003
   3.8400000000000017E-002     9.3617765232920647E-003
   3.9500000000000007E-002     9.5838168635964394E-003
   4.0600000000000025E-002     9.7282845526933670E-003
   4.1700000000000015E-002     9.7823813557624817E-003
   4.2800000000000005E-002     9.7329085692763329E-003
   4.3900000000000022E-002     9.5669319853186607E-003
   4.5000000000000012E-002     9.2714065685868263E-003
   4.6100000000000002E-002     8.8336616754531860E-003
   4.7200000000000020E-002     8.2418210804462433E-003
   4.8300000000000010E-002     7.4855005368590355E-003
   4.9400000000000027E-002     6.5562492236495018E-003
   5.0500000000000017E-002     5.4467436857521534E-003
   5.1600000000000007E-002     4.1511463932693005E-003
   5.2700000000000025E-002     2.6667634956538677E-003
   5.3800000000000014E-002     9.9455157760530710E-004
   5.4900000000000004E-002    -8.6217134958133101E-004
   5.6000000000000022E-002    -2.8975908644497395E-003
   5.7100000000000012E-002    -5.1021343097090721E-003
   5.8200000000000002E-002    -7.4607203714549541E-003
   5.9300000000000019E-002    -9.9546480923891068E-003
   6.0400000000000009E-002    -1.2564566917717457E-002
   6.1500000000000027E-002    -1.5267172828316689E-002
   6.2600000000000017E-002    -1.8032090738415718E-002
   6.3700000000000007E-002    -2.0824246108531952E-002
   6.4800000000000024E-002    -2.3607138544321060E-002
   6.5900000000000014E-002    -2.6344647631049156E-002
   6.7000000000000004E-002    -2.8999034315347672E-002
   6.8100000000000022E-002    -3.1527429819107056E-002
   6.9200000000000012E-002    -3.3884037286043167E-002
   7.0300000000000029E-002    -3.6023661494255066E-002
   7.1400000000000019E-002    -3.7904247641563416E-002
   7.2500000000000009E-002    -3.9484694600105286E-002
   7.3600000000000027E-002    -4.0724713355302811E-002
   7.4700000000000016E-002    -4.1589479893445969E-002
   7.5800000000000006E-002    -4.2048539966344833E-002
   7.6900000000000024E-002    -4.2073771357536316E-002
   7.8000000000000014E-002    -4.1638229042291641E-002
   7.9100000000000004E-002    -4.0721345692873001E-002
   8.0200000000000021E-002    -3.9316736161708832E-002
   8.1300000000000011E-002    -3.7428874522447586E-002
   8.2400000000000029E-002    -3.5065796226263046E-002
   8.3500000000000019E-002    -3.2235670834779739E-002
   8.4600000000000009E-002    -2.8951490297913551E-002
   8.5700000000000026E-002    -2.5240629911422729E-002
   8.6800000000000016E-002    -2.1146263927221298E-002
   8.7900000000000006E-002    -1.6718382015824318E-002
   8.9000000000000024E-002    -1.2005872093141079E-002
   9.0100000000000013E-002    -7.0582507178187370E-003
   9.1200000000000003E-002    -1.9320531282573938E-003
   9.2300000000000021E-002     3.3071520738303661E-003
   9.3400000000000011E-002     8.5891662165522575E-003
   9.4500000000000028E-002     1.3843359425663948E-002
   9.5600000000000018E-002     1.8999248743057251E-002
   9.6700000000000008E-002     2.3987846449017525E-002
   9.7800000000000026E-002     2.8745282441377640E-002
   9.8900000000000016E-002     3.3213648945093155E-002
  0.10000000000000001          3.7335298955440521E-002
  0.10110000000000002          4.1049845516681671E-002
  0.10220000000000001          4.4302929192781448E-002
  0.10330000000000003          4.7056168317794800E-002
  0.10440000000000002          4.9286838620901108E-002
  0.10550000000000001          5.0977312028408051E-002
  0.10660000000000003          5.2107967436313629E-002
  0.10770000000000002          5.2661895751953125E-002
  0.10880000000000001          5.2639137953519821E-002
  0.10990000000000003          5.2059266716241837E-002
  0.11100000000000002          5.0949133932590485E-002
  0.11210000000000001          4.9335252493619919E-002
  0.11320000000000002          4.7243710607290268E-002
  0.11430000000000001          4.4711515307426453E-002
  0.11540000000000003          4.1789773851633072E-002
  0.11650000000000002          3.8531396538019180E-002
  0.11760000000000001          3.4988574683666229E-002
  0.11870000000000003          3.1217079609632492E-002
  0.11980000000000002          2.7277916669845581E-002
  0.12090000000000001          2.3230608552694321E-002
  0.12200000000000003          1.9123917445540428E-002
  0.12310000000000001          1.5006951987743378E-002
  0.12420000000000003          1.0939477011561394E-002
  0.12530000000000002          6.9839004427194595E-003
  0.12640000000000001          3.1860922463238239E-003
  0.12750000000000003         -4.2857165681198239E-004
  0.12860000000000002         -3.8360957987606525E-003
  0.12970000000000001         -6.9997808896005154E-003
  0.13080000000000003         -9.8777227103710175E-003
  0.13190000000000002         -1.2445706874132156E-002
  0.13300000000000001         -1.4702683314681053E-002
  0.13410000000000000         -1.6652438789606094E-002
  0.13520000000000004         -1.8289072439074516E-002
  0.13630000000000003         -1.9603366032242775E-002
  0.13740000000000002         -2.0598927512764931E-002
  0.13850000000000001         -2.1293301135301590E-002
  0.13960000000000000         -2.1703967824578285E-002
  0.14070000000000005         -2.1842541173100471E-002
  0.14180000000000004         -2.1724758669734001E-002
  0.14290000000000003         -2.1377552300691605E-002
  0.14400000000000002         -2.0829208195209503E-002
  0.14510000000000001         -2.0097367465496063E-002
  0.14620000000000000         -1.9194632768630981E-002
  0.14730000000000004         -1.8144816160202026E-002
  0.14840000000000003         -1.6983889043331146E-002
  0.14950000000000002         -1.5741899609565735E-002
  0.15060000000000001         -1.4431263320147991E-002
  0.15170000000000000         -1.3058519922196865E-002
  0.15280000000000005         -1.1643446050584316E-002
  0.15390000000000004         -1.0217077098786831E-002
  0.15500000000000003         -8.8004143908619881E-003
  0.15610000000000002         -7.3961568996310234E-003
  0.15720000000000001         -6.0051712207496166E-003
  0.15830000000000000         -4.6433145180344582E-003
  0.15940000000000004         -3.3338810317218304E-003
  0.16050000000000003         -2.0865385886281729E-003
  0.16160000000000002         -8.9447112986817956E-004
  0.16270000000000001          2.4600085453130305E-004
  0.16380000000000000          1.3222348643466830E-003
  0.16490000000000005          2.3177599068731070E-003
  0.16600000000000004          3.2302925828844309E-003
  0.16710000000000003          4.0682111866772175E-003
  0.16820000000000002          4.8320968635380268E-003
  0.16930000000000001          5.5100400932133198E-003
  0.17040000000000000          6.0930610634386539E-003
  0.17150000000000004          6.5850610844790936E-003
  0.17260000000000003          6.9908937439322472E-003
  0.17370000000000002          7.3013724759221077E-003
  0.17480000000000001          7.5005590915679932E-003
  0.17590000000000000          7.5855269096791744E-003
  0.17700000000000005          7.5675421394407749E-003
  0.17810000000000004          7.4506076052784920E-003
  0.17920000000000003          7.2187604382634163E-003
  0.18030000000000002          6.8525299429893494E-003
  0.18140000000000001          6.3514183275401592E-003
  0.18250000000000000          5.7297474704682827E-003
  0.18360000000000004          4.9925716593861580E-003
  0.18470000000000003          4.1272738017141819E-003
  0.18580000000000002          3.1222584657371044E-003
  0.18690000000000001          1.9847969524562359E-003
  0.18800000000000000          7.3208159301429987E-004
  0.18910000000000005         -6.2937871553003788E-004
  0.19020000000000004         -2.1045994944870472E-003
  0.19130000000000003         -3.6891058553010225E-003
  0.19240000000000002         -5.3597502410411835E-003
  0.19350000000000001         -7.0921359583735466E-003
  0.19460000000000005         -8.8764252141118050E-003
  0.19570000000000004         -1.0707119479775429E-002
  0.19680000000000003         -1.2562341056764126E-002
  0.19790000000000002         -1.4405443333089352E-002
  0.19900000000000001         -1.6206270083785057E-002
  0.20010000000000000         -1.7949350178241730E-002
  0.20120000000000005         -1.9617630168795586E-002
  0.20230000000000004         -2.1177927032113075E-002
  0.20340000000000003         -2.2589972242712975E-002
  0.20450000000000002         -2.3826092481613159E-002
  0.20560000000000000         -2.4872252717614174E-002
  0.20670000000000005         -2.5708990171551704E-002
  0.20780000000000004         -2.6302263140678406E-002
  0.20890000000000003         -2.6619404554367065E-002
