 -0.12000000000000000          0.0000000000000000
 -0.11889999999999999          0.0000000000000000
 -0.11780000000000000          0.0000000000000000
 -0.11670000000000000          0.0000000000000000
 -0.11559999999999999          0.0000000000000000
 -0.11449999999999999          0.0000000000000000
 -0.11340000000000000          0.0000000000000000
 -0.11230000000000000          0.0000000000000000
 -0.11119999999999999         -4.1322755647785701E-023
 -0.11009999999999999          2.1174042748977882E-022
 -0.10900000000000000          3.3840610647978692E-022
 -0.10790000000000000         -3.1919976934271102E-021
 -0.10679999999999999         -2.4595755071931119E-021
 -0.10569999999999999          2.7823360507737614E-020
 -0.10460000000000000          2.6122011546429425E-020
 -0.10349999999999999         -1.7167844100323696E-019
 -0.10239999999999999         -2.5715538224595135E-019
 -0.10130000000000000          7.4125464148466770E-019
 -0.10020000000000000          1.8589525622973179E-018
  -9.9099999999999994E-002    -1.7697977951054337E-018
  -9.7999999999999990E-002    -9.5481284399067348E-018
  -9.6899999999999986E-002    -2.3307648031689891E-018
  -9.5799999999999996E-002     3.3285148970370345E-017
  -9.4699999999999993E-002     4.3579166848131459E-017
  -9.3599999999999989E-002    -6.3014235252485424E-017
  -9.2499999999999999E-002    -2.0800605291080595E-016
  -9.1399999999999995E-002    -5.0403913136228820E-017
  -9.0299999999999991E-002     5.3073046301925129E-016
  -8.9200000000000002E-002     7.6570576703794834E-016
  -8.8099999999999984E-002    -4.3524232129290587E-016
  -8.6999999999999994E-002    -2.3900197159500191E-015
  -8.5899999999999990E-002    -1.9493908474477271E-015
  -8.4799999999999986E-002     2.7732849721654081E-015
  -8.3699999999999997E-002     7.5284821982718984E-015
  -8.2599999999999993E-002     4.3198299145143053E-015
  -8.1499999999999989E-002    -7.9972700418309492E-015
  -8.0399999999999999E-002    -1.8157052467451806E-014
  -7.9299999999999995E-002    -1.3027929158648116E-014
  -7.8199999999999992E-002     7.5586018428433141E-015
  -7.7100000000000002E-002     3.2724199733455070E-014
  -7.5999999999999984E-002     5.1969723419446542E-014
  -7.4899999999999994E-002     4.7131674512637320E-014
  -7.3799999999999991E-002    -2.2096063992177103E-014
  -7.2699999999999987E-002    -1.7327808567342562E-013
  -7.1599999999999997E-002    -2.9815120641471515E-013
  -7.0499999999999993E-002    -1.6148321286928169E-013
  -6.9399999999999989E-002     3.5283915004145905E-013
  -6.8300000000000000E-002     9.3191036484863154E-013
  -6.7199999999999996E-002     9.1751953257279695E-013
  -6.6099999999999992E-002    -7.2037800800516666E-014
  -6.5000000000000002E-002    -1.5639351792773315E-012
  -6.3899999999999985E-002    -2.4554774446378103E-012
  -6.2799999999999995E-002    -1.9365453251402043E-012
  -6.1699999999999991E-002    -9.0351669559691344E-014
  -6.0599999999999994E-002     2.4414123066945903E-012
  -5.9499999999999990E-002     4.9988069239503830E-012
  -5.8399999999999994E-002     6.6478628157895514E-012
  -5.7299999999999990E-002     5.6404859082037628E-012
  -5.6199999999999986E-002     1.9966650945460462E-013
  -5.5099999999999996E-002    -9.2706736384839949E-012
  -5.3999999999999992E-002    -1.8935289100574515E-011
  -5.2899999999999989E-002    -2.3220628544984301E-011
  -5.1799999999999985E-002    -1.7981493030672091E-011
  -5.0699999999999995E-002    -1.9798182190888802E-012
  -4.9599999999999991E-002     2.3476750057871421E-011
  -4.8499999999999988E-002     5.3602237232164285E-011
  -4.7399999999999998E-002     7.7266089359984136E-011
  -4.6299999999999994E-002     7.7324105451914704E-011
  -4.5199999999999990E-002     3.8913431504861151E-011
  -4.4099999999999986E-002    -3.8352817449682775E-011
  -4.2999999999999997E-002    -1.3492909567425215E-010
  -4.1899999999999993E-002    -2.1769232250168358E-010
  -4.0799999999999989E-002    -2.5185559193730001E-010
  -3.9699999999999985E-002    -2.1002594108310291E-010
  -3.8599999999999995E-002    -7.8454819030238099E-011
  -3.7499999999999992E-002     1.3511936014509729E-010
  -3.6399999999999988E-002     3.9504668980505642E-010
  -3.5299999999999984E-002     6.4197547278155298E-010
  -3.4199999999999994E-002     8.0890266707100977E-010
  -3.3099999999999991E-002     8.3884987844839998E-010
  -3.1999999999999987E-002     6.9849331874038967E-010
  -3.0899999999999997E-002     3.9552261466013761E-010
  -2.9799999999999993E-002     1.6685184050374557E-012
  -2.8699999999999989E-002    -3.4263006321033629E-010
  -2.7599999999999986E-002    -4.7086440302379629E-010
  -2.6499999999999996E-002    -2.6797947194623362E-010
  -2.5399999999999992E-002     2.7370525290670855E-010
  -2.4299999999999988E-002     1.0588663279520460E-009
  -2.3199999999999985E-002     1.9248149740747067E-009
  -2.2099999999999995E-002     2.6511115525096329E-009
  -2.0999999999999991E-002     2.9409501500765600E-009
  -1.9899999999999987E-002     2.4368214113223985E-009
  -1.8799999999999983E-002     8.0754802844751339E-010
  -1.7699999999999994E-002    -2.1462716048858965E-009
  -1.6599999999999990E-002    -6.4552874157186579E-009
  -1.5499999999999986E-002    -1.2028871232416805E-008
  -1.4399999999999996E-002    -1.8728622208641355E-008
  -1.3299999999999992E-002    -2.6424157084647959E-008
  -1.2199999999999989E-002    -3.5052657665346487E-008
  -1.1099999999999985E-002    -4.4698019507904974E-008
  -9.9999999999999950E-003    -5.5653110564435337E-008
  -8.8999999999999913E-003    -6.8428569477418932E-008
  -7.7999999999999875E-003    -8.3746840573439840E-008
  -6.6999999999999837E-003    -1.0258047922206970E-007
  -5.5999999999999939E-003    -1.2618808398201509E-007
  -4.4999999999999901E-003    -1.5604437919591874E-007
  -3.3999999999999864E-003    -1.9367870152109390E-007
  -2.2999999999999826E-003    -2.4060446435214544E-007
  -1.1999999999999927E-003    -2.9845210747225792E-007
  -9.9999999999988987E-005    -3.6916597423441999E-007
   1.0000000000000148E-003    -4.5503497858589981E-007
   2.1000000000000185E-003    -5.5858447467471706E-007
   3.2000000000000084E-003    -6.8262255581430509E-007
   4.3000000000000121E-003    -8.3059308053634595E-007
   5.4000000000000159E-003    -1.0069549034597003E-006
   6.5000000000000058E-003    -1.2172100696261623E-006
   7.6000000000000234E-003    -1.4676023738502408E-006
   8.7000000000000133E-003    -1.7648892480792711E-006
   9.8000000000000032E-003    -2.1164871668588603E-006
   1.0900000000000021E-002    -2.5307863324997015E-006
   1.2000000000000011E-002    -3.0172382139426190E-006
   1.3100000000000001E-002    -3.5862306049239123E-006
   1.4200000000000018E-002    -4.2490155465202406E-006
   1.5300000000000008E-002    -5.0178646233689506E-006
   1.6400000000000026E-002    -5.9063772823719773E-006
   1.7500000000000016E-002    -6.9297007030399982E-006
   1.8600000000000005E-002    -8.1046919149230234E-006
   1.9700000000000023E-002    -9.4501301646232605E-006
   2.0800000000000013E-002    -1.0986302186211105E-005
   2.1900000000000003E-002    -1.2734200936392881E-005
   2.3000000000000020E-002    -1.4714906683366280E-005
   2.4100000000000010E-002    -1.6949936252785847E-005
   2.5200000000000000E-002    -1.9462213458609767E-005
   2.6300000000000018E-002    -2.2275922674452886E-005
   2.7400000000000008E-002    -2.5415438358322717E-005
   2.8500000000000025E-002    -2.8903907150379382E-005
   2.9600000000000015E-002    -3.2763011404313147E-005
   3.0700000000000005E-002    -3.7013818655395880E-005
   3.1800000000000023E-002    -4.1677340050227940E-005
   3.2900000000000013E-002    -4.6773464418947697E-005
   3.4000000000000002E-002    -5.2318679081508890E-005
   3.5100000000000020E-002    -5.8323999837739393E-005
   3.6200000000000010E-002    -6.4794869103934616E-005
   3.7300000000000028E-002    -7.1731788921169937E-005
   3.8400000000000017E-002    -7.9129917139653116E-005
   3.9500000000000007E-002    -8.6977590399328619E-005
   4.0600000000000025E-002    -9.5255090855062008E-005
   4.1700000000000015E-002    -1.0393299453426152E-004
   4.2800000000000005E-002    -1.1297034507151693E-004
   4.3900000000000022E-002    -1.2231577420607209E-004
   4.5000000000000012E-002    -1.3190713070798665E-004
   4.6100000000000002E-002    -1.4167204790282995E-004
   4.7200000000000020E-002    -1.5152605192270130E-004
   4.8300000000000010E-002    -1.6137053899001330E-004
   4.9400000000000027E-002    -1.7109098553191870E-004
   5.0500000000000017E-002    -1.8055873806588352E-004
   5.1600000000000007E-002    -1.8963559705298394E-004
   5.2700000000000025E-002    -1.9817501015495509E-004
   5.3800000000000014E-002    -2.0601859432645142E-004
   5.4900000000000004E-002    -2.1299523359630257E-004
   5.6000000000000022E-002    -2.1892384393140674E-004
   5.7100000000000012E-002    -2.2361609444487840E-004
   5.8200000000000002E-002    -2.2688473109155893E-004
   5.9300000000000019E-002    -2.2854311100672930E-004
   6.0400000000000009E-002    -2.2840776364319026E-004
   6.1500000000000027E-002    -2.2629590239375830E-004
   6.2600000000000017E-002    -2.2203088155947626E-004
   6.3700000000000007E-002    -2.1544727496802807E-004
   6.4800000000000024E-002    -2.0640071306843311E-004
   6.5900000000000014E-002    -1.9476794113870710E-004
   6.7000000000000004E-002    -1.8045010801870376E-004
   6.8100000000000022E-002    -1.6337583656422794E-004
   6.9200000000000012E-002    -1.4349627599585801E-004
   7.0300000000000029E-002    -1.2079546286258847E-004
   7.1400000000000019E-002    -9.5301686087623239E-005
   7.2500000000000009E-002    -6.7088934883940965E-005
   7.3600000000000027E-002    -3.6273970181355253E-005
   7.4700000000000016E-002    -3.0096191494521918E-006
   7.5800000000000006E-002     3.2513573387404904E-005
   7.6900000000000024E-002     7.0061912992969155E-005
   7.8000000000000014E-002     1.0935240425169468E-004
   7.9100000000000004E-002     1.5005370369181037E-004
   8.0200000000000021E-002     1.9179999071639031E-004
   8.1300000000000011E-002     2.3419348872266710E-004
   8.2400000000000029E-002     2.7681040228344500E-004
   8.3500000000000019E-002     3.1920190667733550E-004
   8.4600000000000009E-002     3.6089718923904002E-004
   8.5700000000000026E-002     4.0140561759471893E-004
   8.6800000000000016E-002     4.4022788642905653E-004
   8.7900000000000006E-002     4.7686835750937462E-004
   8.9000000000000024E-002     5.1084952428936958E-004
   9.0100000000000013E-002     5.4171809460967779E-004
   9.1200000000000003E-002     5.6904053781181574E-004
   9.2300000000000021E-002     5.9240276459604502E-004
   9.3400000000000011E-002     6.1142444610595703E-004
   9.4500000000000028E-002     6.2578188953921199E-004
   9.5600000000000018E-002     6.3521909760311246E-004
   9.6700000000000008E-002     6.3954078359529376E-004
   9.7800000000000026E-002     6.3860404770821333E-004
   9.8900000000000016E-002     6.3231954118236899E-004
  0.10000000000000001          6.2066968530416489E-004
  0.10110000000000002          6.0371862491592765E-004
  0.10220000000000001          5.8160617481917143E-004
  0.10330000000000003          5.5453804088756442E-004
  0.10440000000000002          5.2278093062341213E-004
  0.10550000000000001          4.8666202928870916E-004
  0.10660000000000003          4.4656457612290978E-004
  0.10770000000000002          4.0292041376233101E-004
  0.10880000000000001          3.5621298593468964E-004
  0.10990000000000003          3.0697023612447083E-004
  0.11100000000000002          2.5575043400749564E-004
  0.11210000000000001          2.0312429114710540E-004
  0.11320000000000002          1.4965738228056580E-004
  0.11430000000000001          9.5917457656469196E-005
  0.11540000000000003          4.2487012251513079E-005
  0.11650000000000002         -1.0057427061838098E-005
  0.11760000000000001         -6.1173850554041564E-005
  0.11870000000000003         -1.1036769137717783E-004
  0.11980000000000002         -1.5718534996267408E-004
  0.12090000000000001         -2.0120815315749496E-004
  0.12200000000000003         -2.4205459340009838E-004
  0.12310000000000001         -2.7940227300859988E-004
  0.12420000000000003         -3.1299097463488579E-004
  0.12530000000000002         -3.4262158442288637E-004
  0.12640000000000001         -3.6815332714468241E-004
  0.12750000000000003         -3.8950220914557576E-004
  0.12860000000000002         -4.0664229891262949E-004
  0.12970000000000001         -4.1960272938013077E-004
  0.13080000000000003         -4.2845768621191382E-004
  0.13190000000000002         -4.3333083158358932E-004
  0.13300000000000001         -4.3440010631456971E-004
  0.13410000000000000         -4.3189176358282566E-004
  0.13520000000000004         -4.2605775524862111E-004
  0.13630000000000003         -4.1716345003806055E-004
  0.13740000000000002         -4.0549348341301084E-004
  0.13850000000000001         -3.9136293344199657E-004
  0.13960000000000000         -3.7511024856939912E-004
  0.14070000000000005         -3.5707588540390134E-004
  0.14180000000000004         -3.3758455538190901E-004
  0.14290000000000003         -3.1695107463747263E-004
  0.14400000000000002         -2.9549156897701323E-004
  0.14510000000000001         -2.7351986500434577E-004
  0.14620000000000000         -2.5133095914497972E-004
  0.14730000000000004         -2.2919157345313579E-004
  0.14840000000000003         -2.0734778081532568E-004
  0.14950000000000002         -1.8602934142109007E-004
  0.15060000000000001         -1.6544378013350070E-004
  0.15170000000000000         -1.4576768444385380E-004
  0.15280000000000005         -1.2714958575088531E-004
  0.15390000000000004         -1.0972213931381702E-004
  0.15500000000000003         -9.3601156549993902E-005
  0.15610000000000002         -7.8876182669773698E-005
  0.15720000000000001         -6.5602725953795016E-005
  0.15830000000000000         -5.3812829719390720E-005
  0.15940000000000004         -4.3531385017558932E-005
  0.16050000000000003         -3.4774875530274585E-005
  0.16160000000000002         -2.7539435905055143E-005
  0.16270000000000001         -2.1795369320898317E-005
  0.16380000000000000         -1.7500278772786260E-005
  0.16490000000000005         -1.4610833204642404E-005
  0.16600000000000004         -1.3078108167974278E-005
  0.16710000000000003         -1.2837125723308418E-005
  0.16820000000000002         -1.3806701645080466E-005
  0.16930000000000001         -1.5903513485682197E-005
  0.17040000000000000         -1.9049244656343944E-005
  0.17150000000000004         -2.3161019271356054E-005
  0.17260000000000003         -2.8138194466009736E-005
  0.17370000000000002         -3.3867054298752919E-005
  0.17480000000000001         -4.0236533095594496E-005
  0.17590000000000000         -4.7144083509920165E-005
  0.17700000000000005         -5.4482516134157777E-005
  0.17810000000000004         -6.2128288845997304E-005
  0.17920000000000003         -6.9946159783285111E-005
  0.18030000000000002         -7.7802287705708295E-005
  0.18140000000000001         -8.5566614870913327E-005
  0.18250000000000000         -9.3103328254073858E-005
  0.18360000000000004         -1.0026648669736460E-004
  0.18470000000000003         -1.0690784984035417E-004
  0.18580000000000002         -1.1288355017313734E-004
  0.18690000000000001         -1.1804955283878371E-004
  0.18800000000000000         -1.2225253158248961E-004
  0.18910000000000005         -1.2533568951766938E-004
  0.19020000000000004         -1.2715328193735331E-004
  0.19130000000000003         -1.2757745571434498E-004
  0.19240000000000002         -1.2648619303945452E-004
  0.19350000000000001         -1.2375436199363321E-004
  0.19460000000000005         -1.1926102888537571E-004
  0.19570000000000004         -1.1291047849226743E-004
  0.19680000000000003         -1.0463540093041956E-004
  0.19790000000000002         -9.4387301942333579E-005
  0.19900000000000001         -8.2128593930974603E-005
  0.20010000000000000         -6.7841698182746768E-005
  0.20120000000000005         -5.1541344873839989E-005
  0.20230000000000004         -3.3276304748142138E-005
  0.20340000000000003         -1.3124074939696584E-005
  0.20450000000000002          8.8159476945293136E-006
  0.20560000000000000          3.2412113796453923E-005
  0.20670000000000005          5.7496425142744556E-005
  0.20780000000000004          8.3867038483731449E-005
  0.20890000000000003          1.1129739141324535E-004
