 -0.12000000000000000          0.0000000000000000     
 -0.11889999999999999          0.0000000000000000     
 -0.11780000000000000          0.0000000000000000     
 -0.11670000000000000          0.0000000000000000     
 -0.11559999999999999          0.0000000000000000     
 -0.11449999999999999          0.0000000000000000     
 -0.11340000000000000          2.0533348363684509E-018
 -0.11230000000000000         -9.6979957825181736E-019
 -0.11119999999999999         -2.4896549905431256E-017
 -0.11009999999999999          3.8447909082475137E-018
 -0.10900000000000000          1.6964713357299049E-016
 -0.10790000000000000          4.5645311817056212E-017
 -0.10679999999999999         -8.1148837429307610E-016
 -0.10569999999999999         -6.2107838530518398E-016
 -0.10460000000000000          2.8311618864183472E-015
 -0.10349999999999999          3.8672750338729096E-015
 -0.10239999999999999         -6.9812180226991576E-015
 -0.10130000000000000         -1.5927712572255323E-014
 -0.10020000000000000          1.0528586500086010E-014
  -9.9099999999999994E-002     4.8915044784840836E-014
  -9.7999999999999990E-002    -1.9305005833558577E-016
  -9.6899999999999986E-002    -1.2244425037690604E-013
  -9.5799999999999996E-002    -6.3902638877070400E-014
  -9.4699999999999993E-002     2.6441316584163710E-013
  -9.3599999999999989E-002     3.0360455360693706E-013
  -9.2499999999999999E-002    -4.5358842007924005E-013
  -9.1399999999999995E-002    -1.0170522193528320E-012
  -9.0299999999999991E-002     3.3441448937278351E-013
  -8.9200000000000002E-002     2.5192716836264228E-012
  -8.8099999999999984E-002     1.2114465246931827E-012
  -8.6999999999999994E-002    -4.2207574241226453E-012
  -8.5899999999999990E-002    -5.6304102005744205E-012
  -8.4799999999999986E-002     3.6200415495096783E-012
  -8.3699999999999997E-002     1.2731355032713498E-011
  -8.2599999999999993E-002     2.5865652935469496E-012
  -8.1499999999999989E-002    -1.9879743684558804E-011
  -8.0399999999999999E-002    -1.6754583831435355E-011
  -7.9299999999999995E-002     2.3728961504043689E-011
  -7.8199999999999992E-002     4.3523341181073150E-011
  -7.7100000000000002E-002    -1.4428728177529049E-011
  -7.5999999999999984E-002    -8.7705405438232020E-011
  -7.4899999999999994E-002    -3.8046024664062372E-011
  -7.3799999999999991E-002     1.2360082402018691E-010
  -7.2699999999999987E-002     1.6119605650288804E-010
  -7.1599999999999997E-002    -7.3054701177355241E-011
  -7.0499999999999993E-002    -3.0860186628345332E-010
  -6.9399999999999989E-002    -1.2512195446401364E-010
  -6.8300000000000000E-002     3.5897584904631685E-010
  -6.7199999999999996E-002     4.3188347342848488E-010
  -6.6099999999999992E-002    -2.1898753643778690E-010
  -6.5000000000000002E-002    -7.6476353028098742E-010
  -6.3899999999999985E-002    -1.9117839256121982E-010
  -6.2799999999999995E-002     9.9250596630184873E-010
  -6.1699999999999991E-002     9.8562502603982693E-010
  -6.0599999999999994E-002    -7.2366734826800894E-010
  -5.9499999999999990E-002    -1.9550792096367786E-009
  -5.8399999999999994E-002    -4.7684634019162786E-010
  -5.7299999999999990E-002     2.2874775407188963E-009
  -5.6199999999999986E-002     2.3349382427539922E-009
  -5.5099999999999996E-002    -1.2367675772395614E-009
  -5.3999999999999992E-002    -3.8300886906483811E-009
  -5.2899999999999989E-002    -1.1312205616675897E-009
  -5.1799999999999985E-002     3.9615857261310339E-009
  -5.0699999999999995E-002     4.0896366293452502E-009
  -4.9599999999999991E-002    -2.0810957401806718E-009
  -4.8499999999999988E-002    -6.4194258797556358E-009
  -4.7399999999999998E-002    -1.9149377639138265E-009
  -4.6299999999999994E-002     6.3437464170590374E-009
  -4.5199999999999990E-002     6.7492944566538426E-009
  -4.4099999999999986E-002    -2.4029231937561235E-009
  -4.2999999999999997E-002    -9.0707770183939829E-009
  -4.1899999999999993E-002    -3.7453378176621754E-009
  -4.0799999999999989E-002     6.4201159943877428E-009
  -3.9699999999999985E-002     7.1583605709690801E-009
  -3.8599999999999995E-002    -2.1857333720731731E-009
  -3.7499999999999992E-002    -7.3945978229517095E-009
  -3.6399999999999988E-002    -5.5751647742852128E-010
  -3.5299999999999984E-002     7.8185449225998127E-009
  -3.4199999999999994E-002     4.8935406837813389E-009
  -3.3099999999999991E-002    -4.5499168876972362E-009
  -3.1999999999999987E-002    -6.0348530617204688E-009
  -3.0899999999999997E-002     6.7660133051816729E-010
  -2.9799999999999993E-002     1.0910619074877559E-009
  -2.8699999999999989E-002    -7.9038118272478641E-009
  -2.7599999999999986E-002    -8.6079978700581705E-009
  -2.6499999999999996E-002     8.9774161438072042E-009
  -2.5399999999999992E-002     2.3486895983637623E-008
  -2.4299999999999988E-002     8.4766380581413614E-009
  -2.3199999999999985E-002    -2.2919797615372772E-008
  -2.2099999999999995E-002    -2.7290443682659316E-008
  -2.0999999999999991E-002     6.6427423561776777E-009
  -1.9899999999999987E-002     3.2295087493139363E-008
  -1.8799999999999983E-002     6.4477525540951319E-009
  -1.7699999999999994E-002    -4.2039481229494413E-008
  -1.6599999999999990E-002    -4.2477640960214558E-008
  -1.5499999999999986E-002     1.8308865534777397E-008
  -1.4399999999999996E-002     6.7634893241574900E-008
  -1.3299999999999992E-002     4.0117477340118057E-008
  -1.2199999999999989E-002    -3.2588143739076258E-008
  -1.1099999999999985E-002    -6.3768325730961806E-008
  -9.9999999999999950E-003    -2.7847184114193624E-008
  -8.8999999999999913E-003     1.2912693136968301E-008
  -7.7999999999999875E-003     3.3361475804127849E-009
  -6.6999999999999837E-003    -3.0300299158625421E-008
  -5.5999999999999939E-003    -3.1719924464823634E-008
  -4.4999999999999901E-003    -9.4449581489186585E-010
  -3.3999999999999864E-003     1.7852100242521374E-008
  -2.2999999999999826E-003     1.4615988419564019E-008
  -1.1999999999999927E-003     1.9496821934694708E-008
  -9.9999999999988987E-005     2.6099012728764137E-008
   1.0000000000000148E-003    -2.1569961816680916E-008
   2.1000000000000185E-003    -1.2725315912121005E-007
   3.2000000000000084E-003    -1.8458567296875117E-007
   4.3000000000000121E-003    -1.0078191792217694E-007
   5.4000000000000159E-003     5.0179504995639945E-008
   6.5000000000000058E-003     8.9964785843221762E-008
   7.6000000000000234E-003    -2.8183253064639757E-008
   8.7000000000000133E-003    -1.3590675962404930E-007
   9.8000000000000032E-003    -7.5932810261747363E-008
   1.0900000000000021E-002     7.0526951390093018E-008
   1.2000000000000011E-002     7.6773574164690217E-008
   1.3100000000000001E-002    -1.2437689633770788E-007
   1.4200000000000018E-002    -3.2820437922964629E-007
   1.5300000000000008E-002    -3.2585992926215113E-007
   1.6400000000000026E-002    -1.6437633121313411E-007
   1.7500000000000016E-002    -3.7617201797957023E-008
   1.8600000000000005E-002    -2.1368988356584850E-008
   1.9700000000000023E-002    -3.4050987807177080E-008
   2.0800000000000013E-002    -2.3687679373551873E-008
   2.1900000000000003E-002    -4.3479055022999091E-008
   2.3000000000000020E-002    -1.2186416142867529E-007
   2.4100000000000010E-002    -1.8206860374903044E-007
   2.5200000000000000E-002    -1.7827424869665265E-007
   2.6300000000000018E-002    -2.0064818784248928E-007
   2.7400000000000008E-002    -2.9579265969914559E-007
   2.8500000000000025E-002    -3.3762270845727471E-007
   2.9600000000000015E-002    -2.0131277267410042E-007
   3.0700000000000005E-002     3.3189174075687333E-008
   3.1800000000000023E-002     1.3595754921880143E-007
   3.2900000000000013E-002     6.8095040717253141E-008
   3.4000000000000002E-002    -3.6645751322339493E-008
   3.5100000000000020E-002    -3.9372731741593725E-009
   3.6200000000000010E-002     1.5295920263724838E-007
   3.7300000000000028E-002     2.1475628386724566E-007
   3.8400000000000017E-002     9.0697071186696121E-008
   3.9500000000000007E-002    -1.2009651584321546E-007
   4.0600000000000025E-002    -2.0906010433918709E-007
   4.1700000000000015E-002     8.7295667583475733E-008
   4.2800000000000005E-002     7.7835630918343668E-007
   4.3900000000000022E-002     1.1677933571263566E-006
   4.5000000000000012E-002     5.4169845498108771E-007
   4.6100000000000002E-002    -2.2434880975197302E-007
   4.7200000000000020E-002     1.7763019855010498E-007
   4.8300000000000010E-002     1.2247495533301844E-006
   4.9400000000000027E-002     1.8876144167734310E-006
   5.0500000000000017E-002     1.2530517778941430E-006
   5.1600000000000007E-002    -1.0813592155045626E-007
   5.2700000000000025E-002    -1.5641664674603817E-007
   5.3800000000000014E-002     1.0887106327572837E-006
   5.4900000000000004E-002     2.0266702449589502E-006
   5.6000000000000022E-002     1.3334960158317699E-006
   5.7100000000000012E-002     1.8526761236259404E-009
   5.8200000000000002E-002     1.9957357721978042E-007
   5.9300000000000019E-002     9.5698362656548852E-007
   6.0400000000000009E-002     9.4511108272854472E-007
   6.1500000000000027E-002     7.7787132113371626E-007
   6.2600000000000017E-002     9.1711712002506829E-007
   6.3700000000000007E-002     1.4500715224130545E-006
   6.4800000000000024E-002     1.3666416407431825E-006
   6.5900000000000014E-002    -4.2809980982383422E-007
   6.7000000000000004E-002    -1.7973059129872127E-006
   6.8100000000000022E-002    -3.5779052609541395E-007
   6.9200000000000012E-002     1.9799961137323407E-006
   7.0300000000000029E-002     1.8677460502658505E-006
   7.1400000000000019E-002    -1.6157574691533227E-006
   7.2500000000000009E-002    -4.4753796828445047E-006
   7.3600000000000027E-002    -2.5127505978161935E-006
   7.4700000000000016E-002     1.6777960354374954E-006
   7.5800000000000006E-002     2.8090346404496813E-006
   7.6900000000000024E-002    -1.0792703619699751E-007
   7.8000000000000014E-002    -3.9111587284423877E-006
   7.9100000000000004E-002    -5.1857437028957065E-006
   8.0200000000000021E-002    -3.7975828490743879E-006
   8.1300000000000011E-002    -1.3466370774040115E-006
   8.2400000000000029E-002     6.5091779788417625E-007
   8.3500000000000019E-002     8.3516050608523074E-007
   8.4600000000000009E-002    -1.2274541631995817E-006
   8.5700000000000026E-002    -4.5245055844134185E-006
   8.6800000000000016E-002    -5.8013770285469946E-006
   8.7900000000000006E-002    -2.6277600682078628E-006
   8.9000000000000024E-002     2.5449955955991754E-006
   9.0100000000000013E-002     4.0175254980567843E-006
   9.1200000000000003E-002    -9.0484002157609211E-007
   9.2300000000000021E-002    -7.2945872489071917E-006
   9.3400000000000011E-002    -7.6712785812560469E-006
   9.4500000000000028E-002    -1.0910563332799939E-006
   9.5600000000000018E-002     6.3431775743083563E-006
   9.6700000000000008E-002     6.9566585807478987E-006
   9.7800000000000026E-002     3.2931828286564269E-007
   9.8900000000000016E-002    -6.1140472098486498E-006
  0.10000000000000001         -6.3315628722193651E-006
  0.10110000000000002         -7.0671654839316034E-007
  0.10220000000000001          5.8578125390340574E-006
  0.10330000000000003          8.6959880718495697E-006
  0.10440000000000002          5.3217095228319522E-006
  0.10550000000000001         -2.7370417683414416E-006
  0.10660000000000003         -7.0657947617291939E-006
  0.10770000000000002         -1.8772240082398639E-006
  0.10880000000000001          7.7777040132787079E-006
  0.10990000000000003          1.1617271411523689E-005
  0.11100000000000002          4.9717186811903957E-006
  0.11210000000000001         -5.1294514378241729E-006
  0.11320000000000002         -8.6821237346157432E-006
  0.11430000000000001         -2.6770330805447884E-006
  0.11540000000000003          6.9069897108420264E-006
  0.11650000000000002          1.1370063475624193E-005
  0.11760000000000001          7.6418691605795175E-006
  0.11870000000000003         -7.8047162332950393E-007
  0.11980000000000002         -7.2946531872730702E-006
  0.12090000000000001         -7.0405017140728887E-006
  0.12200000000000003         -5.5379285868184525E-007
  0.12310000000000001          7.3189166869269684E-006
  0.12420000000000003          9.9337139545241371E-006
  0.12530000000000002          3.7567278923233971E-006
  0.12640000000000001         -6.8882450250384863E-006
  0.12750000000000003         -1.2044256436638534E-005
  0.12860000000000002         -5.5428536143153906E-006
  0.12970000000000001          6.8259673753345851E-006
  0.13080000000000003          1.2112527656427119E-005
  0.13190000000000002          5.1913707466155756E-006
  0.13300000000000001         -6.2888648244552314E-006
  0.13410000000000000         -1.1658352377708070E-005
  0.13520000000000004         -7.4989843596995343E-006
  0.13630000000000003          1.1019520798072335E-006
  0.13740000000000002          7.1980794018600136E-006
  0.13850000000000001          7.0642158789269160E-006
  0.13960000000000000          1.0618302894727094E-006
  0.14070000000000005         -6.6923475969815627E-006
  0.14180000000000004         -9.8821537903859280E-006
  0.14290000000000003         -4.9220452638110146E-006
  0.14400000000000002          4.5589990804728586E-006
  0.14510000000000001          9.6049252533703111E-006
  0.14620000000000000          5.0328035285929218E-006
  0.14730000000000004         -4.5036226765660103E-006
  0.14840000000000003         -1.0017693057307042E-005
  0.14950000000000002         -7.2921980063256342E-006
  0.15060000000000001          3.3278419664384273E-007
  0.15170000000000000          6.5493263718963135E-006
  0.15280000000000005          7.4281433626310900E-006
  0.15390000000000004          2.6990512651536847E-006
  0.15500000000000003         -4.5119641072233208E-006
  0.15610000000000002         -8.6691088654333726E-006
  0.15720000000000001         -5.1050319598289207E-006
  0.15830000000000000          4.3948198253929149E-006
  0.15940000000000004          1.0677085811039433E-005
  0.16050000000000003          6.5439940044598188E-006
  0.16160000000000002         -4.4247622099646833E-006
  0.16270000000000001         -1.1057742995035369E-005
  0.16380000000000000         -7.0481983129866421E-006
  0.16490000000000005          2.6217819595331093E-006
  0.16600000000000004          8.6038216977613047E-006
  0.16710000000000003          7.1536742325406522E-006
  0.16820000000000002          1.6133800500028883E-006
  0.16930000000000001         -3.5769082842307398E-006
  0.17040000000000000         -6.3368838709720876E-006
  0.17150000000000004         -5.0304151955060661E-006
  0.17260000000000003          1.1801794244092889E-006
  0.17370000000000002          8.0736235759104602E-006
  0.17480000000000001          7.6646538218483329E-006
  0.17590000000000000         -1.8707881963564432E-006
  0.17700000000000005         -1.0808592378452886E-005
  0.17810000000000004         -8.0734926086734049E-006
  0.17920000000000003          4.1102089198830072E-006
  0.18030000000000002          1.1717353118001483E-005
  0.18140000000000001          6.3350807977258228E-006
  0.18250000000000000         -4.5942392716824543E-006
  0.18360000000000004         -8.3123486547265202E-006
  0.18470000000000003         -2.9770146738883341E-006
  0.18580000000000002          2.4836942884576274E-006
  0.18690000000000001          2.5841682145255618E-006
  0.18800000000000000          1.1038657703466015E-006
  0.18910000000000005          1.6495358750034939E-006
  0.19020000000000004          1.1754112847484066E-006
  0.19130000000000003         -2.9161863039917080E-006
  0.19240000000000002         -5.6612857406435069E-006
  0.19350000000000001         -1.0614924121910008E-006
  0.19460000000000005          6.7211763052910101E-006
  0.19570000000000004          6.7181513259129133E-006
  0.19680000000000003         -2.9776449537166627E-006
  0.19790000000000002         -1.0058441148430575E-005
  0.19900000000000001         -4.2581282286846545E-006
  0.20010000000000000          7.0103319558256771E-006
  0.20120000000000005          8.7163580246851780E-006
  0.20230000000000004         -4.3965792428934947E-007
  0.20340000000000003         -7.1646463766228408E-006
  0.20450000000000002         -2.9827024263795465E-006
  0.20560000000000000          4.2599249354680069E-006
  0.20670000000000005          3.3454641652497230E-006
  0.20780000000000004         -3.0704961773153627E-006
  0.20890000000000003         -3.7058784982946236E-006
