 -0.12000000000000000          0.0000000000000000     
 -0.11889999999999999         -2.3804462398402393E-004
 -0.11780000000000000          1.6688909090589732E-004
 -0.11670000000000000          6.6972925560548902E-004
 -0.11559999999999999         -1.1048441228922457E-004
 -0.11449999999999999         -1.1875819182023406E-003
 -0.11340000000000000         -2.8042783378623426E-004
 -0.11230000000000000          1.4356311876326799E-003
 -0.11119999999999999          3.2772312988527119E-004
 -0.11009999999999999         -2.5303363800048828E-003
 -0.10900000000000000         -1.1085482547059655E-003
 -0.10790000000000000          5.0206361338496208E-003
 -0.10679999999999999          6.4050024375319481E-003
 -0.10569999999999999         -2.7467783074826002E-003
 -0.10460000000000000         -1.1950998567044735E-002
 -0.10349999999999999         -6.5400348976254463E-003
 -0.10239999999999999          8.9880032464861870E-003
 -0.10130000000000000          1.3437520712614059E-002
 -0.10020000000000000         -8.5764256073161960E-004
  -9.9099999999999994E-002    -1.4127862639725208E-002
  -9.7999999999999990E-002    -6.5306443721055984E-003
  -9.6899999999999986E-002     1.1461478658020496E-002
  -9.5799999999999996E-002     1.3230031356215477E-002
  -9.4699999999999993E-002    -4.0341480635106564E-003
  -9.3599999999999989E-002    -1.4631012454628944E-002
  -9.2499999999999999E-002    -3.7690037861466408E-003
  -9.1399999999999995E-002     9.6112620085477829E-003
  -9.0299999999999991E-002     3.2291109673678875E-003
  -8.9200000000000002E-002    -1.2479634955525398E-002
  -8.8099999999999984E-002    -1.1040860787034035E-002
  -8.6999999999999994E-002     6.2278299592435360E-003
  -8.5899999999999990E-002     1.0888456366956234E-002
  -8.4799999999999986E-002    -5.9583969414234161E-003
  -8.3699999999999997E-002    -1.6754129901528358E-002
  -8.2599999999999993E-002    -1.7533885547891259E-003
  -8.1499999999999989E-002     1.5199365094304085E-002
  -8.0399999999999999E-002     1.9376494456082582E-003
  -7.9299999999999995E-002    -2.7117192745208740E-002
  -7.8199999999999992E-002    -2.7603210881352425E-002
  -7.7100000000000002E-002     4.4783186167478561E-003
  -7.5999999999999984E-002     1.9044239073991776E-002
  -7.4899999999999994E-002    -1.4634957537055016E-002
  -7.3799999999999991E-002    -5.5820371955633163E-002
  -7.2699999999999987E-002    -4.7623552381992340E-002
  -7.1599999999999997E-002    -2.9548250604420900E-003
  -7.0499999999999993E-002     1.0166016407310963E-002
  -6.9399999999999989E-002    -3.2849531620740891E-002
  -6.8300000000000000E-002    -7.7495232224464417E-002
  -6.7199999999999996E-002    -7.1866549551486969E-002
  -6.6099999999999992E-002    -4.1785959154367447E-002
  -6.5000000000000002E-002    -4.6495899558067322E-002
  -6.3899999999999985E-002    -8.6979098618030548E-002
  -6.2799999999999995E-002   -0.11066696047782898     
  -6.1699999999999991E-002   -0.10123332589864731     
  -6.0599999999999994E-002   -0.10588069260120392     
  -5.9499999999999990E-002   -0.15351256728172302     
  -5.8399999999999994E-002   -0.19862218201160431     
  -5.7299999999999990E-002   -0.19040952622890472     
  -5.6199999999999986E-002   -0.16318483650684357     
  -5.5099999999999996E-002   -0.19614845514297485     
  -5.3999999999999992E-002   -0.29097953438758850     
  -5.2899999999999989E-002   -0.35718971490859985     
  -5.1799999999999985E-002   -0.34126746654510498     
  -5.0699999999999995E-002   -0.31019860506057739     
  -4.9599999999999991E-002   -0.35722157359123230     
  -4.8499999999999988E-002   -0.46517297625541687     
  -4.7399999999999998E-002   -0.53224718570709229     
  -4.6299999999999994E-002   -0.52325505018234253     
  -4.5199999999999990E-002   -0.51698631048202515     
  -4.4099999999999986E-002   -0.58169293403625488     
  -4.2999999999999997E-002   -0.67141121625900269     
  -4.1899999999999993E-002   -0.70264977216720581     
  -4.0799999999999989E-002   -0.68643730878829956     
  -3.9699999999999985E-002   -0.70701593160629272     
  -3.8599999999999995E-002   -0.78325116634368896     
  -3.7499999999999992E-002   -0.83285492658615112     
  -3.6399999999999988E-002   -0.80115568637847900     
  -3.5299999999999984E-002   -0.75005996227264404     
  -3.4199999999999994E-002   -0.76329636573791504     
  -3.3099999999999991E-002   -0.80955296754837036     
  -3.1999999999999987E-002   -0.78310626745223999     
  -3.0899999999999997E-002   -0.66532582044601440     
  -2.9799999999999993E-002   -0.55760067701339722     
  -2.8699999999999989E-002   -0.52421051263809204     
  -2.7599999999999986E-002   -0.48884010314941406     
  -2.6499999999999996E-002   -0.34414321184158325     
  -2.5399999999999992E-002   -0.11762953549623489     
  -2.4299999999999988E-002     7.0318140089511871E-002
  -2.3199999999999985E-002    0.18713603913784027     
  -2.2099999999999995E-002    0.33874681591987610     
  -2.0999999999999991E-002    0.60707849264144897     
  -1.9899999999999987E-002    0.93096143007278442     
  -1.8799999999999983E-002     1.1978746652603149     
  -1.7699999999999994E-002     1.4130647182464600     
  -1.6599999999999990E-002     1.6820684671401978     
  -1.5499999999999986E-002     2.0387637615203857     
  -1.4399999999999996E-002     2.3931965827941895     
  -1.3299999999999992E-002     2.6689715385437012     
  -1.2199999999999989E-002     2.9200739860534668     
  -1.1099999999999985E-002     3.2378396987915039     
  -9.9999999999999950E-003     3.5944004058837891     
  -8.8999999999999913E-003     3.8745200634002686     
  -7.7999999999999875E-003     4.0432362556457520     
  -6.6999999999999837E-003     4.1981401443481445     
  -5.5999999999999939E-003     4.4131159782409668     
  -4.4999999999999901E-003     4.6113696098327637     
  -3.3999999999999864E-003     4.6772370338439941     
  -2.2999999999999826E-003     4.6179723739624023     
  -1.1999999999999927E-003     4.5420145988464355     
  -9.9999999999988987E-005     4.4893279075622559     
   1.0000000000000148E-003     4.3676767349243164     
   2.1000000000000185E-003     4.0920057296752930     
   3.2000000000000084E-003     3.7087299823760986     
   4.3000000000000121E-003     3.3239974975585938     
   5.4000000000000159E-003     2.9397392272949219     
   6.5000000000000058E-003     2.4479351043701172     
   7.6000000000000234E-003     1.8063464164733887     
   8.7000000000000133E-003     1.1099590063095093     
   9.8000000000000032E-003    0.45132917165756226     
   1.0900000000000021E-002   -0.20720604062080383     
   1.2000000000000011E-002   -0.95845007896423340     
   1.3100000000000001E-002    -1.7987340688705444     
   1.4200000000000018E-002    -2.6205096244812012     
   1.5300000000000008E-002    -3.3692922592163086     
   1.6400000000000026E-002    -4.0987868309020996     
   1.7500000000000016E-002    -4.8665175437927246     
   1.8600000000000005E-002    -5.6211686134338379     
   1.9700000000000023E-002    -6.2680773735046387     
   2.0800000000000013E-002    -6.8026046752929688     
   2.1900000000000003E-002    -7.3000216484069824     
   2.3000000000000020E-002    -7.7854318618774414     
   2.4100000000000010E-002    -8.1719160079956055     
   2.5200000000000000E-002    -8.3834972381591797     
   2.6300000000000018E-002    -8.4535474777221680     
   2.7400000000000008E-002    -8.4702243804931641     
   2.8500000000000025E-002    -8.4352560043334961     
   2.9600000000000015E-002    -8.2721509933471680     
   3.0700000000000005E-002    -7.9460177421569824     
   3.1800000000000023E-002    -7.4991173744201660     
   3.2900000000000013E-002    -6.9954295158386230     
   3.4000000000000002E-002    -6.4329562187194824     
   3.5100000000000020E-002    -5.7579650878906250     
   3.6200000000000010E-002    -4.9779691696166992     
   3.7300000000000028E-002    -4.1614847183227539     
   3.8400000000000017E-002    -3.3398675918579102     
   3.9500000000000007E-002    -2.4838657379150391     
   4.0600000000000025E-002    -1.5625587701797485     
   4.1700000000000015E-002   -0.62109142541885376     
   4.2800000000000005E-002    0.28228050470352173     
   4.3900000000000022E-002     1.1241883039474487     
   4.5000000000000012E-002     1.9381210803985596     
   4.6100000000000002E-002     2.7364103794097900     
   4.7200000000000020E-002     3.4818065166473389     
   4.8300000000000010E-002     4.1426143646240234     
   4.9400000000000027E-002     4.7263822555541992     
   5.0500000000000017E-002     5.2333478927612305     
   5.1600000000000007E-002     5.6512975692749023     
   5.2700000000000025E-002     5.9720544815063477     
   5.3800000000000014E-002     6.1970267295837402     
   5.4900000000000004E-002     6.3420701026916504     
   5.6000000000000022E-002     6.4103946685791016     
   5.7100000000000012E-002     6.3944153785705566     
   5.8200000000000002E-002     6.2904105186462402     
   5.9300000000000019E-002     6.1068415641784668     
   6.0400000000000009E-002     5.8475456237792969     
   6.1500000000000027E-002     5.5223469734191895     
   6.2600000000000017E-002     5.1561098098754883     
   6.3700000000000007E-002     4.7729344367980957     
   6.4800000000000024E-002     4.3633222579956055     
   6.5900000000000014E-002     3.9000067710876465     
   6.7000000000000004E-002     3.3874900341033936     
   6.8100000000000022E-002     2.8765811920166016     
   6.9200000000000012E-002     2.4055697917938232     
   7.0300000000000029E-002     1.9565060138702393     
   7.1400000000000019E-002     1.4898254871368408     
   7.2500000000000009E-002     1.0146555900573730     
   7.3600000000000027E-002    0.58524775505065918     
   7.4700000000000016E-002    0.21806703507900238     
   7.5800000000000006E-002   -0.13058999180793762     
   7.6900000000000024E-002   -0.48933830857276917     
   7.8000000000000014E-002   -0.81393361091613770     
   7.9100000000000004E-002    -1.0439428091049194     
   8.0200000000000021E-002    -1.2025904655456543     
   8.1300000000000011E-002    -1.3724802732467651     
   8.2400000000000029E-002    -1.5730686187744141     
   8.3500000000000019E-002    -1.7256978750228882     
   8.4600000000000009E-002    -1.7679167985916138     
   8.5700000000000026E-002    -1.7512392997741699     
   8.6800000000000016E-002    -1.7686235904693604     
   8.7900000000000006E-002    -1.8198655843734741     
   8.9000000000000024E-002    -1.8128559589385986     
   9.0100000000000013E-002    -1.7169932126998901     
   9.1200000000000003E-002    -1.6149232387542725     
   9.2300000000000021E-002    -1.5769199132919312     
   9.3400000000000011E-002    -1.5481461286544800     
   9.4500000000000028E-002    -1.4321200847625732     
   9.5600000000000018E-002    -1.2513685226440430     
   9.6700000000000008E-002    -1.1287364959716797     
   9.7800000000000026E-002    -1.1021640300750732     
   9.8900000000000016E-002    -1.0610195398330688     
  0.10000000000000001        -0.91169619560241699     
  0.10110000000000002        -0.72238838672637939     
  0.10220000000000001        -0.62672036886215210     
  0.10330000000000003        -0.62223351001739502     
  0.10440000000000002        -0.57529246807098389     
  0.10550000000000001        -0.42841380834579468     
  0.10660000000000003        -0.29038906097412109     
  0.10770000000000002        -0.26777282357215881     
  0.10880000000000001        -0.29456624388694763     
  0.10990000000000003        -0.23243632912635803     
  0.11100000000000002         -8.7176762521266937E-002
  0.11210000000000001         -7.5034196488559246E-003
  0.11320000000000002         -5.7289324700832367E-002
  0.11430000000000001        -0.11047121137380600     
  0.11540000000000003         -3.9466157555580139E-002
  0.11650000000000002          8.9496083557605743E-002
  0.11760000000000001         0.11502231657505035     
  0.11870000000000003          2.7662133798003197E-002
  0.11980000000000002         -1.4760510064661503E-002
  0.12090000000000001          6.8532824516296387E-002
  0.12200000000000003         0.15749110281467438     
  0.12310000000000001         0.11975865811109543     
  0.12420000000000003          1.9648270681500435E-002
  0.12530000000000002          2.0642274990677834E-002
  0.12640000000000001         0.12845994532108307     
  0.12750000000000003         0.17647998034954071     
  0.12860000000000002          8.2481458783149719E-002
  0.12970000000000001         -1.8547851592302322E-002
  0.13080000000000003          2.3635957390069962E-002
  0.13190000000000002         0.14295540750026703     
  0.13300000000000001         0.15525320172309875     
  0.13410000000000000          3.7610586732625961E-002
  0.13520000000000004         -3.6472976207733154E-002
  0.13630000000000003          3.7131879478693008E-002
  0.13740000000000002         0.13605573773384094     
  0.13850000000000001         0.10181822627782822     
  0.13960000000000000         -1.5650989487767220E-002
  0.14070000000000005         -3.7291556596755981E-002
  0.14180000000000004          6.6014863550662994E-002
  0.14290000000000003         0.12841126322746277     
  0.14400000000000002          4.6513296663761139E-002
  0.14510000000000001         -5.8652549982070923E-002
  0.14620000000000000         -2.8529686853289604E-002
  0.14730000000000004          8.7725631892681122E-002
  0.14840000000000003         0.10867208242416382     
  0.14950000000000002         -2.2988644195720553E-004
  0.15060000000000001         -7.3727183043956757E-002
  0.15170000000000000         -2.1899829152971506E-003
  0.15280000000000005          9.9776029586791992E-002
  0.15390000000000004          7.1473546326160431E-002
  0.15500000000000003         -4.5094389468431473E-002
  0.15610000000000002         -7.0900253951549530E-002
  0.15720000000000001          3.3482111990451813E-002
  0.15830000000000000         0.10649719089269638     
  0.15940000000000004          3.4424927085638046E-002
  0.16050000000000003         -7.4232801795005798E-002
  0.16160000000000002         -5.5658869445323944E-002
  0.16270000000000001          5.9256378561258316E-002
  0.16380000000000000          9.4721280038356781E-002
  0.16490000000000005         -7.9634517896920443E-004
  0.16600000000000004         -7.9880259931087494E-002
  0.16710000000000003         -2.5292403995990753E-002
  0.16820000000000002          7.3296636343002319E-002
  0.16930000000000001          6.2894865870475769E-002
  0.17040000000000000         -3.6638826131820679E-002
  0.17150000000000004         -6.8434685468673706E-002
  0.17260000000000003          1.5764484182000160E-002
  0.17370000000000002          8.2809358835220337E-002
  0.17480000000000001          2.6983419433236122E-002
  0.17590000000000000         -6.6068567335605621E-002
  0.17700000000000005         -5.3153023123741150E-002
  0.17810000000000004          4.5506715774536133E-002
  0.17920000000000003          7.8527815639972687E-002
  0.18030000000000002         -3.7244092673063278E-003
  0.18140000000000001         -7.5085490942001343E-002
  0.18250000000000000         -2.8579883277416229E-002
  0.18360000000000004          6.2034893780946732E-002
  0.18470000000000003          5.9008978307247162E-002
  0.18580000000000002         -2.9695196077227592E-002
  0.18690000000000001         -6.7897967994213104E-002
  0.18800000000000000         -1.7004557885229588E-003
  0.18910000000000005          6.2559925019741058E-002
  0.19020000000000004          2.6235116645693779E-002
  0.19130000000000003         -5.2376806735992432E-002
  0.19240000000000002         -5.3084105253219604E-002
  0.19350000000000001          2.0954104140400887E-002
  0.19460000000000005          5.2717112004756927E-002
  0.19570000000000004         -6.2962877564132214E-003
  0.19680000000000003         -6.5007105469703674E-002
  0.19790000000000002         -3.6766711622476578E-002
  0.19900000000000001          2.9079264029860497E-002
  0.20010000000000000          2.7484674006700516E-002
  0.20120000000000005         -4.0558148175477982E-002
  0.20230000000000004         -7.3895961046218872E-002
  0.20340000000000003         -2.8918866068124771E-002
  0.20450000000000002          1.6976600512862206E-002
  0.20560000000000000         -1.2047952972352505E-002
  0.20670000000000005         -7.5556963682174683E-002
  0.20780000000000004         -8.3716772496700287E-002
  0.20890000000000003         -3.5755295306444168E-002
