 -0.12000000000000000          0.0000000000000000
 -0.11889999999999999          0.0000000000000000
 -0.11780000000000000          0.0000000000000000
 -0.11670000000000000          0.0000000000000000
 -0.11559999999999999          0.0000000000000000
 -0.11449999999999999          0.0000000000000000
 -0.11340000000000000          0.0000000000000000
 -0.11230000000000000          4.5173334915543855E-021
 -0.11119999999999999          2.6953383395904554E-021
 -0.11009999999999999         -3.9686148311642383E-020
 -0.10900000000000000         -4.3154532775948567E-020
 -0.10790000000000000          1.2673961825370042E-019
 -0.10679999999999999          1.1275675038395090E-019
 -0.10569999999999999         -2.9436460283678905E-019
 -0.10460000000000000          7.7179652784438657E-019
 -0.10349999999999999          3.4095613503514595E-018
 -0.10239999999999999         -2.6647571734607502E-018
 -0.10130000000000000         -2.4008300202614664E-017
 -0.10020000000000000         -2.3006908735613068E-017
  -9.9099999999999994E-002     5.9794438026845214E-017
  -9.7999999999999990E-002     1.6465776540652784E-016
  -9.6899999999999986E-002     6.5371812494824860E-017
  -9.5799999999999996E-002    -3.2096627411241083E-016
  -9.4699999999999993E-002    -5.9947491586458145E-016
  -9.3599999999999989E-002    -2.6554567599717041E-016
  -9.2499999999999999E-002     5.2617909029585791E-016
  -9.1399999999999995E-002     1.2265268951511580E-015
  -9.0299999999999991E-002     1.9775485519550650E-015
  -8.9200000000000002E-002     2.6896686324695421E-015
  -8.8099999999999984E-002     1.9473947878377427E-016
  -8.6999999999999994E-002    -9.5672506917644784E-015
  -8.5899999999999990E-002    -2.1019358061274800E-014
  -8.4799999999999986E-002    -1.4576915249951000E-014
  -8.3699999999999997E-002     2.3028618467983882E-014
  -8.2599999999999993E-002     6.8656241987170158E-014
  -8.1499999999999989E-002     7.0093887291622359E-014
  -8.0399999999999999E-002     1.8026813528514932E-015
  -7.9299999999999995E-002    -9.8447535930648589E-014
  -7.8199999999999992E-002    -1.7167478105328121E-013
  -7.7100000000000002E-002    -1.9459214513177503E-013
  -7.5999999999999984E-002    -1.4046683466991533E-013
  -7.4899999999999994E-002     9.1882779867675374E-014
  -7.3799999999999991E-002     5.6259548885870259E-013
  -7.2699999999999987E-002     1.0080226583997209E-012
  -7.1599999999999997E-002     8.3523872497145990E-013
  -7.0499999999999993E-002    -2.9889721882454812E-013
  -6.9399999999999989E-002    -1.8545852787515971E-012
  -6.8300000000000000E-002    -2.6645736398572817E-012
  -6.7199999999999996E-002    -2.0365252453163896E-012
  -6.6099999999999992E-002    -3.4666567576627227E-013
  -6.5000000000000002E-002     1.7393223363318389E-012
  -6.3899999999999985E-002     4.1749273309299451E-012
  -6.2799999999999995E-002     6.7709908860291712E-012
  -6.1699999999999991E-002     7.5979621899646688E-012
  -6.0599999999999994E-002     3.6871313294217778E-012
  -5.9499999999999990E-002    -5.3345947451099995E-012
  -5.8399999999999994E-002    -1.5047066023732292E-011
  -5.7299999999999990E-002    -1.9570286363679301E-011
  -5.6199999999999986E-002    -1.7235563670725540E-011
  -5.5099999999999996E-002    -1.0806295962229040E-011
  -5.3999999999999992E-002    -1.1947521964816854E-012
  -5.2899999999999989E-002     1.5830900826352412E-011
  -5.1799999999999985E-002     4.2452201476361751E-011
  -5.0699999999999995E-002     6.8811366327192758E-011
  -4.9599999999999991E-002     7.5453851500206781E-011
  -4.8499999999999988E-002     4.9080958047786893E-011
  -4.7399999999999998E-002    -6.5035741549090975E-012
  -4.6299999999999994E-002    -7.7458955916043237E-011
  -4.5199999999999990E-002    -1.5275553044702406E-010
  -4.4099999999999986E-002    -2.2125655474436456E-010
  -4.2999999999999997E-002    -2.5614360632530975E-010
  -4.1899999999999993E-002    -2.1505952574329967E-010
  -4.0799999999999989E-002    -6.9064906571547624E-011
  -3.9699999999999985E-002     1.6694903792746629E-010
  -3.8599999999999995E-002     4.3755207790319162E-010
  -3.7499999999999992E-002     6.7744632126220949E-010
  -3.6399999999999988E-002     8.2886358887535039E-010
  -3.5299999999999984E-002     8.2946916002413218E-010
  -3.4199999999999994E-002     6.0446847527373393E-010
  -3.3099999999999991E-002     9.7095310958028591E-011
  -3.1999999999999987E-002    -6.8152133936294490E-010
  -3.0899999999999997E-002    -1.6310355288595701E-009
  -2.9799999999999993E-002    -2.5782616042135942E-009
  -2.8699999999999989E-002    -3.2951079642629111E-009
  -2.7599999999999986E-002    -3.5026763711698550E-009
  -2.6499999999999996E-002    -2.8971751664386147E-009
  -2.5399999999999992E-002    -1.2209852018330025E-009
  -2.4299999999999988E-002     1.6695327342830524E-009
  -2.3199999999999985E-002     5.8055018570257744E-009
  -2.2099999999999995E-002     1.1159291268825200E-008
  -2.0999999999999991E-002     1.7666964780005401E-008
  -1.9899999999999987E-002     2.5200602493669066E-008
  -1.8799999999999983E-002     3.3585816794357015E-008
  -1.7699999999999994E-002     4.2738847128021007E-008
  -1.6599999999999990E-002     5.2839968844864416E-008
  -1.5499999999999986E-002     6.4385183407011937E-008
  -1.4399999999999996E-002     7.8097322386838641E-008
  -1.3299999999999992E-002     9.4849326615076279E-008
  -1.2199999999999989E-002     1.1570806890404128E-007
  -1.1099999999999985E-002     1.4199845566054137E-007
  -9.9999999999999950E-003     1.7523103679195629E-007
  -8.8999999999999913E-003     2.1693166729619406E-007
  -7.7999999999999875E-003     2.6858700152843085E-007
  -6.6999999999999837E-003     3.3180495506712759E-007
  -5.5999999999999939E-003     4.0853211658031796E-007
  -4.4999999999999901E-003     5.0113561655962258E-007
  -3.3999999999999864E-003     6.1238182524903095E-007
  -2.2999999999999826E-003     7.4549853934513521E-007
  -1.1999999999999927E-003     9.0435338506722474E-007
  -9.9999999999988987E-005     1.0935970067293965E-006
   1.0000000000000148E-003     1.3186792102715117E-006
   2.1000000000000185E-003     1.5858504411880858E-006
   3.2000000000000084E-003     1.9022546666747076E-006
   4.3000000000000121E-003     2.2760309548175428E-006
   5.4000000000000159E-003     2.7162566311744740E-006
   6.5000000000000058E-003     3.2328580346074887E-006
   7.6000000000000234E-003     3.8367265915439930E-006
   8.7000000000000133E-003     4.5400688577501569E-006
   9.8000000000000032E-003     5.3566204769595060E-006
   1.0900000000000021E-002     6.3014990701049101E-006
   1.2000000000000011E-002     7.3909513957914896E-006
   1.3100000000000001E-002     8.6424170149257407E-006
   1.4200000000000018E-002     1.0074977581098210E-005
   1.5300000000000008E-002     1.1709556019923184E-005
   1.6400000000000026E-002     1.3568729627877474E-005
   1.7500000000000016E-002     1.5676212569815107E-005
   1.8600000000000005E-002     1.8056533008348197E-005
   1.9700000000000023E-002     2.0735049474751577E-005
   2.0800000000000013E-002     2.3737768060527742E-005
   2.1900000000000003E-002     2.7090878575108945E-005
   2.3000000000000020E-002     3.0820137908449396E-005
   2.4100000000000010E-002     3.4950622648466378E-005
   2.5200000000000000E-002     3.9506470784544945E-005
   2.6300000000000018E-002     4.4510321458801627E-005
   2.7400000000000008E-002     4.9982521886704490E-005
   2.8500000000000025E-002     5.5940497986739501E-005
   2.9600000000000015E-002     6.2398066802415997E-005
   3.0700000000000005E-002     6.9364483351819217E-005
   3.1800000000000023E-002     7.6842967246193439E-005
   3.2900000000000013E-002     8.4829764091409743E-005
   3.4000000000000002E-002     9.3312708486337215E-005
   3.5100000000000020E-002     1.0227106395177543E-004
   3.6200000000000010E-002     1.1167417687829584E-004
   3.7300000000000028E-002     1.2148066889494658E-004
   3.8400000000000017E-002     1.3163704716134816E-004
   3.9500000000000007E-002     1.4207705680746585E-004
   4.0600000000000025E-002     1.5272182645276189E-004
   4.1700000000000015E-002     1.6347879136446863E-004
   4.2800000000000005E-002     1.7424227553419769E-004
   4.3900000000000022E-002     1.8489149806555361E-004
   4.5000000000000012E-002     1.9529044220689684E-004
   4.6100000000000002E-002     2.0528871391434222E-004
   4.7200000000000020E-002     2.1472308435477316E-004
   4.8300000000000010E-002     2.2342015290632844E-004
   4.9400000000000027E-002     2.3119275283534080E-004
   5.0500000000000017E-002     2.3784470977261662E-004
   5.1600000000000007E-002     2.4317402858287096E-004
   5.2700000000000025E-002     2.4697539629414678E-004
   5.3800000000000014E-002     2.4904226302169263E-004
   5.4900000000000004E-002     2.4916653637774289E-004
   5.6000000000000022E-002     2.4714533356018364E-004
   5.7100000000000012E-002     2.4278825731016695E-004
   5.8200000000000002E-002     2.3591921490151435E-004
   5.9300000000000019E-002     2.2637739311903715E-004
   6.0400000000000009E-002     2.1402112906798720E-004
   6.1500000000000027E-002     1.9873394921887666E-004
   6.2600000000000017E-002     1.8043132149614394E-004
   6.3700000000000007E-002     1.5906285261735320E-004
   6.4800000000000024E-002     1.3461922935675830E-004
   6.5900000000000014E-002     1.0712750372476876E-004
   6.7000000000000004E-002     7.6657786848954856E-005
   6.8100000000000022E-002     4.3327439925633371E-005
   6.9200000000000012E-002     7.2997745519387536E-006
   7.0300000000000029E-002    -3.1213359761750326E-005
   7.1400000000000019E-002    -7.1952024882193655E-005
   7.2500000000000009E-002    -1.1460640234872699E-004
   7.3600000000000027E-002    -1.5882069419603795E-004
   7.4700000000000016E-002    -2.0420107466634363E-004
   7.5800000000000006E-002    -2.5031750556081533E-004
   7.6900000000000024E-002    -2.9670848743990064E-004
   7.8000000000000014E-002    -3.4287857124581933E-004
   7.9100000000000004E-002    -3.8830772973597050E-004
   8.0200000000000021E-002    -4.3246219865977764E-004
   8.1300000000000011E-002    -4.7480841749347746E-004
   8.2400000000000029E-002    -5.1481387345120311E-004
   8.3500000000000019E-002    -5.5195519234985113E-004
   8.4600000000000009E-002    -5.8572535635903478E-004
   8.5700000000000026E-002    -6.1564141651615500E-004
   8.6800000000000016E-002    -6.4125651260837913E-004
   8.7900000000000006E-002    -6.6217064158990979E-004
   8.9000000000000024E-002    -6.7803979618474841E-004
   9.0100000000000013E-002    -6.8857916630804539E-004
   9.1200000000000003E-002    -6.9356302265077829E-004
   9.2300000000000021E-002    -6.9283012999221683E-004
   9.3400000000000011E-002    -6.8629044108092785E-004
   9.4500000000000028E-002    -6.7393429344519973E-004
   9.5600000000000018E-002    -6.5583368996158242E-004
   9.6700000000000008E-002    -6.3213758403435349E-004
   9.7800000000000026E-002    -6.0306303203105927E-004
   9.8900000000000016E-002    -5.6889513507485390E-004
  0.10000000000000001         -5.2998628234490752E-004
  0.10110000000000002         -4.8675652942620218E-004
  0.10220000000000001         -4.3968300451524556E-004
  0.10330000000000003         -3.8929362199269235E-004
  0.10440000000000002         -3.3615424763411283E-004
  0.10550000000000001         -2.8085827943868935E-004
  0.10660000000000003         -2.2401016030926257E-004
  0.10770000000000002         -1.6622926341369748E-004
  0.10880000000000001         -1.0815117275342345E-004
  0.10990000000000003         -5.0409456889610738E-005
  0.11100000000000002          6.3869174482533708E-006
  0.11210000000000001          6.1671060393564403E-005
  0.11320000000000002          1.1491257464513183E-004
  0.11430000000000001          1.6560900257900357E-004
  0.11540000000000003          2.1329194714780897E-004
  0.11650000000000002          2.5755329988896847E-004
  0.11760000000000001          2.9805241501890123E-004
  0.11870000000000003          3.3451680792495608E-004
  0.11980000000000002          3.6673099384643137E-004
  0.12090000000000001          3.9453647332265973E-004
  0.12200000000000003          4.1783868800848722E-004
  0.12310000000000001          4.3660347000695765E-004
  0.12420000000000003          4.5085736201144755E-004
  0.12530000000000002          4.6068313531577587E-004
  0.12640000000000001          4.6622482477687299E-004
  0.12750000000000003          4.6767690218985081E-004
  0.12860000000000002          4.6526695950888097E-004
  0.12970000000000001          4.5924459118396044E-004
  0.13080000000000003          4.4988916488364339E-004
  0.13190000000000002          4.3752131750807166E-004
  0.13300000000000001          4.2249128455296159E-004
  0.13410000000000000          4.0515637374483049E-004
  0.13520000000000004          3.8585969014093280E-004
  0.13630000000000003          3.6493843072094023E-004
  0.13740000000000002          3.4273910569027066E-004
  0.13850000000000001          3.1961148488335311E-004
  0.13960000000000000          2.9588656616397202E-004
  0.14070000000000005          2.7186732040718198E-004
  0.14180000000000004          2.4783733533695340E-004
  0.14290000000000003          2.2406660718843341E-004
  0.14400000000000002          2.0080081594642252E-004
  0.14510000000000001          1.7825161921791732E-004
  0.14620000000000000          1.5660250210203230E-004
  0.14730000000000004          1.3602206308860332E-004
  0.14840000000000003          1.1666203499771655E-004
  0.14950000000000002          9.8640543001238257E-005
  0.15060000000000001          8.2038379332516342E-005
  0.15170000000000000          6.6913176851812750E-005
  0.15280000000000005          5.3317442507250234E-005
  0.15390000000000004          4.1288280044682324E-005
  0.15500000000000003          3.0832539778202772E-005
  0.15610000000000002          2.1932661184109747E-005
  0.15720000000000001          1.4567179277946707E-005
  0.15830000000000000          8.7156522567966022E-006
  0.15940000000000004          4.3418417590146419E-006
  0.16050000000000003          1.3817054878018098E-006
  0.16160000000000002         -2.3978535068636120E-007
  0.16270000000000001         -5.8564603477861965E-007
  0.16380000000000000          2.8974304200346523E-007
  0.16490000000000005          2.3170155145635363E-006
  0.16600000000000004          5.4015936257201247E-006
  0.16710000000000003          9.4430861281580292E-006
  0.16820000000000002          1.4355253370013088E-005
  0.16930000000000001          2.0059032976860180E-005
  0.17040000000000000          2.6463721951586194E-005
  0.17150000000000004          3.3464140869909897E-005
  0.17260000000000003          4.0956289012683555E-005
  0.17370000000000002          4.8842583055375144E-005
  0.17480000000000001          5.7015764468815178E-005
  0.17590000000000000          6.5349544456694275E-005
  0.17700000000000005          7.3714494646992534E-005
  0.17810000000000004          8.1997422967106104E-005
  0.17920000000000003          9.0092209575232118E-005
  0.18030000000000002          9.7871175967156887E-005
  0.18140000000000001          1.0517927148612216E-004
  0.18250000000000000          1.1186103074578568E-004
  0.18360000000000004          1.1778428597608581E-004
  0.18470000000000003          1.2282720126677305E-004
  0.18580000000000002          1.2685127148870379E-004
  0.18690000000000001          1.2970114767085761E-004
  0.18800000000000000          1.3123055396135896E-004
  0.18910000000000005          1.3131617743056267E-004
  0.19020000000000004          1.2984154454898089E-004
  0.19130000000000003          1.2668331328313798E-004
  0.19240000000000002          1.2172663264209405E-004
  0.19350000000000001          1.1488902964629233E-004
  0.19460000000000005          1.0611808829708025E-004
  0.19570000000000004          9.5363990112673491E-005
  0.19680000000000003          8.2576982094906271E-005
  0.19790000000000002          6.7736218625213951E-005
  0.19900000000000001          5.0874681619461626E-005
  0.20010000000000000          3.2063057005871087E-005
  0.20120000000000005          1.1380530850146897E-005
  0.20230000000000004         -1.1083343451900873E-005
  0.20340000000000003         -3.5198558180127293E-005
  0.20450000000000002         -6.0782931541325524E-005
  0.20560000000000000         -8.7625005107838660E-005
  0.20670000000000005         -1.1550408089533448E-004
  0.20780000000000004         -1.4417927013710141E-004
  0.20890000000000003         -1.7336690507363528E-004
