 -0.12000000000000000          0.0000000000000000     
 -0.11889999999999999          0.0000000000000000     
 -0.11780000000000000          0.0000000000000000     
 -0.11670000000000000          0.0000000000000000     
 -0.11559999999999999          0.0000000000000000     
 -0.11449999999999999          0.0000000000000000     
 -0.11340000000000000          0.0000000000000000     
 -0.11230000000000000          0.0000000000000000     
 -0.11119999999999999          0.0000000000000000     
 -0.11009999999999999          3.0857417645648911E-023
 -0.10900000000000000         -7.2832845251978269E-023
 -0.10790000000000000         -3.3679736034766436E-022
 -0.10679999999999999          7.7662076271075982E-022
 -0.10569999999999999          1.4778134981853198E-021
 -0.10460000000000000         -5.6147198405606055E-021
 -0.10349999999999999          6.7156857248103563E-022
 -0.10239999999999999          4.8673132856081447E-020
 -0.10130000000000000         -2.2515874045151886E-020
 -0.10020000000000000         -3.7965354143590663E-019
  -9.9099999999999994E-002    -1.6203540206664104E-019
  -9.7999999999999990E-002     1.8783447777828579E-018
  -9.6899999999999986E-002     2.7584709465987204E-018
  -9.5799999999999996E-002    -4.4321019644596579E-018
  -9.4699999999999993E-002    -1.4623496093114687E-017
  -9.3599999999999989E-002    -3.3449653687511216E-018
  -9.2499999999999999E-002     3.3459174536361701E-017
  -9.1399999999999995E-002     4.4104747483180302E-017
  -9.0299999999999991E-002    -1.9385136887448120E-018
  -8.9200000000000002E-002    -3.4530750623977196E-017
  -8.8099999999999984E-002    -6.5654807525991502E-017
  -8.6999999999999994E-002    -3.3589835324176088E-016
  -8.5899999999999990E-002    -6.4503178883926595E-016
  -8.4799999999999986E-002     3.8211239143461670E-016
  -8.3699999999999997E-002     3.4048321023635040E-015
  -8.2599999999999993E-002     4.5138343407534302E-015
  -8.1499999999999989E-002    -2.8273775549682518E-015
  -8.0399999999999999E-002    -1.6171398868982702E-014
  -7.9299999999999995E-002    -1.7949639509657646E-014
  -7.8199999999999992E-002     6.2026888650540488E-015
  -7.7100000000000002E-002     4.1694082133234348E-014
  -7.5999999999999984E-002     5.5829252760533285E-014
  -7.4899999999999994E-002     3.6629848324453915E-014
  -7.3799999999999991E-002    -1.5963564088780809E-014
  -7.2699999999999987E-002    -1.4093771722595294E-013
  -7.1599999999999997E-002    -3.4644761560433113E-013
  -7.0499999999999993E-002    -3.9029394408203466E-013
  -6.9399999999999989E-002     1.8165823663027214E-013
  -6.8300000000000000E-002     1.3687179644880643E-012
  -6.7199999999999996E-002     2.0527626907324015E-012
  -6.6099999999999992E-002     6.8051933446028334E-013
  -6.5000000000000002E-002    -2.7490206291891361E-012
  -6.3899999999999985E-002    -5.7708425711677780E-012
  -6.2799999999999995E-002    -5.3988215807654338E-012
  -6.1699999999999991E-002    -7.1737689573414531E-013
  -6.0599999999999994E-002     7.3710421447104046E-012
  -5.9499999999999990E-002     1.7409478372809595E-011
  -5.8399999999999994E-002     2.4231588957590589E-011
  -5.7299999999999990E-002     1.4613537810403976E-011
  -5.6199999999999986E-002    -2.4007552890115136E-011
  -5.5099999999999996E-002    -7.9050238577238474E-011
  -5.3999999999999992E-002    -1.0129305033634850E-010
  -5.2899999999999989E-002    -3.9215585639906791E-011
  -5.1799999999999985E-002     1.0025675428737557E-010
  -5.0699999999999995E-002     2.3473414878516508E-010
  -4.9599999999999991E-002     2.6499333283247495E-010
  -4.8499999999999988E-002     1.4338821796577861E-010
  -4.7399999999999998E-002    -1.2380267644385157E-010
  -4.6299999999999994E-002    -4.9513632083275638E-010
  -4.5199999999999990E-002    -8.3096435288254611E-010
  -4.4099999999999986E-002    -8.1617973490821782E-010
  -4.2999999999999997E-002    -1.1681026979015741E-010
  -4.1899999999999993E-002     1.1890177731288532E-009
  -4.0799999999999989E-002     2.3552599870413360E-009
  -3.9699999999999985E-002     2.3885105004950447E-009
  -3.8599999999999995E-002     9.0731355761874966E-010
  -3.7499999999999992E-002    -1.4864145470028234E-009
  -3.6399999999999988E-002    -3.7702898580960209E-009
  -3.5299999999999984E-002    -5.2044653031657617E-009
  -3.4199999999999994E-002    -5.1931166034080434E-009
  -3.3099999999999991E-002    -2.7850193262679568E-009
  -3.1999999999999987E-002     2.6961621824028725E-009
  -3.0899999999999997E-002     9.9178620871498424E-009
  -2.9799999999999993E-002     1.5088611249325368E-008
  -2.8699999999999989E-002     1.4443729767776858E-008
  -2.7599999999999986E-002     7.3757222551762425E-009
  -2.6499999999999996E-002    -3.7762601934332451E-009
  -2.5399999999999992E-002    -1.7016855480278537E-008
  -2.4299999999999988E-002    -3.1705347680599516E-008
  -2.3199999999999985E-002    -4.4357157946706138E-008
  -2.2099999999999995E-002    -4.4889823413996055E-008
  -2.0999999999999991E-002    -2.1512741810170155E-008
  -1.9899999999999987E-002     2.7440561822800191E-008
  -1.8799999999999983E-002     8.7186805330929928E-008
  -1.7699999999999994E-002     1.3360532591377705E-007
  -1.6599999999999990E-002     1.4569201312042424E-007
  -1.5499999999999986E-002     1.0985508680505518E-007
  -1.4399999999999996E-002     1.7211652547644007E-008
  -1.3299999999999992E-002    -1.3115644037497987E-007
  -1.2199999999999989E-002    -3.0690705443703337E-007
  -1.1099999999999985E-002    -4.4523557107822853E-007
  -9.9999999999999950E-003    -4.6516689167219738E-007
  -8.8999999999999913E-003    -3.1038530323712621E-007
  -7.7999999999999875E-003     2.2160127954862219E-008
  -6.6999999999999837E-003     4.8161666654777946E-007
  -5.5999999999999939E-003     9.7150234523724066E-007
  -4.4999999999999901E-003     1.3475992091116495E-006
  -3.3999999999999864E-003     1.4241874168874347E-006
  -2.2999999999999826E-003     1.0254402695863973E-006
  -1.1999999999999927E-003     7.8982857587561739E-008
  -9.9999999999988987E-005    -1.3044934803474462E-006
   1.0000000000000148E-003    -2.8183490030642133E-006
   2.1000000000000185E-003    -4.0130398701876402E-006
   3.2000000000000084E-003    -4.3845589061675128E-006
   4.3000000000000121E-003    -3.4929419143736595E-006
   5.4000000000000159E-003    -1.1235275678700418E-006
   6.5000000000000058E-003     2.5420422389288433E-006
   7.6000000000000234E-003     6.8368594838830177E-006
   8.7000000000000133E-003     1.0675206794985570E-005
   9.8000000000000032E-003     1.2760759091179352E-005
   1.0900000000000021E-002     1.1874900337716099E-005
   1.2000000000000011E-002     7.2138795985665638E-006
   1.3100000000000001E-002    -1.2404079825500958E-006
   1.4200000000000018E-002    -1.2412245268933475E-005
   1.5300000000000008E-002    -2.4070219296845607E-005
   1.6400000000000026E-002    -3.3140331652248278E-005
   1.7500000000000016E-002    -3.6343961255624890E-005
   1.8600000000000005E-002    -3.0997587600722909E-005
   1.9700000000000023E-002    -1.5852578144404106E-005
   2.0800000000000013E-002     8.1076295828097500E-006
   2.1900000000000003E-002     3.7124103982932866E-005
   2.3000000000000020E-002     6.4734260377008468E-005
   2.4100000000000010E-002     8.2742852100636810E-005
   2.5200000000000000E-002     8.2977850979659706E-005
   2.6300000000000018E-002     5.9419602621346712E-005
   2.7400000000000008E-002     1.0227852726529818E-005
   2.8500000000000025E-002    -6.0659913287963718E-005
   2.9600000000000015E-002    -1.4273382839746773E-004
   3.0700000000000005E-002    -2.1939544240012765E-004
   3.1800000000000023E-002    -2.7010621852241457E-004
   3.2900000000000013E-002    -2.7402749401517212E-004
   3.4000000000000002E-002    -2.1444982849061489E-004
   3.5100000000000020E-002    -8.2997044955845922E-005
   3.6200000000000010E-002     1.1721638293238357E-004
   3.7300000000000028E-002     3.7045209319330752E-004
   3.8400000000000017E-002     6.4985622884705663E-004
   3.9500000000000007E-002     9.2156702885404229E-004
   4.0600000000000025E-002     1.1513473000377417E-003
   4.1700000000000015E-002     1.3119395589455962E-003
   4.2800000000000005E-002     1.3897506287321448E-003
   4.3900000000000022E-002     1.3899520272389054E-003
   4.5000000000000012E-002     1.3388383667916059E-003
   4.6100000000000002E-002     1.2821600539609790E-003
   4.7200000000000020E-002     1.2800104450434446E-003
   4.8300000000000010E-002     1.3989674625918269E-003
   4.9400000000000027E-002     1.7024358967319131E-003
   5.0500000000000017E-002     2.2407802753150463E-003
   5.1600000000000007E-002     3.0460716225206852E-003
   5.2700000000000025E-002     4.1280775330960751E-003
   5.3800000000000014E-002     5.4762088693678379E-003
   5.4900000000000004E-002     7.0676621980965137E-003
   5.6000000000000022E-002     8.8760042563080788E-003
   5.7100000000000012E-002     1.0886326432228088E-002
   5.8200000000000002E-002     1.3103913515806198E-002
   5.9300000000000019E-002     1.5564656816422939E-002
   6.0400000000000009E-002     1.8340859562158585E-002
   6.1500000000000027E-002     2.1539747714996338E-002
   6.2600000000000017E-002     2.5292975828051567E-002
   6.3700000000000007E-002     2.9742689803242683E-002
   6.4800000000000024E-002     3.5023301839828491E-002
   6.5900000000000014E-002     4.1257131844758987E-002
   6.7000000000000004E-002     4.8536773771047592E-002
   6.8100000000000022E-002     5.6928493082523346E-002
   6.9200000000000012E-002     6.6483013331890106E-002
   7.0300000000000029E-002     7.7235348522663116E-002
   7.1400000000000019E-002     8.9224047958850861E-002
   7.2500000000000009E-002    0.10251288115978241     
   7.3600000000000027E-002    0.11721298843622208     
   7.4700000000000016E-002    0.13343739509582520     
   7.5800000000000006E-002    0.15132810175418854     
   7.6900000000000024E-002    0.17099522054195404     
   7.8000000000000014E-002    0.19253426790237427     
   7.9100000000000004E-002    0.21600849926471710     
   8.0200000000000021E-002    0.24140816926956177     
   8.1300000000000011E-002    0.26862609386444092     
   8.2400000000000029E-002    0.29748761653900146     
   8.3500000000000019E-002    0.32776936888694763     
   8.4600000000000009E-002    0.35915419459342957     
   8.5700000000000026E-002    0.39137992262840271     
   8.6800000000000016E-002    0.42408517003059387     
   8.7900000000000006E-002    0.45676285028457642     
   8.9000000000000024E-002    0.48896744847297668     
   9.0100000000000013E-002    0.52006077766418457     
   9.1200000000000003E-002    0.54941362142562866     
   9.2300000000000021E-002    0.57631647586822510     
   9.3400000000000011E-002    0.59985154867172241     
   9.4500000000000028E-002    0.61905819177627563     
   9.5600000000000018E-002    0.63279402256011963     
   9.6700000000000008E-002    0.63978862762451172     
   9.7800000000000026E-002    0.63878756761550903     
   9.8900000000000016E-002    0.62871783971786499     
  0.10000000000000001         0.60804569721221924     
  0.10110000000000002         0.57535278797149658     
  0.10220000000000001         0.52936774492263794     
  0.10330000000000003         0.46914404630661011     
  0.10440000000000002         0.39353683590888977     
  0.10550000000000001         0.30146601796150208     
  0.10660000000000003         0.19231912493705750     
  0.10770000000000002          6.5713889896869659E-002
  0.10880000000000001         -7.8747555613517761E-002
  0.10990000000000003        -0.24126860499382019     
  0.11100000000000002        -0.42144688963890076     
  0.11210000000000001        -0.61840730905532837     
  0.11320000000000002        -0.83131188154220581     
  0.11430000000000001         -1.0588663816452026     
  0.11540000000000003         -1.2992346286773682     
  0.11650000000000002         -1.5502370595932007     
  0.11760000000000001         -1.8082591295242310     
  0.11870000000000003         -2.0698778629302979     
  0.11980000000000002         -2.3312766551971436     
  0.12090000000000001         -2.5879075527191162     
  0.12200000000000003         -2.8354809284210205     
  0.12310000000000001         -3.0684130191802979     
  0.12420000000000003         -3.2817654609680176     
  0.12530000000000002         -3.4707717895507812     
  0.12640000000000001         -3.6306424140930176     
  0.12750000000000003         -3.7554519176483154     
  0.12860000000000002         -3.8391978740692139     
  0.12970000000000001         -3.8775870800018311     
  0.13080000000000003         -3.8670570850372314     
  0.13190000000000002         -3.8039042949676514     
  0.13300000000000001         -3.6842479705810547     
  0.13410000000000000         -3.5047330856323242     
  0.13520000000000004         -3.2639183998107910     
  0.13630000000000003         -2.9622011184692383     
  0.13740000000000002         -2.6014153957366943     
  0.13850000000000001         -2.1833040714263916     
  0.13960000000000000         -1.7100840806961060     
  0.14070000000000005         -1.1850379705429077     
  0.14180000000000004        -0.61333072185516357     
  0.14290000000000003         -2.4332453031092882E-003
  0.14400000000000002         0.63885229825973511     
  0.14510000000000001          1.3023521900177002     
  0.14620000000000000          1.9788968563079834     
  0.14730000000000004          2.6601171493530273     
  0.14840000000000003          3.3357541561126709     
  0.14950000000000002          3.9932789802551270     
  0.15060000000000001          4.6202378273010254     
  0.15170000000000000          5.2057604789733887     
  0.15280000000000005          5.7400803565979004     
  0.15390000000000004          6.2155203819274902     
  0.15500000000000003          6.6238784790039062     
  0.15610000000000002          6.9536190032958984     
  0.15720000000000001          7.1976637840270996     
  0.15830000000000000          7.3488297462463379     
  0.15940000000000004          7.4064688682556152     
  0.16050000000000003          7.3697295188903809     
  0.16160000000000002          7.2369084358215332     
  0.16270000000000001          7.0067729949951172     
  0.16380000000000000          6.6809830665588379     
  0.16490000000000005          6.2655630111694336     
  0.16600000000000004          5.7673387527465820     
  0.16710000000000003          5.1952261924743652     
  0.16820000000000002          4.5582518577575684     
  0.16930000000000001          3.8648712635040283     
  0.17040000000000000          3.1235888004302979     
  0.17150000000000004          2.3454799652099609     
  0.17260000000000003          1.5454014539718628     
  0.17370000000000002         0.73963820934295654     
  0.17480000000000001         -5.8600168675184250E-002
  0.17590000000000000        -0.84124320745468140     
  0.17700000000000005         -1.6003491878509521     
  0.17810000000000004         -2.3241994380950928     
  0.17920000000000003         -2.9984753131866455     
  0.18030000000000002         -3.6113572120666504     
  0.18140000000000001         -4.1570672988891602     
  0.18250000000000000         -4.6334395408630371     
  0.18360000000000004         -5.0373063087463379     
  0.18470000000000003         -5.3635430335998535     
  0.18580000000000002         -5.6070804595947266     
  0.18690000000000001         -5.7651433944702148     
  0.18800000000000000         -5.8407711982727051     
  0.18910000000000005         -5.8381881713867188     
  0.19020000000000004         -5.7638115882873535     
  0.19130000000000003         -5.6224408149719238     
  0.19240000000000002         -5.4175639152526855     
  0.19350000000000001         -5.1530008316040039     
  0.19460000000000005         -4.8348941802978516     
  0.19570000000000004         -4.4743456840515137     
  0.19680000000000003         -4.0816268920898438     
  0.19790000000000002         -3.6663582324981689     
  0.19900000000000001         -3.2327873706817627     
  0.20010000000000000         -2.7852914333343506     
  0.20120000000000005         -2.3306331634521484     
  0.20230000000000004         -1.8789893388748169     
  0.20340000000000003         -1.4407345056533813     
  0.20450000000000002         -1.0214346647262573     
  0.20560000000000000        -0.62255483865737915     
  0.20670000000000005        -0.24587516486644745     
  0.20780000000000004         0.10464446246623993     
  0.20890000000000003         0.42374497652053833     
