 -0.12000000000000000          0.0000000000000000     
 -0.11889999999999999          0.0000000000000000     
 -0.11780000000000000          0.0000000000000000     
 -0.11670000000000000          0.0000000000000000     
 -0.11559999999999999          0.0000000000000000     
 -0.11449999999999999          0.0000000000000000     
 -0.11340000000000000          3.7333332904071134E-015
 -0.11230000000000000         -5.2391147721693974E-015
 -0.11119999999999999         -3.3520241297284661E-014
 -0.11009999999999999          3.2159591287737876E-014
 -0.10900000000000000          1.4327482342896269E-013
 -0.10790000000000000         -1.5196439213330942E-013
 -0.10679999999999999         -3.2490809630421336E-013
 -0.10569999999999999          1.2175888552609648E-012
 -0.10460000000000000          1.2988453628598462E-012
 -0.10349999999999999         -7.2000664978755236E-012
 -0.10239999999999999         -1.2619196486374218E-011
 -0.10130000000000000          1.8466886006485161E-011
 -0.10020000000000000          6.7603277142946894E-011
  -9.9099999999999994E-002     1.8233083445839959E-011
  -9.7999999999999990E-002    -1.6871849750632606E-010
  -9.6899999999999986E-002    -2.3723323305802069E-010
  -9.5799999999999996E-002     8.9115485824020624E-011
  -9.4699999999999993E-002     5.0614645807911529E-010
  -9.3599999999999989E-002     3.7834449462259556E-010
  -9.2499999999999999E-002    -7.5518181985589905E-011
  -9.1399999999999995E-002     4.1878028822495139E-011
  -9.0299999999999991E-002    -3.2150070800041064E-011
  -8.9200000000000002E-002    -2.6504538563898450E-009
  -8.8099999999999984E-002    -6.0058349404812361E-009
  -8.6999999999999994E-002    -1.3967916823176552E-009
  -8.5899999999999990E-002     1.4788890112527042E-008
  -8.4799999999999986E-002     2.5754626875595932E-008
  -8.3699999999999997E-002     6.6298135870113128E-009
  -8.2599999999999993E-002    -3.6520667379136285E-008
  -8.1499999999999989E-002    -5.7627111971214617E-008
  -8.0399999999999999E-002    -2.6412381615159575E-008
  -7.9299999999999995E-002     2.2332969251692703E-008
  -7.8199999999999992E-002     4.1578402942832327E-008
  -7.7100000000000002E-002     6.3671670602616359E-008
  -7.5999999999999984E-002     1.4729283748238231E-007
  -7.4899999999999994E-002     1.9699423603469768E-007
  -7.3799999999999991E-002    -2.0897164887401232E-008
  -7.2699999999999987E-002    -5.1091791419821675E-007
  -7.1599999999999997E-002    -7.9450609291598084E-007
  -7.0499999999999993E-002    -3.4839044360523985E-007
  -6.9399999999999989E-002     6.1628054481843719E-007
  -6.8300000000000000E-002     1.1884604873557691E-006
  -6.7199999999999996E-002     8.7752982835809235E-007
  -6.6099999999999992E-002     3.2737906963120622E-007
  -6.5000000000000002E-002     2.8894066872453550E-007
  -6.3899999999999985E-002     1.3261073661396949E-007
  -6.2799999999999995E-002    -1.4620609363191761E-006
  -6.1699999999999991E-002    -3.9155393096734770E-006
  -6.0599999999999994E-002    -4.2238830246787984E-006
  -5.9499999999999990E-002    -5.7086316473942134E-007
  -5.8399999999999994E-002     4.2886395021923818E-006
  -5.7299999999999990E-002     5.6677190514164977E-006
  -5.6199999999999986E-002     3.3839203297247877E-006
  -5.5099999999999996E-002     2.6299962883058470E-006
  -5.3999999999999992E-002     6.1273840401554480E-006
  -5.2899999999999989E-002     7.9302681115223095E-006
  -5.1799999999999985E-002    -2.1669313809979940E-007
  -5.0699999999999995E-002    -1.6294790839310735E-005
  -4.9599999999999991E-002    -2.7285421310807578E-005
  -4.8499999999999988E-002    -2.4141783796949312E-005
  -4.7399999999999998E-002    -1.2703098036581650E-005
  -4.6299999999999994E-002    -3.5877774280379526E-006
  -4.5199999999999990E-002     5.6160215535783209E-006
  -4.4099999999999986E-002     2.7780008167610504E-005
  -4.2999999999999997E-002     6.2786159105598927E-005
  -4.1899999999999993E-002     8.6703119450248778E-005
  -4.0799999999999989E-002     7.4396040872670710E-005
  -3.9699999999999985E-002     2.8586102416738868E-005
  -3.8599999999999995E-002    -2.5378834834555164E-005
  -3.7499999999999992E-002    -7.3121358582284302E-005
  -3.6399999999999988E-002    -1.2463823077268898E-004
  -3.5299999999999984E-002    -1.8645251111593097E-004
  -3.4199999999999994E-002    -2.3336645972449332E-004
  -3.3099999999999991E-002    -2.2416681167669594E-004
  -3.1999999999999987E-002    -1.4123656728770584E-004
  -3.0899999999999997E-002     1.8924987443824648E-006
  -2.9799999999999993E-002     1.9039426115341485E-004
  -2.8699999999999989E-002     4.2089005000889301E-004
  -2.7599999999999986E-002     6.7195692099630833E-004
  -2.6499999999999996E-002     8.8486704044044018E-004
  -2.5399999999999992E-002     1.0035815648734570E-003
  -2.4299999999999988E-002     1.0293034138157964E-003
  -2.3199999999999985E-002     1.0064661037176847E-003
  -2.2099999999999995E-002     9.5361442072317004E-004
  -2.0999999999999991E-002     8.4788620006293058E-004
  -1.9899999999999987E-002     7.0378667442128062E-004
  -1.8799999999999983E-002     6.3459546072408557E-004
  -1.7699999999999994E-002     7.8353530261665583E-004
  -1.6599999999999990E-002     1.1934010544791818E-003
  -1.5499999999999986E-002     1.7908029258251190E-003
  -1.4399999999999996E-002     2.5123273953795433E-003
  -1.3299999999999992E-002     3.3941031433641911E-003
  -1.2199999999999989E-002     4.4890758581459522E-003
  -1.1099999999999985E-002     5.7373386807739735E-003
  -9.9999999999999950E-003     6.9982851855456829E-003
  -8.8999999999999913E-003     8.2269329577684402E-003
  -7.7999999999999875E-003     9.5559433102607727E-003
  -6.6999999999999837E-003     1.1164567433297634E-002
  -5.5999999999999939E-003     1.3120610266923904E-002
  -4.4999999999999901E-003     1.5407313592731953E-002
  -3.3999999999999864E-003     1.8075196072459221E-002
  -2.2999999999999826E-003     2.1271526813507080E-002
  -1.1999999999999927E-003     2.5113960728049278E-002
  -9.9999999999988987E-005     2.9618231579661369E-002
   1.0000000000000148E-003     3.4784037619829178E-002
   2.1000000000000185E-003     4.0690325200557709E-002
   3.2000000000000084E-003     4.7414094209671021E-002
   4.3000000000000121E-003     5.4918870329856873E-002
   5.4000000000000159E-003     6.3118711113929749E-002
   6.5000000000000058E-003     7.2120465338230133E-002
   7.6000000000000234E-003     8.2207866013050079E-002
   8.7000000000000133E-003     9.3564614653587341E-002
   9.8000000000000032E-003    0.10605911165475845     
   1.0900000000000021E-002    0.11947697401046753     
   1.2000000000000011E-002    0.13389483094215393     
   1.3100000000000001E-002    0.14965578913688660     
   1.4200000000000018E-002    0.16697925329208374     
   1.5300000000000008E-002    0.18561545014381409     
   1.6400000000000026E-002    0.20519182085990906     
   1.7500000000000016E-002    0.22548298537731171     
   1.8600000000000005E-002    0.24646945297718048     
   1.9700000000000023E-002    0.26794418692588806     
   2.0800000000000013E-002    0.28956153988838196     
   2.1900000000000003E-002    0.31086951494216919     
   2.3000000000000020E-002    0.33159574866294861     
   2.4100000000000010E-002    0.35154062509536743     
   2.5200000000000000E-002    0.37022289633750916     
   2.6300000000000018E-002    0.38703259825706482     
   2.7400000000000008E-002    0.40150943398475647     
   2.8500000000000025E-002    0.41288104653358459     
   2.9600000000000015E-002    0.42048543691635132     
   3.0700000000000005E-002    0.42331391572952271     
   3.1800000000000023E-002    0.42004966735839844     
   3.2900000000000013E-002    0.41003316640853882     
   3.4000000000000002E-002    0.39286720752716064     
   3.5100000000000020E-002    0.36767870187759399     
   3.6200000000000010E-002    0.33330389857292175     
   3.7300000000000028E-002    0.28899821639060974     
   3.8400000000000017E-002    0.23444904386997223     
   3.9500000000000007E-002    0.16930043697357178     
   4.0600000000000025E-002     9.3032635748386383E-002
   4.1700000000000015E-002     5.3558577783405781E-003
   4.2800000000000005E-002    -9.4942554831504822E-002
   4.3900000000000022E-002   -0.20697519183158875     
   4.5000000000000012E-002   -0.33062598109245300     
   4.6100000000000002E-002   -0.46543014049530029     
   4.7200000000000020E-002   -0.61062896251678467     
   4.8300000000000010E-002   -0.76417511701583862     
   4.9400000000000027E-002   -0.92529493570327759     
   5.0500000000000017E-002    -1.0923959016799927     
   5.1600000000000007E-002    -1.2630615234375000     
   5.2700000000000025E-002    -1.4344867467880249     
   5.3800000000000014E-002    -1.6052846908569336     
   5.4900000000000004E-002    -1.7718369960784912     
   5.6000000000000022E-002    -1.9311935901641846     
   5.7100000000000012E-002    -2.0777716636657715     
   5.8200000000000002E-002    -2.2087678909301758     
   5.9300000000000019E-002    -2.3247284889221191     
   6.0400000000000009E-002    -2.4212658405303955     
   6.1500000000000027E-002    -2.4924802780151367     
   6.2600000000000017E-002    -2.5337309837341309     
   6.3700000000000007E-002    -2.5429520606994629     
   6.4800000000000024E-002    -2.5183928012847900     
   6.5900000000000014E-002    -2.4599707126617432     
   6.7000000000000004E-002    -2.3650298118591309     
   6.8100000000000022E-002    -2.2303748130798340     
   6.9200000000000012E-002    -2.0546371936798096     
   7.0300000000000029E-002    -1.8370555639266968     
   7.1400000000000019E-002    -1.5818853378295898     
   7.2500000000000009E-002    -1.2897493839263916     
   7.3600000000000027E-002   -0.96499735116958618     
   7.4700000000000016E-002   -0.60941576957702637     
   7.5800000000000006E-002   -0.22617088258266449     
   7.6900000000000024E-002    0.18281908333301544     
   7.8000000000000014E-002    0.61183291673660278     
   7.9100000000000004E-002     1.0533503293991089     
   8.0200000000000021E-002     1.4960969686508179     
   8.1300000000000011E-002     1.9344007968902588     
   8.2400000000000029E-002     2.3647596836090088     
   8.3500000000000019E-002     2.7848863601684570     
   8.4600000000000009E-002     3.1870713233947754     
   8.5700000000000026E-002     3.5581490993499756     
   8.6800000000000016E-002     3.8855707645416260     
   8.7900000000000006E-002     4.1661138534545898     
   8.9000000000000024E-002     4.4021706581115723     
   9.0100000000000013E-002     4.5916686058044434     
   9.1200000000000003E-002     4.7276482582092285     
   9.2300000000000021E-002     4.7996816635131836     
   9.3400000000000011E-002     4.8048491477966309     
   9.4500000000000028E-002     4.7468400001525879     
   9.5600000000000018E-002     4.6258487701416016     
   9.6700000000000008E-002     4.4451403617858887     
   9.7800000000000026E-002     4.2089948654174805     
   9.8900000000000016E-002     3.9178872108459473     
  0.10000000000000001          3.5730519294738770     
  0.10110000000000002          3.1766657829284668     
  0.10220000000000001          2.7374174594879150     
  0.10330000000000003          2.2707984447479248     
  0.10440000000000002          1.7861198186874390     
  0.10550000000000001          1.2859703302383423     
  0.10660000000000003         0.76646536588668823     
  0.10770000000000002         0.24220798909664154     
  0.10880000000000001        -0.27634853124618530     
  0.10990000000000003        -0.77624744176864624     
  0.11100000000000002         -1.2497243881225586     
  0.11210000000000001         -1.6927008628845215     
  0.11320000000000002         -2.1046795845031738     
  0.11430000000000001         -2.4860842227935791     
  0.11540000000000003         -2.8256387710571289     
  0.11650000000000002         -3.1114189624786377     
  0.11760000000000001         -3.3393371105194092     
  0.11870000000000003         -3.5123660564422607     
  0.11980000000000002         -3.6373026371002197     
  0.12090000000000001         -3.7195932865142822     
  0.12200000000000003         -3.7545335292816162     
  0.12310000000000001         -3.7336623668670654     
  0.12420000000000003         -3.6584100723266602     
  0.12530000000000002         -3.5352005958557129     
  0.12640000000000001         -3.3780994415283203     
  0.12750000000000003         -3.1956629753112793     
  0.12860000000000002         -2.9881377220153809     
  0.12970000000000001         -2.7504794597625732     
  0.13080000000000003         -2.4854435920715332     
  0.13190000000000002         -2.2016308307647705     
  0.13300000000000001         -1.9114930629730225     
  0.13410000000000000         -1.6223937273025513     
  0.13520000000000004         -1.3364223241806030     
  0.13630000000000003         -1.0529893636703491     
  0.13740000000000002        -0.77308404445648193     
  0.13850000000000001        -0.50055545568466187     
  0.13960000000000000        -0.24033561348915100     
  0.14070000000000005          5.8662035735324025E-004
  0.14180000000000004         0.21748831868171692     
  0.14290000000000003         0.41024115681648254     
  0.14400000000000002         0.58487761020660400     
  0.14510000000000001         0.74647527933120728     
  0.14620000000000000         0.89106869697570801     
  0.14730000000000004          1.0103889703750610     
  0.14840000000000003          1.1006633043289185     
  0.14950000000000002          1.1684671640396118     
  0.15060000000000001          1.2233983278274536     
  0.15170000000000000          1.2668471336364746     
  0.15280000000000005          1.2927430868148804     
  0.15390000000000004          1.2978302240371704     
  0.15500000000000003          1.2892229557037354     
  0.15610000000000002          1.2735345363616943     
  0.15720000000000001          1.2502130270004272     
  0.15830000000000000          1.2138036489486694     
  0.15940000000000004          1.1646832227706909     
  0.16050000000000003          1.1120479106903076     
  0.16160000000000002          1.0612617731094360     
  0.16270000000000001          1.0071645975112915     
  0.16380000000000000         0.94290077686309814     
  0.16490000000000005         0.87024444341659546     
  0.16600000000000004         0.79784739017486572     
  0.16710000000000003         0.72777128219604492     
  0.16820000000000002         0.65411514043807983     
  0.16930000000000001         0.57251662015914917     
  0.17040000000000000         0.48882111907005310     
  0.17150000000000004         0.40927734971046448     
  0.17260000000000003         0.32809698581695557     
  0.17370000000000002         0.23445706069469452     
  0.17480000000000001         0.12971197068691254     
  0.17590000000000000          2.8424438089132309E-002
  0.17700000000000005         -6.2375608831644058E-002
  0.17810000000000004        -0.15532401204109192     
  0.17920000000000003        -0.26639363169670105     
  0.18030000000000002        -0.39239552617073059     
  0.18140000000000001        -0.51428586244583130     
  0.18250000000000000        -0.62233066558837891     
  0.18360000000000004        -0.72847968339920044     
  0.18470000000000003        -0.84648573398590088     
  0.18580000000000002        -0.97192746400833130     
  0.18690000000000001         -1.0875051021575928     
  0.18800000000000000         -1.1903829574584961     
  0.18910000000000005         -1.2915050983428955     
  0.19020000000000004         -1.3942945003509521     
  0.19130000000000003         -1.4851998090744019     
  0.19240000000000002         -1.5513669252395630     
  0.19350000000000001         -1.5995430946350098     
  0.19460000000000005         -1.6443927288055420     
  0.19570000000000004         -1.6807916164398193     
  0.19680000000000003         -1.6909223794937134     
  0.19790000000000002         -1.6636965274810791     
  0.19900000000000001         -1.6132209300994873     
  0.20010000000000000         -1.5535638332366943     
  0.20120000000000005         -1.4764988422393799     
  0.20230000000000004         -1.3619815111160278     
  0.20340000000000003         -1.2095310688018799     
  0.20450000000000002         -1.0382901430130005     
  0.20560000000000000        -0.85957241058349609     
  0.20670000000000005        -0.65958786010742188     
  0.20780000000000004        -0.42231726646423340     
  0.20890000000000003        -0.15770581364631653     
