 -0.12000000000000000          0.0000000000000000
 -0.11889999999999999          0.0000000000000000
 -0.11780000000000000          0.0000000000000000
 -0.11670000000000000          1.2546758770826116E-011
 -0.11559999999999999          1.8168402546314688E-011
 -0.11449999999999999         -2.8160881612726563E-011
 -0.11340000000000000         -7.4961550855512371E-011
 -0.11230000000000000         -7.1864558574830095E-012
 -0.11119999999999999          9.8632872702619778E-011
 -0.11009999999999999          3.4899878126326556E-011
 -0.10900000000000000         -4.0868759765277929E-011
 -0.10790000000000000          3.0829411246102723E-010
 -0.10679999999999999          7.4258349469502605E-010
 -0.10569999999999999         -4.0189275518631717E-011
 -0.10460000000000000         -2.2186257275791377E-009
 -0.10349999999999999         -3.2006566286213456E-009
 -0.10239999999999999         -2.7628824228465021E-010
 -0.10130000000000000          4.7190176211131529E-009
 -0.10020000000000000          6.1720055732905621E-009
  -9.9099999999999994E-002     1.9703463305376090E-009
  -9.7999999999999990E-002    -2.6980122580511079E-009
  -9.6899999999999986E-002    -2.4106245888333433E-009
  -9.5799999999999996E-002    -3.5083735916430214E-010
  -9.4699999999999993E-002    -4.1651788684760049E-009
  -9.3599999999999989E-002    -1.2471414123638169E-008
  -9.2499999999999999E-002    -1.2972199314731370E-008
  -9.1399999999999995E-002     9.2079066593697689E-010
  -9.0299999999999991E-002     1.7741387026148914E-008
  -8.9200000000000002E-002     2.1626483714953793E-008
  -8.8099999999999984E-002     1.6275841119295364E-008
  -8.6999999999999994E-002     2.3412782823584166E-008
  -8.5899999999999990E-002     5.3338808925218473E-008
  -8.4799999999999986E-002     8.8167240619441145E-008
  -8.3699999999999997E-002     1.0448649589989145E-007
  -8.2599999999999993E-002     1.0566873243078589E-007
  -8.1499999999999989E-002     1.1758101692294076E-007
  -8.0399999999999999E-002     1.5362556382569892E-007
  -7.9299999999999995E-002     2.0025757407893252E-007
  -7.8199999999999992E-002     2.4293808564834762E-007
  -7.7100000000000002E-002     2.9085018127261719E-007
  -7.5999999999999984E-002     3.6206037634656241E-007
  -7.4899999999999994E-002     4.5507712798098510E-007
  -7.3799999999999991E-002     5.5578124147359631E-007
  -7.2699999999999987E-002     6.7041531792710884E-007
  -7.1599999999999997E-002     8.2784498545152019E-007
  -7.0499999999999993E-002     1.0399912753200624E-006
  -6.9399999999999989E-002     1.2819219818993588E-006
  -6.8300000000000000E-002     1.5320098327720189E-006
  -6.7199999999999996E-002     1.8184381360697444E-006
  -6.6099999999999992E-002     2.1972241484036203E-006
  -6.5000000000000002E-002     2.6851027996599441E-006
  -6.3899999999999985E-002     3.2458503937959904E-006
  -6.2799999999999995E-002     3.8575453800149262E-006
  -6.1699999999999991E-002     4.5664933168154676E-006
  -6.0599999999999994E-002     5.4460479077533819E-006
  -5.9499999999999990E-002     6.5167419052158948E-006
  -5.8399999999999994E-002     7.7444046837626956E-006
  -5.7299999999999990E-002     9.1200681708869524E-006
  -5.6199999999999986E-002     1.0704527085181326E-005
  -5.5099999999999996E-002     1.2574139873322565E-005
  -5.3999999999999992E-002     1.4752454262634274E-005
  -5.2899999999999989E-002     1.7229805962415412E-005
  -5.1799999999999985E-002     2.0034747649333440E-005
  -5.0699999999999995E-002     2.3242824681801721E-005
  -4.9599999999999991E-002     2.6911933673545718E-005
  -4.8499999999999988E-002     3.1053103157319129E-005
  -4.7399999999999998E-002     3.5688743082573637E-005
  -4.6299999999999994E-002     4.0903054468799382E-005
  -4.5199999999999990E-002     4.6792014472885057E-005
  -4.4099999999999986E-002     5.3380237659439445E-005
  -4.2999999999999997E-002     6.0640664742095396E-005
  -4.1899999999999993E-002     6.8603272666223347E-005
  -4.0799999999999989E-002     7.7392469393089414E-005
  -3.9699999999999985E-002     8.7123858975246549E-005
  -3.8599999999999995E-002     9.7799071227200329E-005
  -3.7499999999999992E-002     1.0935123282251880E-004
  -3.6399999999999988E-002     1.2177728785900399E-004
  -3.5299999999999984E-002     1.3516789476852864E-004
  -3.4199999999999994E-002     1.4959424152038991E-004
  -3.3099999999999991E-002     1.6501893696840852E-004
  -3.1999999999999987E-002     1.8135092977900058E-004
  -3.0899999999999997E-002     1.9854697166010737E-004
  -2.9799999999999993E-002     2.1659923368133605E-004
  -2.8699999999999989E-002     2.3543875431641936E-004
  -2.7599999999999986E-002     2.5491439737379551E-004
  -2.6499999999999996E-002     2.7488201158121228E-004
  -2.5399999999999992E-002     2.9525178251788020E-004
  -2.4299999999999988E-002     3.1590246362611651E-004
  -2.3199999999999985E-002     3.3658905886113644E-004
  -2.2099999999999995E-002     3.5699279396794736E-004
  -2.0999999999999991E-002     3.7685310235247016E-004
  -1.9899999999999987E-002     3.9598543662577868E-004
  -1.8799999999999983E-002     4.1415257146582007E-004
  -1.7699999999999994E-002     4.3097257730551064E-004
  -1.6599999999999990E-002     4.4600621913559735E-004
  -1.5499999999999986E-002     4.5889522880315781E-004
  -1.4399999999999996E-002     4.6935281716287136E-004
  -1.3299999999999992E-002     4.7703247400932014E-004
  -1.2199999999999989E-002     4.8148733912967145E-004
  -1.1099999999999985E-002     4.8228359082713723E-004
  -9.9999999999999950E-003     4.7909727436490357E-004
  -8.8999999999999913E-003     4.7165038995444775E-004
  -7.7999999999999875E-003     4.5959794078953564E-004
  -6.6999999999999837E-003     4.4255817192606628E-004
  -5.5999999999999939E-003     4.2025287984870374E-004
  -4.4999999999999901E-003     3.9255229057744145E-004
  -3.3999999999999864E-003     3.5936830681748688E-004
  -2.2999999999999826E-003     3.2056940835900605E-004
  -1.1999999999999927E-003     2.7605082141235471E-004
  -9.9999999999988987E-005     2.2586896375287324E-004
   1.0000000000000148E-003     1.7022872634697706E-004
   2.1000000000000185E-003     1.0937461047433317E-004
   3.2000000000000084E-003     4.3548250687308609E-005
   4.3000000000000121E-003    -2.6912259272648953E-005
   5.4000000000000159E-003    -1.0149306763196364E-004
   6.5000000000000058E-003    -1.7956527881324291E-004
   7.6000000000000234E-003    -2.6050335145555437E-004
   8.7000000000000133E-003    -3.4367360058240592E-004
   9.8000000000000032E-003    -4.2832805775105953E-004
   1.0900000000000021E-002    -5.1355117466300726E-004
   1.2000000000000011E-002    -5.9838645393028855E-004
   1.3100000000000001E-002    -6.8193802144378424E-004
   1.4200000000000018E-002    -7.6332932803779840E-004
   1.5300000000000008E-002    -8.4160617552697659E-004
   1.6400000000000026E-002    -9.1574154794216156E-004
   1.7500000000000016E-002    -9.8475953564047813E-004
   1.8600000000000005E-002    -1.0477978503331542E-003
   1.9700000000000023E-002    -1.1040503159165382E-003
   2.0800000000000013E-002    -1.1526934104040265E-003
   2.1900000000000003E-002    -1.1929466854780912E-003
   2.3000000000000020E-002    -1.2241903459653258E-003
   2.4100000000000010E-002    -1.2459774734452367E-003
   2.5200000000000000E-002    -1.2579389149323106E-003
   2.6300000000000018E-002    -1.2597409076988697E-003
   2.7400000000000008E-002    -1.2511678505688906E-003
   2.8500000000000025E-002    -1.2322119437158108E-003
   2.9600000000000015E-002    -1.2030482757836580E-003
   3.0700000000000005E-002    -1.1639441363513470E-003
   3.1800000000000023E-002    -1.1152427177876234E-003
   3.2900000000000013E-002    -1.0574243497103453E-003
   3.4000000000000002E-002    -9.9113665055483580E-004
   3.5100000000000020E-002    -9.1713573783636093E-004
   3.6200000000000010E-002    -8.3623197861015797E-004
   3.7300000000000028E-002    -7.4931082781404257E-004
   3.8400000000000017E-002    -6.5736536635085940E-004
   3.9500000000000007E-002    -5.6148355361074209E-004
   4.0600000000000025E-002    -4.6275631757453084E-004
   4.1700000000000015E-002    -3.6222979542799294E-004
   4.2800000000000005E-002    -2.6096025248989463E-004
   4.3900000000000022E-002    -1.6003855853341520E-004
   4.5000000000000012E-002    -6.0563168517546728E-005
   4.6100000000000002E-002     3.6434714274946600E-005
   4.7200000000000020E-002     1.3003431377001107E-004
   4.8300000000000010E-002     2.1937715064268559E-004
   4.9400000000000027E-002     3.0367876752279699E-004
   5.0500000000000017E-002     3.8222889997996390E-004
   5.1600000000000007E-002     4.5443174894899130E-004
   5.2700000000000025E-002     5.1978253759443760E-004
   5.3800000000000014E-002     5.7788897538557649E-004
   5.4900000000000004E-002     6.2847579829394817E-004
   5.6000000000000022E-002     6.7138532176613808E-004
   5.7100000000000012E-002     7.0656824391335249E-004
   5.8200000000000002E-002     7.3405937291681767E-004
   5.9300000000000019E-002     7.5398752233013511E-004
   6.0400000000000009E-002     7.6657976023852825E-004
   6.1500000000000027E-002     7.7214284101501107E-004
   6.2600000000000017E-002     7.7104510273784399E-004
   6.3700000000000007E-002     7.6371134491637349E-004
   6.4800000000000024E-002     7.5064384145662189E-004
   6.5900000000000014E-002     7.3239777702838182E-004
   6.7000000000000004E-002     7.0953485555946827E-004
   6.8100000000000022E-002     6.8260368425399065E-004
   6.9200000000000012E-002     6.5216608345508575E-004
   7.0300000000000029E-002     6.1882403679192066E-004
   7.1400000000000019E-002     5.8318441733717918E-004
   7.2500000000000009E-002     5.4580514552071691E-004
   7.3600000000000027E-002     5.0719385035336018E-004
   7.4700000000000016E-002     4.6785469749011099E-004
   7.5800000000000006E-002     4.2829039739444852E-004
   7.6900000000000024E-002     3.8894274621270597E-004
   7.8000000000000014E-002     3.5016355104744434E-004
   7.9100000000000004E-002     3.1226695864461362E-004
   8.0200000000000021E-002     2.7558911824598908E-004
   8.1300000000000011E-002     2.4044992460403591E-004
   8.2400000000000029E-002     2.0706358191091567E-004
   8.3500000000000019E-002     1.7553046927787364E-004
   8.4600000000000009E-002     1.4593717060051858E-004
   8.5700000000000026E-002     1.1842072126455605E-004
   8.6800000000000016E-002     9.3101305537857115E-005
   8.7900000000000006E-002     6.9988076575100422E-005
   8.9000000000000024E-002     4.9002581363311037E-005
   9.0100000000000013E-002     3.0096676709945314E-005
   9.1200000000000003E-002     1.3278658116178121E-005
   9.2300000000000021E-002    -1.4874879070703173E-006
   9.3400000000000011E-002    -1.4350972378451843E-005
   9.4500000000000028E-002    -2.5484507204964757E-005
   9.5600000000000018E-002    -3.4970307751791552E-005
   9.6700000000000008E-002    -4.2834242776734754E-005
   9.7800000000000026E-002    -4.9184414820047095E-005
   9.8900000000000016E-002    -5.4238480515778065E-005
  0.10000000000000001         -5.8188274124404415E-005
  0.10110000000000002         -6.1101323808543384E-005
  0.10220000000000001         -6.3005674746818841E-005
  0.10330000000000003         -6.4027823100332171E-005
  0.10440000000000002         -6.4367304730694741E-005
  0.10550000000000001         -6.4147978264372796E-005
  0.10660000000000003         -6.3382933149114251E-005
  0.10770000000000002         -6.2107807025313377E-005
  0.10880000000000001         -6.0474838392110541E-005
  0.10990000000000003         -5.8644531236495823E-005
  0.11100000000000002         -5.6640677939867601E-005
  0.11210000000000001         -5.4397645726567134E-005
  0.11320000000000002         -5.1945578888989985E-005
  0.11430000000000001         -4.9450343794887885E-005
  0.11540000000000003         -4.7040630306582898E-005
  0.11650000000000002         -4.4673062802758068E-005
  0.11760000000000001         -4.2243198549840599E-005
  0.11870000000000003         -3.9776525227352977E-005
  0.11980000000000002         -3.7413876270875335E-005
  0.12090000000000001         -3.5221801226725802E-005
  0.12200000000000003         -3.3119740692200139E-005
  0.12310000000000001         -3.1030223908601329E-005
  0.12420000000000003         -2.9015071049798280E-005
  0.12530000000000002         -2.7182244593859650E-005
  0.12640000000000001         -2.5511988496873528E-005
  0.12750000000000003         -2.3881684683146887E-005
  0.12860000000000002         -2.2257552700466476E-005
  0.12970000000000001         -2.0754458091687411E-005
  0.13080000000000003         -1.9461293049971573E-005
  0.13190000000000002         -1.8297243514098227E-005
  0.13300000000000001         -1.7123005818575621E-005
  0.13410000000000000         -1.5943282051011920E-005
  0.13520000000000004         -1.4892805666022468E-005
  0.13630000000000003         -1.4024621123098768E-005
  0.13740000000000002         -1.3225262591731735E-005
  0.13850000000000001         -1.2384771252982318E-005
  0.13960000000000000         -1.1558106962183956E-005
  0.14070000000000005         -1.0870866390177980E-005
  0.14180000000000004         -1.0315350664313883E-005
  0.14290000000000003         -9.7543834272073582E-006
  0.14400000000000002         -9.1281217464711517E-006
  0.14510000000000001         -8.5443980424315669E-006
  0.14620000000000000         -8.1102643889607862E-006
  0.14730000000000004         -7.7632275861105882E-006
  0.14840000000000003         -7.3608025559224188E-006
  0.14950000000000002         -6.8918475335522089E-006
  0.15060000000000001         -6.4868613662838470E-006
  0.15170000000000000         -6.2136209635355044E-006
  0.15280000000000005         -5.9737494666478597E-006
  0.15390000000000004         -5.6558201322332025E-006
  0.15500000000000003         -5.3048324843985029E-006
  0.15610000000000002         -5.0462717808841262E-006
  0.15720000000000001         -4.8864039854379371E-006
  0.15830000000000000         -4.6995914999570232E-006
  0.15940000000000004         -4.4225484998605680E-006
  0.16050000000000003         -4.1531002352712676E-006
  0.16160000000000002         -3.9992919482756406E-006
  0.16270000000000001         -3.9113401726353914E-006
  0.16380000000000000         -3.7555171275016619E-006
  0.16490000000000005         -3.5165621738997288E-006
  0.16600000000000004         -3.3180022001033649E-006
  0.16710000000000003         -3.2319351248588646E-006
  0.16820000000000002         -3.1705335459264461E-006
  0.16930000000000001         -3.0231458367779851E-006
  0.17040000000000000         -2.8246820420463337E-006
  0.17150000000000004         -2.6976072149409447E-006
  0.17260000000000003         -2.6609698124957504E-006
  0.17370000000000002         -2.6023460577562219E-006
  0.17480000000000001         -2.4522030344087398E-006
  0.17590000000000000         -2.2903241188032553E-006
  0.17700000000000005         -2.2219514903554227E-006
  0.17810000000000004         -2.2164190340845380E-006
  0.17920000000000003         -2.1551636564254295E-006
  0.18030000000000002         -2.0119255168538075E-006
  0.18140000000000001         -1.8888724753196584E-006
  0.18250000000000000         -1.8582586562843062E-006
  0.18360000000000004         -1.8554336520537618E-006
  0.18470000000000003         -1.7830957403930370E-006
  0.18580000000000002         -1.6595628267168649E-006
  0.18690000000000001         -1.5846906080696499E-006
  0.18800000000000000         -1.5825660284463083E-006
  0.18910000000000005         -1.5666868193875416E-006
  0.19020000000000004         -1.4775202998862369E-006
  0.19130000000000003         -1.3748002629654366E-006
  0.19240000000000002         -1.3429446426016511E-006
  0.19350000000000001         -1.3590448588729487E-006
  0.19460000000000005         -1.3282249256008072E-006
  0.19570000000000004         -1.2299790341785410E-006
  0.19680000000000003         -1.1495670833028271E-006
  0.19790000000000002         -1.1478226724648266E-006
  0.19900000000000001         -1.1696154160745209E-006
  0.20010000000000000         -1.1284402035016683E-006
  0.20120000000000005         -1.0350961474614451E-006
  0.20230000000000004         -9.7729252956924029E-007
  0.20340000000000003         -9.8705788786901394E-007
  0.20450000000000002         -9.9836017852794612E-007
  0.20560000000000000         -9.5148266154865269E-007
  0.20670000000000005         -8.7966839146247366E-007
  0.20780000000000004         -8.5071349076315528E-007
  0.20890000000000003         -8.6237173491099384E-007
