 -0.12000000000000000          0.0000000000000000
 -0.11889999999999999          0.0000000000000000
 -0.11780000000000000          0.0000000000000000
 -0.11670000000000000          0.0000000000000000
 -0.11559999999999999          0.0000000000000000
 -0.11449999999999999          0.0000000000000000
 -0.11340000000000000          0.0000000000000000
 -0.11230000000000000          0.0000000000000000
 -0.11119999999999999          0.0000000000000000
 -0.11009999999999999          0.0000000000000000
 -0.10900000000000000          0.0000000000000000
 -0.10790000000000000          0.0000000000000000
 -0.10679999999999999          0.0000000000000000
 -0.10569999999999999          0.0000000000000000
 -0.10460000000000000          0.0000000000000000
 -0.10349999999999999          0.0000000000000000
 -0.10239999999999999          0.0000000000000000
 -0.10130000000000000         -1.9314127562355169E-038
 -0.10020000000000000          7.5856529005652324E-038
  -9.9099999999999994E-002     2.3697214837234235E-037
  -9.7999999999999990E-002    -2.3039940388801642E-036
  -9.6899999999999986E-002    -5.7818510705416121E-038
  -9.5799999999999996E-002     3.4945010539439166E-035
  -9.4699999999999993E-002    -2.8432734527713379E-035
  -9.3599999999999989E-002    -3.9417048505532385E-034
  -9.2499999999999999E-002     4.1312606614630250E-034
  -9.1399999999999995E-002     3.7573865098248384E-033
  -9.0299999999999991E-002    -3.4174430944586332E-033
  -8.9200000000000002E-002    -3.1596315428527783E-032
  -8.8099999999999984E-002     1.6453990991842601E-032
  -8.6999999999999994E-002     2.3471833913320931E-031
  -8.5899999999999990E-002     3.1438611106421465E-033
  -8.4799999999999986E-002    -1.5118061057789859E-030
  -8.3699999999999997E-002    -9.6947589434350048E-031
  -8.2599999999999993E-002     8.1690628202485104E-030
  -8.1499999999999989E-002     1.1438195740845782E-029
  -8.0399999999999999E-002    -3.4766291521501837E-029
  -7.9299999999999995E-002    -8.7477802430227393E-029
  -7.8199999999999992E-002     9.6454886901694414E-029
  -7.7100000000000002E-002     5.0348638015617896E-028
  -7.5999999999999984E-002     2.3846097208690538E-029
  -7.4899999999999994E-002    -2.2161856907478695E-027
  -7.3799999999999991E-002    -2.2836544833736543E-027
  -7.2699999999999987E-002     6.9387897074449096E-027
  -7.1599999999999997E-002     1.6393014944838611E-026
  -7.0499999999999993E-002    -9.9998458128704717E-027
  -6.9399999999999989E-002    -7.3272944588025249E-026
  -6.8300000000000000E-002    -4.2752369143747222E-026
  -6.7199999999999996E-002     2.1728791529811804E-025
  -6.6099999999999992E-002     3.9428350261500520E-025
  -6.5000000000000002E-002    -2.9600876411247870E-025
  -6.3899999999999985E-002    -1.6577878396631091E-024
  -6.2799999999999995E-002    -9.6610020125380569E-025
  -6.1699999999999991E-002     4.1325038611245410E-024
  -6.0599999999999994E-002     7.9081065383435606E-024
  -5.9499999999999990E-002    -3.0338738445022475E-024
  -5.8399999999999994E-002    -2.7065596777079453E-023
  -5.7299999999999990E-002    -2.4240651165603180E-023
  -5.6199999999999986E-002     4.6631420353019467E-023
  -5.5099999999999996E-002     1.2461346681140651E-022
  -5.3999999999999992E-002     2.9612408966036523E-023
  -5.2899999999999989E-002    -2.9122253082476706E-022
  -5.1799999999999985E-002    -4.4413202178789330E-022
  -5.0699999999999995E-002     1.6841984688964107E-022
  -4.9599999999999991E-002     1.3077787078722847E-021
  -4.8499999999999988E-002     1.2784094542362299E-021
  -4.7399999999999998E-002    -1.4145189342214370E-021
  -4.6299999999999994E-002    -4.7750345835912488E-021
  -4.5199999999999990E-002    -3.0985761654613770E-021
  -4.4099999999999986E-002     6.3425309391660825E-021
  -4.2999999999999997E-002     1.5058561326412178E-020
  -4.1899999999999993E-002     7.0256666106548100E-021
  -4.0799999999999989E-002    -2.1064178532469858E-020
  -3.9699999999999985E-002    -4.2842243014141389E-020
  -3.8599999999999995E-002    -1.8789827666796836E-020
  -3.7499999999999992E-002     5.4608447788007789E-020
  -3.6399999999999988E-002     1.1360087527436420E-019
  -3.5299999999999984E-002     6.7716572159982480E-020
  -3.4199999999999994E-002    -1.0299800309682560E-019
  -3.3099999999999991E-002    -2.8347337420524476E-019
  -3.1999999999999987E-002    -2.7091413586848729E-019
  -3.0899999999999997E-002     7.3059021543732779E-020
  -2.9799999999999993E-002     6.4252453491944627E-019
  -2.8699999999999989E-002     9.8929260637451230E-019
  -2.7599999999999986E-002     4.7437014181962663E-019
  -2.6499999999999996E-002    -1.1668190075133460E-018
  -2.5399999999999992E-002    -3.0402361669896490E-018
  -2.4299999999999988E-002    -2.9736231054656005E-018
  -2.3199999999999985E-002     9.1920941878322732E-019
  -2.2099999999999995E-002     7.4135317937513808E-018
  -2.0999999999999991E-002     1.0854283850255530E-017
  -1.9899999999999987E-002     4.4719848912842084E-018
  -1.8799999999999983E-002    -1.2324360815413347E-017
  -1.7699999999999994E-002    -2.8849942183481470E-017
  -1.6599999999999990E-002    -2.7391975142491429E-017
  -1.5499999999999986E-002     2.9333919356031652E-018
  -1.4399999999999996E-002     5.2092149061780147E-017
  -1.3299999999999992E-002     8.7133299902204613E-017
  -1.2199999999999989E-002     6.7578829630789844E-017
  -1.1099999999999985E-002    -2.7003567522783480E-017
  -9.9999999999999950E-003    -1.6931190704922480E-016
  -8.8999999999999913E-003    -2.7278240786115593E-016
  -7.7999999999999875E-003    -2.1641694449325334E-016
  -6.6999999999999837E-003     8.0199719806552425E-017
  -5.5999999999999939E-003     5.5099556746363281E-016
  -4.4999999999999901E-003     9.1909279293430225E-016
  -3.3999999999999864E-003     7.7278426255947491E-016
  -2.2999999999999826E-003    -1.7499310261024720E-016
  -1.1999999999999927E-003    -1.7388293623095039E-015
  -9.9999999999988987E-005    -3.0624006104693503E-015
   1.0000000000000148E-003    -2.8381507552661424E-015
   2.1000000000000185E-003    -5.3842297801819843E-017
   3.2000000000000084E-003     4.9650174515367476E-015
   4.3000000000000121E-003     9.8358990494474413E-015
   5.4000000000000159E-003     1.0521835647496394E-014
   6.5000000000000058E-003     3.3292835397319984E-015
   7.6000000000000234E-003    -1.1960200082920813E-014
   8.7000000000000133E-003    -2.9482062543226620E-014
   9.8000000000000032E-003    -3.7523573115892661E-014
   1.0900000000000021E-002    -2.3234991269318814E-014
   1.2000000000000011E-002     1.8785503480469451E-014
   1.3100000000000001E-002     7.7669716090546931E-014
   1.4200000000000018E-002     1.2313799068949804E-013
   1.5300000000000008E-002     1.1368800323895145E-013
   1.6400000000000026E-002     1.7687005085900188E-014
   1.7500000000000016E-002    -1.5864656051529924E-013
   1.8600000000000005E-002    -3.5069598050205264E-013
   1.9700000000000023E-002    -4.4054327243484015E-013
   2.0800000000000013E-002    -3.0007734578424428E-013
   2.1900000000000003E-002     1.3280354463698907E-013
   2.3000000000000020E-002     7.7358686947567867E-013
   2.4100000000000010E-002     1.3536789961535178E-012
   2.5200000000000000E-002     1.4736813115298619E-012
   2.6300000000000018E-002     7.6680572698786809E-013
   2.7400000000000008E-002    -8.6273794098340462E-013
   2.8500000000000025E-002    -3.0244752015351484E-012
   2.9600000000000015E-002    -4.7866185841349829E-012
   3.0700000000000005E-002    -4.8986131991057835E-012
   3.1800000000000023E-002    -2.3125466385581772E-012
   3.2900000000000013E-002     3.1295914210832665E-012
   3.4000000000000002E-002     1.0129809317749316E-011
   3.5100000000000020E-002     1.5848234183324372E-011
   3.6200000000000010E-002     1.6574935868263196E-011
   3.7300000000000028E-002     9.1790524833768039E-012
   3.8400000000000017E-002    -7.0256968645598938E-012
   3.9500000000000007E-002    -2.8727544648665670E-011
   4.0600000000000025E-002    -4.8272965486040320E-011
   4.1700000000000015E-002    -5.5237401458407831E-011
   4.2800000000000005E-002    -4.0006029738970383E-011
   4.3900000000000022E-002     1.4371005470706355E-012
   4.5000000000000012E-002     6.3189342647262947E-011
   4.6100000000000002E-002     1.2770230706227181E-010
   4.7200000000000020E-002     1.6843311467784616E-010
   4.8300000000000010E-002     1.5741820347248137E-010
   4.9400000000000027E-002     7.6404514659511591E-011
   5.0500000000000017E-002    -7.1804992507473742E-011
   5.1600000000000007E-002    -2.5637331146910469E-010
   5.2700000000000025E-002    -4.2017647694514437E-010
   5.3800000000000014E-002    -4.9261683621182328E-010
   5.4900000000000004E-002    -4.1232020575598938E-010
   5.6000000000000022E-002    -1.5443740730702871E-010
   5.7100000000000012E-002     2.4606097714929831E-010
   5.8200000000000002E-002     6.8483235748928450E-010
   5.9300000000000019E-002     1.0000579253599540E-009
   6.0400000000000009E-002     1.0082003010225549E-009
   6.1500000000000027E-002     5.5864923798054633E-010
   6.2600000000000017E-002    -4.0509240406549907E-010
   6.3700000000000007E-002    -1.7948577069049065E-009
   6.4800000000000024E-002    -3.3552425282579179E-009
   6.5900000000000014E-002    -4.6811461373863494E-009
   6.7000000000000004E-002    -5.2775996906007094E-009
   6.8100000000000022E-002    -4.6519379459653010E-009
   6.9200000000000012E-002    -2.4171205037504251E-009
   7.0300000000000029E-002     1.6214796172420165E-009
   7.1400000000000019E-002     7.4228951874033555E-009
   7.2500000000000009E-002     1.4729579334016307E-008
   7.3600000000000027E-002     2.3151990546921297E-008
   7.4700000000000016E-002     3.2304118491310874E-008
   7.5800000000000006E-002     4.1959861363238815E-008
   7.6900000000000024E-002     5.2192781652138365E-008
   7.8000000000000014E-002     6.3462671562319883E-008
   7.9100000000000004E-002     7.6628204226381058E-008
   8.0200000000000021E-002     9.2882878277578129E-008
   8.1300000000000011E-002     1.1363631813310349E-007
   8.2400000000000029E-002     1.4038023721241188E-007
   8.3500000000000019E-002     1.7458188494856586E-007
   8.4600000000000009E-002     2.1764790858469496E-007
   8.5700000000000026E-002     2.7097789256913529E-007
   8.6800000000000016E-002     3.3610604077694006E-007
   8.7900000000000006E-002     4.1489698787700036E-007
   8.9000000000000024E-002     5.0975160093003069E-007
   9.0100000000000013E-002     6.2377051790463156E-007
   9.1200000000000003E-002     7.6084774036644376E-007
   9.2300000000000021E-002     9.2567859155678889E-007
   9.3400000000000011E-002     1.1237162880206597E-006
   9.4500000000000028E-002     1.3611061149276793E-006
   9.5600000000000018E-002     1.6446554127469426E-006
   9.6700000000000008E-002     1.9818814962491160E-006
   9.7800000000000026E-002     2.3811385290173348E-006
   9.8900000000000016E-002     2.8518356884887908E-006
  0.10000000000000001          3.4046786367980530E-006
  0.10110000000000002          4.0518925743526779E-006
  0.10220000000000001          4.8073866310005542E-006
  0.10330000000000003          5.6868343563110102E-006
  0.10440000000000002          6.7076675804855768E-006
  0.10550000000000001          7.8890016084187664E-006
  0.10660000000000003          9.2515238065971062E-006
  0.10770000000000002          1.0817446309374645E-005
  0.10880000000000001          1.2610511475941166E-005
  0.10990000000000003          1.4655923223472200E-005
  0.11100000000000002          1.6980420696199872E-005
  0.11210000000000001          1.9612174583016895E-005
  0.11320000000000002          2.2580719814868644E-005
  0.11430000000000001          2.5916717277141288E-005
  0.11540000000000003          2.9651588192791678E-005
  0.11650000000000002          3.3817072107922286E-005
  0.11760000000000001          3.8444686651928350E-005
  0.11870000000000003          4.3565079977270216E-005
  0.11980000000000002          4.9207286792807281E-005
  0.12090000000000001          5.5397886171704158E-005
  0.12200000000000003          6.2160288507584482E-005
  0.12310000000000001          6.9513633206952363E-005
  0.12420000000000003          7.7471951954066753E-005
  0.12530000000000002          8.6042826296761632E-005
  0.12640000000000001          9.5226256235036999E-005
  0.12750000000000003          1.0501385258976370E-004
  0.12860000000000002          1.1538751277839765E-004
  0.12970000000000001          1.2631817662622780E-004
  0.13080000000000003          1.3776459672953933E-004
  0.13190000000000002          1.4967202150728554E-004
  0.13300000000000001          1.6197132936213166E-004
  0.13410000000000000          1.7457774083595723E-004
  0.13520000000000004          1.8739048391580582E-004
  0.13630000000000003          2.0029113511554897E-004
  0.13740000000000002          2.1314363402780145E-004
  0.13850000000000001          2.2579461801797152E-004
  0.13960000000000000          2.3807324760127813E-004
  0.14070000000000005          2.4979221052490175E-004
  0.14180000000000004          2.6074869674630463E-004
  0.14290000000000003          2.7072575176134706E-004
  0.14400000000000002          2.7949464856646955E-004
  0.14510000000000001          2.8681632829830050E-004
  0.14620000000000000          2.9244451434351504E-004
  0.14730000000000004          2.9612879734486341E-004
  0.14840000000000003          2.9761821497231722E-004
  0.14950000000000002          2.9666488990187645E-004
  0.15060000000000001          2.9302865732461214E-004
  0.15170000000000000          2.8648195439018309E-004
  0.15280000000000005          2.7681485516950488E-004
  0.15390000000000004          2.6384065859019756E-004
  0.15500000000000003          2.4740031221881509E-004
  0.15610000000000002          2.2736848040949553E-004
  0.15720000000000001          2.0365789532661438E-004
  0.15830000000000000          1.7622415907680988E-004
  0.15940000000000004          1.4506973093375564E-004
  0.16050000000000003          1.1024771083611995E-004
  0.16160000000000002          7.1864727942738682E-005
  0.16270000000000001          3.0083698220551014E-005
  0.16380000000000000         -1.4874479347781744E-005
  0.16490000000000005         -6.2730105128139257E-005
  0.16600000000000004         -1.1314493895042688E-004
  0.16710000000000003         -1.6572393360547721E-004
  0.16820000000000002         -2.2001782781444490E-004
  0.16930000000000001         -2.7552820392884314E-004
  0.17040000000000000         -3.3171215909533203E-004
  0.17150000000000004         -3.8798875175416470E-004
  0.17260000000000003         -4.4374490971677005E-004
  0.17370000000000002         -4.9834407400339842E-004
  0.17480000000000001         -5.5113545386120677E-004
  0.17590000000000000         -6.0146360192447901E-004
  0.17700000000000005         -6.4867897890508175E-004
  0.17810000000000004         -6.9214677205309272E-004
  0.17920000000000003         -7.3125865310430527E-004
  0.18030000000000002         -7.6544278999790549E-004
  0.18140000000000001         -7.9417362576350570E-004
  0.18250000000000000         -8.1698328722268343E-004
  0.18360000000000004         -8.3347217878326774E-004
  0.18470000000000003         -8.4331375546753407E-004
  0.18580000000000002         -8.4626273019239306E-004
  0.18690000000000001         -8.4215827519074082E-004
  0.18800000000000000         -8.3092920249328017E-004
  0.18910000000000005         -8.1259821308776736E-004
  0.19020000000000004         -7.8728096559643745E-004
  0.19130000000000003         -7.5518822995945811E-004
  0.19240000000000002         -7.1662117261439562E-004
  0.19350000000000001         -6.7196809686720371E-004
  0.19460000000000005         -6.2169460579752922E-004
  0.19570000000000004         -5.6634063366800547E-004
  0.19680000000000003         -5.0651241326704621E-004
  0.19790000000000002         -4.4287453056313097E-004
  0.19900000000000001         -3.7613711901940405E-004
  0.20010000000000000         -3.0704299570061266E-004
  0.20120000000000005         -2.3635569959878922E-004
  0.20230000000000004         -1.6484891239088029E-004
  0.20340000000000003         -9.3296272098086774E-005
  0.20450000000000002         -2.2458245439338498E-005
  0.20560000000000000          4.6929289965191856E-005
  0.20670000000000005          1.1416675260988995E-004
  0.20780000000000004          1.7860105435829610E-004
  0.20890000000000003          2.3963434796314687E-004
