 -0.12000000000000000          0.0000000000000000     
 -0.11889999999999999          0.0000000000000000     
 -0.11780000000000000        -0.13998456299304962     
 -0.11670000000000000          5.2324306219816208E-002
 -0.11559999999999999         0.56046313047409058     
 -0.11449999999999999          9.9298350512981415E-002
 -0.11340000000000000         -1.1527042388916016     
 -0.11230000000000000        -0.55342298746109009     
 -0.11119999999999999          1.6516834497451782     
 -0.11009999999999999         0.39463433623313904     
 -0.10900000000000000         -4.3418354988098145     
 -0.10790000000000000         -2.0974042415618896     
 -0.10679999999999999          11.097189903259277     
 -0.10569999999999999          16.248785018920898     
 -0.10460000000000000         -6.1147069931030273     
 -0.10349999999999999         -35.920669555664062     
 -0.10239999999999999         -27.007156372070312     
 -0.10130000000000000          23.177333831787109     
 -0.10020000000000000          51.184936523437500     
  -9.9099999999999994E-002     11.960785865783691     
  -9.7999999999999990E-002    -41.176074981689453     
  -9.6899999999999986E-002    -21.417133331298828     
  -9.5799999999999996E-002     52.184162139892578     
  -9.4699999999999993E-002     60.060848236083984     
  -9.3599999999999989E-002    -39.851093292236328     
  -9.2499999999999999E-002    -121.23009490966797     
  -9.1399999999999995E-002    -59.311450958251953     
  -9.0299999999999991E-002     63.293514251708984     
  -8.9200000000000002E-002     46.401126861572266     
  -8.8099999999999984E-002    -131.76895141601562     
  -8.6999999999999994E-002    -251.61845397949219     
  -8.5899999999999990E-002    -156.15942382812500     
  -8.4799999999999986E-002     7.4952926635742188     
  -8.3699999999999997E-002    -11.775815010070801     
  -8.2599999999999993E-002    -203.33683776855469     
  -8.1499999999999989E-002    -316.56985473632812     
  -8.0399999999999999E-002    -248.55838012695312     
  -7.9299999999999995E-002    -199.41072082519531     
  -7.8199999999999992E-002    -342.73220825195312     
  -7.7100000000000002E-002    -533.17266845703125     
  -7.5999999999999984E-002    -544.72729492187500     
  -7.4899999999999994E-002    -482.42001342773438     
  -7.3799999999999991E-002    -672.41180419921875     
  -7.2699999999999987E-002    -1133.3558349609375     
  -7.1599999999999997E-002    -1465.3139648437500     
  -7.0499999999999993E-002    -1426.4022216796875     
  -6.9399999999999989E-002    -1365.6252441406250     
  -6.8300000000000000E-002    -1785.9785156250000     
  -6.7199999999999996E-002    -2607.5148925781250     
  -6.6099999999999992E-002    -3242.5732421875000     
  -6.5000000000000002E-002    -3441.0393066406250     
  -6.3899999999999985E-002    -3677.5722656250000     
  -6.2799999999999995E-002    -4480.3974609375000     
  -6.1699999999999991E-002    -5683.7963867187500     
  -6.0599999999999994E-002    -6721.7460937500000     
  -5.9499999999999990E-002    -7509.3315429687500     
  -5.8399999999999994E-002    -8558.8623046875000     
  -5.7299999999999990E-002    -10166.148437500000     
  -5.6199999999999986E-002    -11959.611328125000     
  -5.5099999999999996E-002    -13540.081054687500     
  -5.3999999999999992E-002    -15197.585937500000     
  -5.2899999999999989E-002    -17512.919921875000     
  -5.1799999999999985E-002    -20419.019531250000     
  -5.0699999999999995E-002    -23236.369140625000     
  -4.9599999999999991E-002    -25736.501953125000     
  -4.8499999999999988E-002    -28606.603515625000     
  -4.7399999999999998E-002    -32494.498046875000     
  -4.6299999999999994E-002    -37002.113281250000     
  -4.5199999999999990E-002    -41208.101562500000     
  -4.4099999999999986E-002    -45017.457031250000     
  -4.2999999999999997E-002    -49330.273437500000     
  -4.1899999999999993E-002    -54722.468750000000     
  -4.0799999999999989E-002    -60584.371093750000     
  -3.9699999999999985E-002    -66014.453125000000     
  -3.8599999999999995E-002    -71088.609375000000     
  -3.7499999999999992E-002    -76622.093750000000     
  -3.6399999999999988E-002    -82816.718750000000     
  -3.5299999999999984E-002    -88902.453125000000     
  -3.4199999999999994E-002    -94294.578125000000     
  -3.3099999999999991E-002    -99409.695312500000     
  -3.1999999999999987E-002    -104823.25781250000     
  -3.0899999999999997E-002    -110094.19531250000     
  -2.9799999999999993E-002    -114196.88281250000     
  -2.8699999999999989E-002    -116947.01562500000     
  -2.7599999999999986E-002    -119203.90625000000     
  -2.6499999999999996E-002    -121382.32031250000     
  -2.5399999999999992E-002    -122515.80468750000     
  -2.4299999999999988E-002    -121367.89843750000     
  -2.3199999999999985E-002    -117995.00781250000     
  -2.2099999999999995E-002    -113443.88281250000     
  -2.0999999999999991E-002    -107969.13281250000     
  -1.9899999999999987E-002    -100524.96093750000     
  -1.8799999999999983E-002    -90110.960937500000     
  -1.7699999999999994E-002    -77041.820312500000     
  -1.6599999999999990E-002    -62182.441406250000     
  -1.5499999999999986E-002    -45424.648437500000     
  -1.4399999999999996E-002    -25828.916015625000     
  -1.3299999999999992E-002    -3114.2705078125000     
  -1.2199999999999989E-002     21827.617187500000     
  -1.1099999999999985E-002     48265.875000000000     
  -9.9999999999999950E-003     76731.429687500000     
  -8.8999999999999913E-003     108055.29687500000     
  -7.7999999999999875E-003     141842.45312500000     
  -6.6999999999999837E-003     176622.78125000000     
  -5.5999999999999939E-003     211561.28125000000     
  -4.4999999999999901E-003     247241.98437500000     
  -3.3999999999999864E-003     284165.25000000000     
  -2.2999999999999826E-003     321461.25000000000     
  -1.1999999999999927E-003     357548.18750000000     
  -9.9999999999988987E-005     391753.00000000000     
   1.0000000000000148E-003     424419.43750000000     
   2.1000000000000185E-003     455447.96875000000     
   3.2000000000000084E-003     483620.68750000000     
   4.3000000000000121E-003     507556.40625000000     
   5.4000000000000159E-003     527072.18750000000     
   6.5000000000000058E-003     542628.31250000000     
   7.6000000000000234E-003     553775.62500000000     
   8.7000000000000133E-003     559024.12500000000     
   9.8000000000000032E-003     557438.12500000000     
   1.0900000000000021E-002     549485.68750000000     
   1.2000000000000011E-002     535866.12500000000     
   1.3100000000000001E-002     516191.40625000000     
   1.4200000000000018E-002     489413.59375000000     
   1.5300000000000008E-002     455393.21875000000     
   1.6400000000000026E-002     415116.59375000000     
   1.7500000000000016E-002     369414.81250000000     
   1.8600000000000005E-002     318126.78125000000     
   1.9700000000000023E-002     261020.28125000000     
   2.0800000000000013E-002     198950.31250000000     
   2.1900000000000003E-002     133443.57812500000     
   2.3000000000000020E-002     65385.652343750000     
   2.4100000000000010E-002    -5207.6503906250000     
   2.5200000000000000E-002    -77949.554687500000     
   2.6300000000000018E-002    -151386.90625000000     
   2.7400000000000008E-002    -223779.60937500000     
   2.8500000000000025E-002    -294270.62500000000     
   2.9600000000000015E-002    -362637.93750000000     
   3.0700000000000005E-002    -428200.09375000000     
   3.1800000000000023E-002    -489585.46875000000     
   3.2900000000000013E-002    -545526.68750000000     
   3.4000000000000002E-002    -595521.81250000000     
   3.5100000000000020E-002    -639442.93750000000     
   3.6200000000000010E-002    -676620.50000000000     
   3.7300000000000028E-002    -706020.62500000000     
   3.8400000000000017E-002    -727244.62500000000     
   3.9500000000000007E-002    -740594.62500000000     
   4.0600000000000025E-002    -746364.43750000000     
   4.1700000000000015E-002    -744183.56250000000     
   4.2800000000000005E-002    -733804.50000000000     
   4.3900000000000022E-002    -715456.06250000000     
   4.5000000000000012E-002    -690009.12500000000     
   4.6100000000000002E-002    -658146.56250000000     
   4.7200000000000020E-002    -620213.50000000000     
   4.8300000000000010E-002    -576683.75000000000     
   4.9400000000000027E-002    -528410.31250000000     
   5.0500000000000017E-002    -476179.81250000000     
   5.1600000000000007E-002    -420768.59375000000     
   5.2700000000000025E-002    -362952.71875000000     
   5.3800000000000014E-002    -303621.56250000000     
   5.4900000000000004E-002    -243728.28125000000     
   5.6000000000000022E-002    -184070.23437500000     
   5.7100000000000012E-002    -125280.19531250000     
   5.8200000000000002E-002    -68021.609375000000     
   5.9300000000000019E-002    -12966.848632812500     
   6.0400000000000009E-002     39358.148437500000     
   6.1500000000000027E-002     88409.664062500000     
   6.2600000000000017E-002     133571.67187500000     
   6.3700000000000007E-002     174365.89062500000     
   6.4800000000000024E-002     210738.42187500000     
   6.5900000000000014E-002     242846.90625000000     
   6.7000000000000004E-002     270569.37500000000     
   6.8100000000000022E-002     293454.09375000000     
   6.9200000000000012E-002     311326.81250000000     
   7.0300000000000029E-002     324615.81250000000     
   7.1400000000000019E-002     333891.18750000000     
   7.2500000000000009E-002     339219.12500000000     
   7.3600000000000027E-002     340359.03125000000     
   7.4700000000000016E-002     337603.03125000000     
   7.5800000000000006E-002     331838.96875000000     
   7.6900000000000024E-002     323688.15625000000     
   7.8000000000000014E-002     312983.40625000000     
   7.9100000000000004E-002     299497.84375000000     
   8.0200000000000021E-002     283895.25000000000     
   8.1300000000000011E-002     267343.40625000000     
   8.2400000000000029E-002     250299.79687500000     
   8.3500000000000019E-002     232295.98437500000     
   8.4600000000000009E-002     213124.90625000000     
   8.5700000000000026E-002     193626.25000000000     
   8.6800000000000016E-002     174825.75000000000     
   8.7900000000000006E-002     156713.64062500000     
   8.9000000000000024E-002     138563.28125000000     
   9.0100000000000013E-002     120439.05468750000     
   9.1200000000000003E-002     103435.84375000000     
   9.2300000000000021E-002     88220.945312500000     
   9.3400000000000011E-002     74083.515625000000     
   9.4500000000000028E-002     60047.914062500000     
   9.5600000000000018E-002     46492.160156250000     
   9.6700000000000008E-002     34736.351562500000     
   9.7800000000000026E-002     25100.927734375000     
   9.8900000000000016E-002     16410.359375000000     
  0.10000000000000001          7726.7929687500000     
  0.10110000000000002         -293.00247192382812     
  0.10220000000000001         -6487.4838867187500     
  0.10330000000000003         -11066.809570312500     
  0.10440000000000002         -15359.666992187500     
  0.10550000000000001         -19784.945312500000     
  0.10660000000000003         -23243.986328125000     
  0.10770000000000002         -24938.308593750000     
  0.10880000000000001         -25826.822265625000     
  0.10990000000000003         -27324.890625000000     
  0.11100000000000002         -29194.037109375000     
  0.11210000000000001         -29889.718750000000     
  0.11320000000000002         -28954.275390625000     
  0.11430000000000001         -27851.232421875000     
  0.11540000000000003         -27872.251953125000     
  0.11650000000000002         -28275.107421875000     
  0.11760000000000001         -27484.523437500000     
  0.11870000000000003         -25547.552734375000     
  0.11980000000000002         -24081.636718750000     
  0.12090000000000001         -23785.775390625000     
  0.12200000000000003         -23399.257812500000     
  0.12310000000000001         -21722.736328125000     
  0.12420000000000003         -19564.843750000000     
  0.12530000000000002         -18548.238281250000     
  0.12640000000000001         -18581.392578125000     
  0.12750000000000003         -17944.835937500000     
  0.12860000000000002         -15924.815429687500     
  0.12970000000000001         -13966.387695312500     
  0.13080000000000003         -13511.000000000000     
  0.13190000000000002         -13798.532226562500     
  0.13300000000000001         -13022.892578125000     
  0.13410000000000000         -11088.807617187500     
  0.13520000000000004         -9748.4785156250000     
  0.13630000000000003         -9895.6660156250000     
  0.13740000000000002         -10188.413085937500     
  0.13850000000000001         -9120.5068359375000     
  0.13960000000000000         -7359.2211914062500     
  0.14070000000000005         -6728.9741210937500     
  0.14180000000000004         -7396.1328125000000     
  0.14290000000000003         -7597.9174804687500     
  0.14400000000000002         -6328.0122070312500     
  0.14510000000000001         -4871.6860351562500     
  0.14620000000000000         -4821.7470703125000     
  0.14730000000000004         -5651.4931640625000     
  0.14840000000000003         -5560.9790039062500     
  0.14950000000000002         -4253.2832031250000     
  0.15060000000000001         -3361.3142089843750     
  0.15170000000000000         -3881.6958007812500     
  0.15280000000000005         -4617.0170898437500     
  0.15390000000000004         -4036.1313476562500     
  0.15500000000000003         -2674.4396972656250     
  0.15610000000000002         -2337.4675292968750     
  0.15720000000000001         -3321.6477050781250     
  0.15830000000000000         -3923.3786621093750     
  0.15940000000000004         -3013.0078125000000     
  0.16050000000000003         -1738.6104736328125     
  0.16160000000000002         -1779.5560302734375     
  0.16270000000000001         -2829.6918945312500     
  0.16380000000000000         -3122.3566894531250     
  0.16490000000000005         -2125.1157226562500     
  0.16600000000000004         -1273.9234619140625     
  0.16710000000000003         -1704.5727539062500     
  0.16820000000000002         -2531.5993652343750     
  0.16930000000000001         -2286.6853027343750     
  0.17040000000000000         -1219.6276855468750     
  0.17150000000000004         -889.18615722656250     
  0.17260000000000003         -1719.8496093750000     
  0.17370000000000002         -2327.9565429687500     
  0.17480000000000001         -1652.0106201171875     
  0.17590000000000000         -590.08343505859375     
  0.17700000000000005         -631.03387451171875     
  0.17810000000000004         -1598.4729003906250     
  0.17920000000000003         -1945.8696289062500     
  0.18030000000000002         -1107.1955566406250     
  0.18140000000000001         -307.63403320312500     
  0.18250000000000000         -657.15380859375000     
  0.18360000000000004         -1490.5966796875000     
  0.18470000000000003         -1451.5212402343750     
  0.18580000000000002         -571.14709472656250     
  0.18690000000000001         -163.20938110351562     
  0.18800000000000000         -774.04052734375000     
  0.18910000000000005         -1371.9727783203125     
  0.19020000000000004         -967.14447021484375     
  0.19130000000000003         -116.51432037353516     
  0.19240000000000002         -28.823978424072266     
  0.19350000000000001         -711.10235595703125     
  0.19460000000000005         -996.21350097656250     
  0.19570000000000004         -346.98724365234375     
  0.19680000000000003          362.04290771484375     
  0.19790000000000002          224.80088806152344     
  0.19900000000000001         -323.81619262695312     
  0.20010000000000000         -216.31939697265625     
  0.20120000000000005          613.77294921875000     
  0.20230000000000004          1176.8797607421875     
  0.20340000000000003          967.72613525390625     
  0.20450000000000002          707.78454589843750     
  0.20560000000000000          1211.9188232421875     
  0.20670000000000005          2171.2150878906250     
  0.20780000000000004          2683.5244140625000     
  0.20890000000000003          2642.4030761718750     
