 -0.12000000000000000          0.0000000000000000
 -0.11889999999999999          0.0000000000000000
 -0.11780000000000000          0.0000000000000000
 -0.11670000000000000          0.0000000000000000
 -0.11559999999999999          0.0000000000000000
 -0.11449999999999999          0.0000000000000000
 -0.11340000000000000          0.0000000000000000
 -0.11230000000000000          4.5173334915543855E-021
 -0.11119999999999999          2.6953383395904554E-021
 -0.11009999999999999         -3.9686148311642383E-020
 -0.10900000000000000         -4.3154532775948567E-020
 -0.10790000000000000          1.2673961825370042E-019
 -0.10679999999999999          1.1275675038395090E-019
 -0.10569999999999999         -2.9436460283678905E-019
 -0.10460000000000000          7.7179652784438657E-019
 -0.10349999999999999          3.4095613503514595E-018
 -0.10239999999999999         -2.6647571734607502E-018
 -0.10130000000000000         -2.4008300202614664E-017
 -0.10020000000000000         -2.3006908735613068E-017
  -9.9099999999999994E-002     5.9794438026845214E-017
  -9.7999999999999990E-002     1.6465776540652784E-016
  -9.6899999999999986E-002     6.5371812494824860E-017
  -9.5799999999999996E-002    -3.2096627411241083E-016
  -9.4699999999999993E-002    -5.9947491586458145E-016
  -9.3599999999999989E-002    -2.6554567599717041E-016
  -9.2499999999999999E-002     5.2617909029585791E-016
  -9.1399999999999995E-002     1.2265268951511580E-015
  -9.0299999999999991E-002     1.9775485519550650E-015
  -8.9200000000000002E-002     2.6896686324695421E-015
  -8.8099999999999984E-002     1.9473947878377427E-016
  -8.6999999999999994E-002    -9.5672506917644784E-015
  -8.5899999999999990E-002    -2.1019358061274800E-014
  -8.4799999999999986E-002    -1.4576915249951000E-014
  -8.3699999999999997E-002     2.3028618467983882E-014
  -8.2599999999999993E-002     6.8656241987170158E-014
  -8.1499999999999989E-002     7.0093887291622359E-014
  -8.0399999999999999E-002     1.8026813528514932E-015
  -7.9299999999999995E-002    -9.8447535930648589E-014
  -7.8199999999999992E-002    -1.7167478105328121E-013
  -7.7100000000000002E-002    -1.9459214513177503E-013
  -7.5999999999999984E-002    -1.4046683466991533E-013
  -7.4899999999999994E-002     9.1882779867675374E-014
  -7.3799999999999991E-002     5.6259548885870259E-013
  -7.2699999999999987E-002     1.0080226583997209E-012
  -7.1599999999999997E-002     8.3523872497145990E-013
  -7.0499999999999993E-002    -2.9889721882454812E-013
  -6.9399999999999989E-002    -1.8545852787515971E-012
  -6.8300000000000000E-002    -2.6645736398572817E-012
  -6.7199999999999996E-002    -2.0365252453163896E-012
  -6.6099999999999992E-002    -3.4666567576627227E-013
  -6.5000000000000002E-002     1.7393223363318389E-012
  -6.3899999999999985E-002     4.1749273309299451E-012
  -6.2799999999999995E-002     6.7709908860291712E-012
  -6.1699999999999991E-002     7.5979621899646688E-012
  -6.0599999999999994E-002     3.6871313294217778E-012
  -5.9499999999999990E-002    -5.3345947451099995E-012
  -5.8399999999999994E-002    -1.5047066023732292E-011
  -5.7299999999999990E-002    -1.9570288098402777E-011
  -5.6199999999999986E-002    -1.7235563670725540E-011
  -5.5099999999999996E-002    -1.0806295962229040E-011
  -5.3999999999999992E-002    -1.1947521964816854E-012
  -5.2899999999999989E-002     1.5830902561075888E-011
  -5.1799999999999985E-002     4.2452204945808703E-011
  -5.0699999999999995E-002     6.8811366327192758E-011
  -4.9599999999999991E-002     7.5453844561312877E-011
  -4.8499999999999988E-002     4.9080951108892990E-011
  -4.7399999999999998E-002    -6.5035745885899665E-012
  -4.6299999999999994E-002    -7.7458955916043237E-011
  -4.5199999999999990E-002    -1.5275551656923625E-010
  -4.4099999999999986E-002    -2.2125654086657676E-010
  -4.2999999999999997E-002    -2.5614368959203659E-010
  -4.1899999999999993E-002    -2.1505962288781433E-010
  -4.0799999999999989E-002    -6.9064864938184201E-011
  -3.9699999999999985E-002     1.6694917670534437E-010
  -3.8599999999999995E-002     4.3755216116991846E-010
  -3.7499999999999992E-002     6.7744632126220949E-010
  -3.6399999999999988E-002     8.2886347785304793E-010
  -3.5299999999999984E-002     8.2946916002413218E-010
  -3.4199999999999994E-002     6.0446880834064132E-010
  -3.3099999999999991E-002     9.7095761986132345E-011
  -3.1999999999999987E-002    -6.8152122834064244E-010
  -3.0899999999999997E-002    -1.6310359729487800E-009
  -2.9799999999999993E-002    -2.5782620483028040E-009
  -2.8699999999999989E-002    -3.2951077422183062E-009
  -2.7599999999999986E-002    -3.5026757050360402E-009
  -2.6499999999999996E-002    -2.8971747223494049E-009
  -2.5399999999999992E-002    -1.2209874222790518E-009
  -2.4299999999999988E-002     1.6695317350823302E-009
  -2.3199999999999985E-002     5.8055045215610335E-009
  -2.2099999999999995E-002     1.1159294821538879E-008
  -2.0999999999999991E-002     1.7666970109075919E-008
  -1.9899999999999987E-002     2.5200602493669066E-008
  -1.8799999999999983E-002     3.3585799030788621E-008
  -1.7699999999999994E-002     4.2738832917166292E-008
  -1.6599999999999990E-002     5.2839983055719131E-008
  -1.5499999999999986E-002     6.4385211828721367E-008
  -1.4399999999999996E-002     7.8097251332565065E-008
  -1.3299999999999992E-002     9.4849298193366849E-008
  -1.2199999999999989E-002     1.1570809022032336E-007
  -1.1099999999999985E-002     1.4199854092566966E-007
  -9.9999999999999950E-003     1.7523097994853742E-007
  -8.8999999999999913E-003     2.1693161045277520E-007
  -7.7999999999999875E-003     2.6858714363697800E-007
  -6.6999999999999837E-003     3.3180492664541816E-007
  -5.5999999999999939E-003     4.0853166183296707E-007
  -4.4999999999999901E-003     5.0113510496885283E-007
  -3.3999999999999864E-003     6.1238205262270640E-007
  -2.2999999999999826E-003     7.4549978990035015E-007
  -1.1999999999999927E-003     9.0435429456192651E-007
  -9.9999999999988987E-005     1.0935963246083702E-006
   1.0000000000000148E-003     1.3186769365347573E-006
   2.1000000000000185E-003     1.5858481674513314E-006
   3.2000000000000084E-003     1.9022559172299225E-006
   4.3000000000000121E-003     2.2760336833016481E-006
   5.4000000000000159E-003     2.7162589049112285E-006
   6.5000000000000058E-003     3.2328591714758659E-006
   7.6000000000000234E-003     3.8367279557860456E-006
   8.7000000000000133E-003     4.5400706767395604E-006
   9.8000000000000032E-003     5.3566195674648043E-006
   1.0900000000000021E-002     6.3014877014211379E-006
   1.2000000000000011E-002     7.3909354796342086E-006
   1.3100000000000001E-002     8.6424179244204424E-006
   1.4200000000000018E-002     1.0074990314024035E-005
   1.5300000000000008E-002     1.1709571481333114E-005
   1.6400000000000026E-002     1.3568735084845684E-005
   1.7500000000000016E-002     1.5676198017899878E-005
   1.8600000000000005E-002     1.8056523913401179E-005
   1.9700000000000023E-002     2.0735084035550244E-005
   2.0800000000000013E-002     2.3737817173241638E-005
   2.1900000000000003E-002     2.7090889489045367E-005
   2.3000000000000020E-002     3.0820105166640133E-005
   2.4100000000000010E-002     3.4950582630699500E-005
   2.5200000000000000E-002     3.9506459870608523E-005
   2.6300000000000018E-002     4.4510317820822820E-005
   2.7400000000000008E-002     4.9982532800640911E-005
   2.8500000000000025E-002     5.5940516176633537E-005
   2.9600000000000015E-002     6.2398074078373611E-005
   3.0700000000000005E-002     6.9364432420115918E-005
   3.1800000000000023E-002     7.6842916314490139E-005
   3.2900000000000013E-002     8.4829596744384617E-005
   3.4000000000000002E-002     9.3312672106549144E-005
   3.5100000000000020E-002     1.0227122402284294E-004
   3.6200000000000010E-002     1.1167460615979508E-004
   3.7300000000000028E-002     1.2148102541686967E-004
   3.8400000000000017E-002     1.3163674157112837E-004
   3.9500000000000007E-002     1.4207650383468717E-004
   4.0600000000000025E-002     1.5272162272594869E-004
   4.1700000000000015E-002     1.6347919881809503E-004
   4.2800000000000005E-002     1.7424265388399363E-004
   4.3900000000000022E-002     1.8489125068299472E-004
   4.5000000000000012E-002     1.9528968550730497E-004
   4.6100000000000002E-002     2.0528805907815695E-004
   4.7200000000000020E-002     2.1472372463904321E-004
   4.8300000000000010E-002     2.2342106967698783E-004
   4.9400000000000027E-002     2.3119284014683217E-004
   5.0500000000000017E-002     2.3784444783814251E-004
   5.1600000000000007E-002     2.4317458155564964E-004
   5.2700000000000025E-002     2.4697650223970413E-004
   5.3800000000000014E-002     2.4904185556806624E-004
   5.4900000000000004E-002     2.4916487745940685E-004
   5.6000000000000022E-002     2.4714521714486182E-004
   5.7100000000000012E-002     2.4279000353999436E-004
   5.8200000000000002E-002     2.3591972421854734E-004
   5.9300000000000019E-002     2.2637557412963361E-004
   6.0400000000000009E-002     2.1401871345005929E-004
   6.1500000000000027E-002     1.9873365818057209E-004
   6.2600000000000017E-002     1.8043282034341246E-004
   6.3700000000000007E-002     1.5906480257399380E-004
   6.4800000000000024E-002     1.3461938942782581E-004
   6.5900000000000014E-002     1.0712656512623653E-004
   6.7000000000000004E-002     7.6658390753436834E-005
   6.8100000000000022E-002     4.3328895117156208E-005
   6.9200000000000012E-002     7.2991169872693717E-006
   7.0300000000000029E-002    -3.1216528441291302E-005
   7.1400000000000019E-002    -7.1954033046495169E-005
   7.2500000000000009E-002    -1.1460505629656836E-004
   7.3600000000000027E-002    -1.5881894796621054E-004
   7.4700000000000016E-002    -2.0419996872078627E-004
   7.5800000000000006E-002    -2.5031701079569757E-004
   7.6900000000000024E-002    -2.9670799267478287E-004
   7.8000000000000014E-002    -3.4287880407646298E-004
   7.9100000000000004E-002    -3.8830880657769740E-004
   8.0200000000000021E-002    -4.3246441055089235E-004
   8.1300000000000011E-002    -4.7480830107815564E-004
   8.2400000000000029E-002    -5.1481125410646200E-004
   8.3500000000000019E-002    -5.5195472668856382E-004
   8.4600000000000009E-002    -5.8572849957272410E-004
   8.5700000000000026E-002    -6.1564455972984433E-004
   8.6800000000000016E-002    -6.4125581411644816E-004
   8.7900000000000006E-002    -6.6216697450727224E-004
   8.9000000000000024E-002    -6.7803746787831187E-004
   9.0100000000000013E-002    -6.8857969017699361E-004
   9.1200000000000003E-002    -6.9356424501165748E-004
   9.2300000000000021E-002    -6.9282919866964221E-004
   9.3400000000000011E-002    -6.8628898588940501E-004
   9.4500000000000028E-002    -6.7393440986052155E-004
   9.5600000000000018E-002    -6.5583526156842709E-004
   9.6700000000000008E-002    -6.3213857356458902E-004
   9.7800000000000026E-002    -6.0306343948468566E-004
   9.8900000000000016E-002    -5.6889682309702039E-004
  0.10000000000000001         -5.2998808678239584E-004
  0.10110000000000002         -4.8675396828912199E-004
  0.10220000000000001         -4.3967654346488416E-004
  0.10330000000000003         -3.8928978028707206E-004
  0.10440000000000002         -3.3615593565627933E-004
  0.10550000000000001         -2.8085825033485889E-004
  0.10660000000000003         -2.2400493617169559E-004
  0.10770000000000002         -1.6622217663098127E-004
  0.10880000000000001         -1.0814926645252854E-004
  0.10990000000000003         -5.0417027523508295E-005
  0.11100000000000002          6.3768475229153410E-006
  0.11210000000000001          6.1663369706366211E-005
  0.11320000000000002          1.1490497854538262E-004
  0.11430000000000001          1.6559747746214271E-004
  0.11540000000000003          2.1327336435206234E-004
  0.11650000000000002          2.5752629153430462E-004
  0.11760000000000001          2.9801792697981000E-004
  0.11870000000000003          3.3447574242018163E-004
  0.11980000000000002          3.6668064421974123E-004
  0.12090000000000001          3.9447468589060009E-004
  0.12200000000000003          4.1776261059567332E-004
  0.12310000000000001          4.3650914449244738E-004
  0.12420000000000003          4.5073495130054653E-004
  0.12530000000000002          4.6052888501435518E-004
  0.12640000000000001          4.6603803639300168E-004
  0.12750000000000003          4.6745216241106391E-004
  0.12860000000000002          4.6498887240886688E-004
  0.12970000000000001          4.5889313332736492E-004
  0.13080000000000003          4.4945025001652539E-004
  0.13190000000000002          4.3698592344298959E-004
  0.13300000000000001          4.2184776975773275E-004
  0.13410000000000000          4.0437962161377072E-004
  0.13520000000000004          3.8491631858050823E-004
  0.13630000000000003          3.6379671655595303E-004
  0.13740000000000002          3.4136680187657475E-004
  0.13850000000000001          3.1796851544640958E-004
  0.13960000000000000          2.9392231954261661E-004
  0.14070000000000005          2.6952524785883725E-004
  0.14180000000000004          2.4505634792149067E-004
  0.14290000000000003          2.2077622998040169E-004
  0.14400000000000002          1.9691696797963232E-004
  0.14510000000000001          1.7367920372635126E-004
  0.14620000000000000          1.5124013589229435E-004
  0.14730000000000004          1.2976044672541320E-004
  0.14840000000000003          1.0937477054540068E-004
  0.14950000000000002          9.0179833932779729E-005
  0.15060000000000001          7.2239643486682326E-005
  0.15170000000000000          5.5603544751647860E-005
  0.15280000000000005          4.0311642806045711E-005
  0.15390000000000004          2.6382651412859559E-005
  0.15500000000000003          1.3801954992231913E-005
  0.15610000000000002          2.5348324470542138E-006
  0.15720000000000001         -7.4527692959236447E-006
  0.15830000000000000         -1.6194715499295853E-005
  0.15940000000000004         -2.3744300051475875E-005
  0.16050000000000003         -3.0180874091456644E-005
  0.16160000000000002         -3.5587669117376208E-005
  0.16270000000000001         -4.0033806726569310E-005
  0.16380000000000000         -4.3580967030720785E-005
  0.16490000000000005         -4.6303128328872845E-005
  0.16600000000000004         -4.8291083658114076E-005
  0.16710000000000003         -4.9632664740784094E-005
  0.16820000000000002         -5.0399383326293901E-005
  0.16930000000000001         -5.0654758524615318E-005
  0.17040000000000000         -5.0468475819798186E-005
  0.17150000000000004         -4.9910177040146664E-005
  0.17260000000000003         -4.9034853873308748E-005
  0.17370000000000002         -4.7885769163258374E-005
  0.17480000000000001         -4.6515135181834921E-005
  0.17590000000000000         -4.4985685235587880E-005
  0.17700000000000005         -4.3348754843464121E-005
  0.17810000000000004         -4.1626408346928656E-005
  0.17920000000000003         -3.9827082218835130E-005
  0.18030000000000002         -3.7976875319145620E-005
  0.18140000000000001         -3.6122171877650544E-005
  0.18250000000000000         -3.4299529943382367E-005
  0.18360000000000004         -3.2515807106392458E-005
  0.18470000000000003         -3.0764003895455971E-005
  0.18580000000000002         -2.9050781449768692E-005
  0.18690000000000001         -2.7397742087487131E-005
  0.18800000000000000         -2.5818117137532681E-005
  0.18910000000000005         -2.4308654246851802E-005
  0.19020000000000004         -2.2867159714223817E-005
  0.19130000000000003         -2.1504070900846273E-005
  0.19240000000000002         -2.0227911591064185E-005
  0.19350000000000001         -1.9027775124413893E-005
  0.19460000000000005         -1.7884180124383420E-005
  0.19570000000000004         -1.6796957424958237E-005
  0.19680000000000003         -1.5785817595315166E-005
  0.19790000000000002         -1.4861105228192173E-005
  0.19900000000000001         -1.4005145203555003E-005
  0.20010000000000000         -1.3192860023991670E-005
  0.20120000000000005         -1.2421986866684165E-005
  0.20230000000000004         -1.1708681995514780E-005
  0.20340000000000003         -1.1057820302085020E-005
  0.20450000000000002         -1.0452137757965829E-005
  0.20560000000000000         -9.8763566711568274E-006
  0.20670000000000005         -9.3368189482134767E-006
  0.20780000000000004         -8.8463575593777932E-006
  0.20890000000000003         -8.3982513388036750E-006
