 -0.12000000000000000          0.0000000000000000     
 -0.11889999999999999          0.0000000000000000     
 -0.11780000000000000          0.0000000000000000     
 -0.11670000000000000          0.0000000000000000     
 -0.11559999999999999          0.0000000000000000     
 -0.11449999999999999         -8.5705659962683617E-014
 -0.11340000000000000          1.3305605532296094E-013
 -0.11230000000000000          6.7464821706594846E-013
 -0.11119999999999999         -7.3736063912685501E-013
 -0.11009999999999999         -2.7093988944765224E-012
 -0.10900000000000000          2.6490970875259201E-012
 -0.10790000000000000          5.8820296723605114E-012
 -0.10679999999999999         -1.6333125824052885E-011
 -0.10569999999999999         -1.7093271242885066E-011
 -0.10460000000000000          9.0847600275889562E-011
 -0.10349999999999999          1.4495259159641449E-010
 -0.10239999999999999         -2.3322366260458693E-010
 -0.10130000000000000         -7.5218836714796566E-010
 -0.10020000000000000         -1.2709799879218053E-010
  -9.9099999999999994E-002     1.8372029453317396E-009
  -9.7999999999999990E-002     2.3119615111255598E-009
  -9.6899999999999986E-002    -1.1700904689604386E-009
  -9.5799999999999996E-002    -5.0252855210430880E-009
  -9.4699999999999993E-002    -3.0710538556633082E-009
  -9.3599999999999989E-002     2.0245687348818819E-009
  -9.2499999999999999E-002     8.9698320993036873E-010
  -9.1399999999999995E-002    -1.5437997546996485E-009
  -9.0299999999999991E-002     1.4648225743485455E-008
  -8.9200000000000002E-002     4.0671771728284511E-008
  -8.8099999999999984E-002     1.7324870427160022E-008
  -8.6999999999999994E-002    -8.3621024771218799E-008
  -8.5899999999999990E-002    -1.5872319636400789E-007
  -8.4799999999999986E-002    -5.4668763738163761E-008
  -8.3699999999999997E-002     1.8970767712289671E-007
  -8.2599999999999993E-002     3.0076938628553762E-007
  -8.1499999999999989E-002     1.1704637614684543E-007
  -8.0399999999999999E-002    -1.2511672764503601E-007
  -7.9299999999999995E-002    -1.2124142756420042E-007
  -7.8199999999999992E-002    -6.8302782096907322E-008
  -7.7100000000000002E-002    -4.3635415636344987E-007
  -7.5999999999999984E-002    -9.6957251116691623E-007
  -7.4899999999999994E-002    -5.4321066045304178E-007
  -7.3799999999999991E-002     1.2404979088387336E-006
  -7.2699999999999987E-002     2.7264065920462599E-006
  -7.1599999999999997E-002     1.7777095990823000E-006
  -7.0499999999999993E-002    -1.0722415026975796E-006
  -6.9399999999999989E-002    -2.5981842100009089E-006
  -6.8300000000000000E-002    -1.1921728173547308E-006
  -6.7199999999999996E-002     2.7667041990753205E-007
  -6.6099999999999992E-002    -1.6512542515556561E-006
  -6.5000000000000002E-002    -4.8865595090319403E-006
  -6.3899999999999985E-002    -3.2365051083615981E-006
  -6.2799999999999995E-002     4.4964572225580923E-006
  -6.1699999999999991E-002     1.0658513019734528E-005
  -6.0599999999999994E-002     8.1065090853371657E-006
  -5.9499999999999990E-002     1.0339150549043552E-006
  -5.8399999999999994E-002    -6.1061342648827122E-008
  -5.7299999999999990E-002     5.1251563490950502E-006
  -5.6199999999999986E-002     3.1513563953922130E-006
  -5.5099999999999996E-002    -1.4437118807109073E-005
  -5.3999999999999992E-002    -3.4609773138072342E-005
  -5.2899999999999989E-002    -3.5105174902128056E-005
  -5.1799999999999985E-002    -1.2448014786059503E-005
  -5.0699999999999995E-002     1.3307172594068106E-005
  -4.9599999999999991E-002     2.5746272513060831E-005
  -4.8499999999999988E-002     3.2649684726493433E-005
  -4.7399999999999998E-002     4.8958499974105507E-005
  -4.6299999999999994E-002     6.7354936618357897E-005
  -4.5199999999999990E-002     6.2841427279636264E-005
  -4.4099999999999986E-002     2.7295644031255506E-005
  -4.2999999999999997E-002    -1.7906020730151795E-005
  -4.1899999999999993E-002    -5.1405939302640036E-005
  -4.0799999999999989E-002    -7.7285054430831224E-005
  -3.9699999999999985E-002    -1.0477822070242837E-004
  -3.8599999999999995E-002    -1.1544857989065349E-004
  -3.7499999999999992E-002    -7.7487718954216689E-005
  -3.6399999999999988E-002     6.4853393269004300E-006
  -3.5299999999999984E-002     9.3498449132312089E-005
  -3.4199999999999994E-002     1.5324814012274146E-004
  -3.3099999999999991E-002     1.9918647012673318E-004
  -3.1999999999999987E-002     2.4084672622848302E-004
  -3.0899999999999997E-002     2.2890484251547605E-004
  -2.9799999999999993E-002     9.5431241788901389E-005
  -2.8699999999999989E-002    -1.4830038708169013E-004
  -2.7599999999999986E-002    -4.0305906441062689E-004
  -2.6499999999999996E-002    -5.9682258870452642E-004
  -2.5399999999999992E-002    -7.6693441951647401E-004
  -2.4299999999999988E-002    -9.7832048777490854E-004
  -2.3199999999999985E-002    -1.1842210078611970E-003
  -2.2099999999999995E-002    -1.2440159916877747E-003
  -2.0999999999999991E-002    -1.1020490201190114E-003
  -1.9899999999999987E-002    -8.8953378144651651E-004
  -1.8799999999999983E-002    -8.0197054194286466E-004
  -1.7699999999999994E-002    -9.1457786038517952E-004
  -1.6599999999999990E-002    -1.1780867353081703E-003
  -1.5499999999999986E-002    -1.5718508511781693E-003
  -1.4399999999999996E-002    -2.1662341896444559E-003
  -1.3299999999999992E-002    -3.0189601238816977E-003
  -1.2199999999999989E-002    -4.0832436643540859E-003
  -1.1099999999999985E-002    -5.2816104143857956E-003
  -9.9999999999999950E-003    -6.6105918958783150E-003
  -8.8999999999999913E-003    -8.0984169617295265E-003
  -7.7999999999999875E-003    -9.6960999071598053E-003
  -6.6999999999999837E-003    -1.1337361298501492E-002
  -5.5999999999999939E-003    -1.3132329098880291E-002
  -4.4999999999999901E-003    -1.5377241186797619E-002
  -3.3999999999999864E-003    -1.8275467678904533E-002
  -2.2999999999999826E-003    -2.1735962480306625E-002
  -1.1999999999999927E-003    -2.5582129135727882E-002
  -9.9999999999988987E-005    -2.9898909851908684E-002
   1.0000000000000148E-003    -3.5021431744098663E-002
   2.1000000000000185E-003    -4.1146561503410339E-002
   3.2000000000000084E-003    -4.8092063516378403E-002
   4.3000000000000121E-003    -5.5601131170988083E-002
   5.4000000000000159E-003    -6.3760362565517426E-002
   6.5000000000000058E-003    -7.2942368686199188E-002
   7.6000000000000234E-003    -8.3357237279415131E-002
   8.7000000000000133E-003    -9.4910070300102234E-002
   9.8000000000000032E-003   -0.10737608373165131     
   1.0900000000000021E-002   -0.12083741277456284     
   1.2000000000000011E-002   -0.13553005456924438     
   1.3100000000000001E-002   -0.15154553949832916     
   1.4200000000000018E-002   -0.16880443692207336     
   1.5300000000000008E-002   -0.18721677362918854     
   1.6400000000000026E-002   -0.20676453411579132     
   1.7500000000000016E-002   -0.22721971571445465     
   1.8600000000000005E-002   -0.24820451438426971     
   1.9700000000000023E-002   -0.26922854781150818     
   2.0800000000000013E-002   -0.29034584760665894     
   2.1900000000000003E-002   -0.31165888905525208     
   2.3000000000000020E-002   -0.33249887824058533     
   2.4100000000000010E-002   -0.35205557942390442     
   2.5200000000000000E-002   -0.36959511041641235     
   2.6300000000000018E-002   -0.38531076908111572     
   2.7400000000000008E-002   -0.39901462197303772     
   2.8500000000000025E-002   -0.41001191735267639     
   2.9600000000000015E-002   -0.41693186759948730     
   3.0700000000000005E-002   -0.41892433166503906     
   3.1800000000000023E-002   -0.41472294926643372     
   3.2900000000000013E-002   -0.40404227375984192     
   3.4000000000000002E-002   -0.38622587919235229     
   3.5100000000000020E-002   -0.36031815409660339     
   3.6200000000000010E-002   -0.32492503523826599     
   3.7300000000000028E-002   -0.28036311268806458     
   3.8400000000000017E-002   -0.22558416426181793     
   3.9500000000000007E-002   -0.16045688092708588     
   4.0600000000000025E-002    -8.3761572837829590E-002
   4.1700000000000015E-002     4.4709960930049419E-003
   4.2800000000000005E-002    0.10480995476245880     
   4.3900000000000022E-002    0.21531581878662109     
   4.5000000000000012E-002    0.33681082725524902     
   4.6100000000000002E-002    0.47011920809745789     
   4.7200000000000020E-002    0.61402612924575806     
   4.8300000000000010E-002    0.76653742790222168     
   4.9400000000000027E-002    0.92555439472198486     
   5.0500000000000017E-002     1.0892096757888794     
   5.1600000000000007E-002     1.2572934627532959     
   5.2700000000000025E-002     1.4268739223480225     
   5.3800000000000014E-002     1.5942320823669434     
   5.4900000000000004E-002     1.7566585540771484     
   5.6000000000000022E-002     1.9128316640853882     
   5.7100000000000012E-002     2.0602676868438721     
   5.8200000000000002E-002     2.1907448768615723     
   5.9300000000000019E-002     2.3022892475128174     
   6.0400000000000009E-002     2.3932588100433350     
   6.1500000000000027E-002     2.4648561477661133     
   6.2600000000000017E-002     2.5089058876037598     
   6.3700000000000007E-002     2.5191099643707275     
   6.4800000000000024E-002     2.4935688972473145     
   6.5900000000000014E-002     2.4355504512786865     
   6.7000000000000004E-002     2.3402478694915771     
   6.8100000000000022E-002     2.2103259563446045     
   6.9200000000000012E-002     2.0403466224670410     
   7.0300000000000029E-002     1.8279519081115723     
   7.1400000000000019E-002     1.5757747888565063     
   7.2500000000000009E-002     1.2884076833724976     
   7.3600000000000027E-002    0.96888571977615356     
   7.4700000000000016E-002    0.61834412813186646     
   7.5800000000000006E-002    0.23942218720912933     
   7.6900000000000024E-002   -0.16298037767410278     
   7.8000000000000014E-002   -0.58512496948242188     
   7.9100000000000004E-002    -1.0204379558563232     
   8.0200000000000021E-002    -1.4610155820846558     
   8.1300000000000011E-002    -1.8977236747741699     
   8.2400000000000029E-002    -2.3257417678833008     
   8.3500000000000019E-002    -2.7416396141052246     
   8.4600000000000009E-002    -3.1402480602264404     
   8.5700000000000026E-002    -3.5114076137542725     
   8.6800000000000016E-002    -3.8440535068511963     
   8.7900000000000006E-002    -4.1308884620666504     
   8.9000000000000024E-002    -4.3674359321594238     
   9.0100000000000013E-002    -4.5564632415771484     
   9.1200000000000003E-002    -4.6963205337524414     
   9.2300000000000021E-002    -4.7798728942871094     
   9.3400000000000011E-002    -4.7954359054565430     
   9.4500000000000028E-002    -4.7396111488342285     
   9.5600000000000018E-002    -4.6215152740478516     
   9.6700000000000008E-002    -4.4491772651672363     
   9.7800000000000026E-002    -4.2243762016296387     
   9.8900000000000016E-002    -3.9406590461730957     
  0.10000000000000001         -3.5996510982513428     
  0.10110000000000002         -3.2097892761230469     
  0.10220000000000001         -2.7760136127471924     
  0.10330000000000003         -2.3121647834777832     
  0.10440000000000002         -1.8263231515884399     
  0.10550000000000001         -1.3265044689178467     
  0.10660000000000003        -0.81534242630004883     
  0.10770000000000002        -0.29348844289779663     
  0.10880000000000001         0.23130135238170624     
  0.10990000000000003         0.73848313093185425     
  0.11100000000000002          1.2159281969070435     
  0.11210000000000001          1.6630433797836304     
  0.11320000000000002          2.0783679485321045     
  0.11430000000000001          2.4585313796997070     
  0.11540000000000003          2.8037381172180176     
  0.11650000000000002          3.1013548374176025     
  0.11760000000000001          3.3409860134124756     
  0.11870000000000003          3.5212593078613281     
  0.11980000000000002          3.6486680507659912     
  0.12090000000000001          3.7303333282470703     
  0.12200000000000003          3.7687480449676514     
  0.12310000000000001          3.7561397552490234     
  0.12420000000000003          3.6894454956054688     
  0.12530000000000002          3.5721163749694824     
  0.12640000000000001          3.4184219837188721     
  0.12750000000000003          3.2357084751129150     
  0.12860000000000002          3.0256755352020264     
  0.12970000000000001          2.7877993583679199     
  0.13080000000000003          2.5256886482238770     
  0.13190000000000002          2.2469892501831055     
  0.13300000000000001          1.9591597318649292     
  0.13410000000000000          1.6678634881973267     
  0.13520000000000004          1.3792904615402222     
  0.13630000000000003          1.0957820415496826     
  0.13740000000000002         0.81797403097152710     
  0.13850000000000001         0.54787284135818481     
  0.13960000000000000         0.29267919063568115     
  0.14070000000000005          5.8936633169651031E-002
  0.14180000000000004        -0.15216176211833954     
  0.14290000000000003        -0.34490704536437988     
  0.14400000000000002        -0.52219772338867188     
  0.14510000000000001        -0.67826741933822632     
  0.14620000000000000        -0.80620187520980835     
  0.14730000000000004        -0.90547406673431396     
  0.14840000000000003        -0.98568344116210938     
  0.14950000000000002         -1.0511844158172607     
  0.15060000000000001         -1.0996623039245605     
  0.15170000000000000         -1.1254664659500122     
  0.15280000000000005         -1.1308063268661499     
  0.15390000000000004         -1.1222206354141235     
  0.15500000000000003         -1.1035835742950439     
  0.15610000000000002         -1.0735952854156494     
  0.15720000000000001         -1.0319142341613770     
  0.15830000000000000        -0.98245882987976074     
  0.15940000000000004        -0.92882341146469116     
  0.16050000000000003        -0.87035197019577026     
  0.16160000000000002        -0.80408501625061035     
  0.16270000000000001        -0.73449802398681641     
  0.16380000000000000        -0.66901278495788574     
  0.16490000000000005        -0.60839265584945679     
  0.16600000000000004        -0.54680460691452026     
  0.16710000000000003        -0.48033341765403748     
  0.16820000000000002        -0.41497361660003662     
  0.16930000000000001        -0.35971346497535706     
  0.17040000000000000        -0.31251373887062073     
  0.17150000000000004        -0.26490819454193115     
  0.17260000000000003        -0.21363379061222076     
  0.17370000000000002        -0.16636119782924652     
  0.17480000000000001        -0.13177306950092316     
  0.17590000000000000        -0.10617740452289581     
  0.17700000000000005         -7.8239955008029938E-002
  0.17810000000000004         -4.5684665441513062E-002
  0.17920000000000003         -1.7848405987024307E-002
  0.18030000000000002         -1.4694649726152420E-003
  0.18140000000000001          8.4489202126860619E-003
  0.18250000000000000          2.1001078188419342E-002
  0.18360000000000004          3.5818297415971756E-002
  0.18470000000000003          4.5602776110172272E-002
  0.18580000000000002          4.9638777971267700E-002
  0.18690000000000001          5.4373618215322495E-002
  0.18800000000000000          6.2050532549619675E-002
  0.18910000000000005          6.6274806857109070E-002
  0.19020000000000004          6.1723828315734863E-002
  0.19130000000000003          5.4791871458292007E-002
  0.19240000000000002          5.6171093136072159E-002
  0.19350000000000001          6.4414873719215393E-002
  0.19460000000000005          6.6994264721870422E-002
  0.19570000000000004          5.7651635259389877E-002
  0.19680000000000003          4.6258356422185898E-002
  0.19790000000000002          4.5143149793148041E-002
  0.19900000000000001          5.1582317799329758E-002
  0.20010000000000000          5.2175901830196381E-002
  0.20120000000000005          4.2918000370264053E-002
  0.20230000000000004          3.4687355160713196E-002
  0.20340000000000003          3.6007456481456757E-002
  0.20450000000000002          4.0112439543008804E-002
  0.20560000000000000          3.5614635795354843E-002
  0.20670000000000005          2.4691909551620483E-002
  0.20780000000000004          2.0295549184083939E-002
  0.20890000000000003          2.6530075818300247E-002
