 -0.12000000000000000          0.0000000000000000     
 -0.11889999999999999          0.0000000000000000     
 -0.11780000000000000          0.0000000000000000     
 -0.11670000000000000          0.0000000000000000     
 -0.11559999999999999          0.0000000000000000     
 -0.11449999999999999          0.0000000000000000     
 -0.11340000000000000          0.0000000000000000     
 -0.11230000000000000          0.0000000000000000     
 -0.11119999999999999         -2.6777132282871687E-014
 -0.11009999999999999          1.9617274926893302E-013
 -0.10900000000000000         -3.7010345688755913E-014
 -0.10790000000000000         -2.7932790629126014E-012
 -0.10679999999999999          2.5752000358536531E-012
 -0.10569999999999999          2.5121286995055669E-011
 -0.10460000000000000         -2.0350054974471732E-011
 -0.10349999999999999         -1.7970859522709048E-010
 -0.10239999999999999          5.5531235859662686E-011
 -0.10130000000000000          1.0452201326671684E-009
 -0.10020000000000000          3.7640329741961409E-010
  -9.9099999999999994E-002    -4.7305745987102910E-009
  -9.7999999999999990E-002    -5.4335287380524733E-009
  -9.6899999999999986E-002     1.5033752021054170E-008
  -9.5799999999999996E-002     3.4846205920757711E-008
  -9.4699999999999993E-002    -2.2175248304279194E-008
  -9.3599999999999989E-002    -1.4292480443600653E-007
  -9.2499999999999999E-002    -7.2909678294763580E-008
  -9.1399999999999995E-002     3.6878481068924884E-007
  -9.0299999999999991E-002     6.1070051060596597E-007
  -8.9200000000000002E-002    -3.6724532037624158E-007
  -8.8099999999999984E-002    -2.0336215129646007E-006
  -8.6999999999999994E-002    -1.3627968655782752E-006
  -8.5899999999999990E-002     3.3085934774135239E-006
  -8.4799999999999986E-002     6.8887170527887065E-006
  -8.3699999999999997E-002     9.8712598628480919E-007
  -8.2599999999999993E-002    -1.2522345059551299E-005
  -8.1499999999999989E-002    -1.6696900274837390E-005
  -8.0399999999999999E-002     9.5407210665143793E-007
  -7.9299999999999995E-002     2.6504234483581968E-005
  -7.8199999999999992E-002     3.3414933568565175E-005
  -7.7100000000000002E-002     1.7693582776701078E-005
  -7.5999999999999984E-002    -9.5661025625304319E-006
  -7.4899999999999994E-002    -6.6803309891838580E-005
  -7.3799999999999991E-002    -1.6743669402785599E-004
  -7.2699999999999987E-002    -1.8568121595308185E-004
  -7.1599999999999997E-002     1.2195155431982130E-004
  -7.0499999999999993E-002     7.2555179940536618E-004
  -6.9399999999999989E-002     9.5996697200462222E-004
  -6.8300000000000000E-002    -6.9760808401042596E-006
  -6.7199999999999996E-002    -1.9248619209975004E-003
  -6.6099999999999992E-002    -2.9522858094424009E-003
  -6.5000000000000002E-002    -1.2258923379704356E-003
  -6.3899999999999985E-002     2.7227990794926882E-003
  -6.2799999999999995E-002     5.7906331494450569E-003
  -6.1699999999999991E-002     5.2134348079562187E-003
  -6.0599999999999994E-002     1.1773199075832963E-003
  -5.9499999999999990E-002    -4.2292764410376549E-003
  -5.8399999999999994E-002    -9.6834534779191017E-003
  -5.7299999999999990E-002    -1.3988072983920574E-002
  -5.6199999999999986E-002    -1.2867411598563194E-002
  -5.5099999999999996E-002    -5.7605496840551496E-004
  -5.3999999999999992E-002     2.1435396745800972E-002
  -5.2899999999999989E-002     3.9648983627557755E-002
  -5.1799999999999985E-002     3.8514278829097748E-002
  -5.0699999999999995E-002     1.6838798299431801E-002
  -4.9599999999999991E-002    -1.1875567957758904E-002
  -4.8499999999999988E-002    -3.8985565304756165E-002
  -4.7399999999999998E-002    -7.2033151984214783E-002
  -4.6299999999999994E-002   -0.11400328576564789     
  -4.5199999999999990E-002   -0.13360421359539032     
  -4.4099999999999986E-002    -7.6241925358772278E-002
  -4.2999999999999997E-002     7.9044759273529053E-002
  -4.1899999999999993E-002    0.27841067314147949     
  -4.0799999999999989E-002    0.42238011956214905     
  -3.9699999999999985E-002    0.43517288565635681     
  -3.8599999999999995E-002    0.29540395736694336     
  -3.7499999999999992E-002     1.0495898313820362E-002
  -3.6399999999999988E-002   -0.39940121769905090     
  -3.5299999999999984E-002   -0.86623936891555786     
  -3.4199999999999994E-002    -1.2450438737869263     
  -3.3099999999999991E-002    -1.3610745668411255     
  -3.1999999999999987E-002    -1.0934373140335083     
  -3.0899999999999997E-002   -0.39614808559417725     
  -2.9799999999999993E-002    0.73438310623168945     
  -2.8699999999999989E-002     2.2233598232269287     
  -2.7599999999999986E-002     3.7906820774078369     
  -2.6499999999999996E-002     4.9136695861816406     
  -2.5399999999999992E-002     5.0254111289978027     
  -2.4299999999999988E-002     3.7888076305389404     
  -2.3199999999999985E-002     1.1366734504699707     
  -2.2099999999999995E-002    -2.9356858730316162     
  -2.0999999999999991E-002    -8.4750967025756836     
  -1.9899999999999987E-002    -15.363342285156250     
  -1.8799999999999983E-002    -23.105758666992188     
  -1.7699999999999994E-002    -31.037982940673828     
  -1.6599999999999990E-002    -38.810127258300781     
  -1.5499999999999986E-002    -46.548023223876953     
  -1.4399999999999996E-002    -54.508922576904297     
  -1.3299999999999992E-002    -62.811416625976562     
  -1.2199999999999989E-002    -71.779510498046875     
  -1.1099999999999985E-002    -82.496223449707031     
  -9.9999999999999950E-003    -96.710639953613281     
  -8.8999999999999913E-003    -116.06154632568359     
  -7.7999999999999875E-003    -141.59143066406250     
  -6.6999999999999837E-003    -174.17996215820312     
  -5.5999999999999939E-003    -215.20503234863281     
  -4.4999999999999901E-003    -266.44216918945312     
  -3.3999999999999864E-003    -329.40942382812500     
  -2.2999999999999826E-003    -405.20562744140625     
  -1.1999999999999927E-003    -495.14218139648438     
  -9.9999999999988987E-005    -601.13665771484375     
   1.0000000000000148E-003    -725.44262695312500     
   2.1000000000000185E-003    -870.55700683593750     
   3.2000000000000084E-003    -1040.1490478515625     
   4.3000000000000121E-003    -1239.8216552734375     
   5.4000000000000159E-003    -1476.0675048828125     
   6.5000000000000058E-003    -1754.0821533203125     
   7.6000000000000234E-003    -2077.4235839843750     
   8.7000000000000133E-003    -2450.6000976562500     
   9.8000000000000032E-003    -2881.4404296875000     
   1.0900000000000021E-002    -3379.8205566406250     
   1.2000000000000011E-002    -3953.9255371093750     
   1.3100000000000001E-002    -4608.9282226562500     
   1.4200000000000018E-002    -5350.5405273437500     
   1.5300000000000008E-002    -6188.4824218750000     
   1.6400000000000026E-002    -7135.9682617187500     
   1.7500000000000016E-002    -8205.1865234375000     
   1.8600000000000005E-002    -9405.0048828125000     
   1.9700000000000023E-002    -10742.795898437500     
   2.0800000000000013E-002    -12226.226562500000     
   2.1900000000000003E-002    -13862.754882812500     
   2.3000000000000020E-002    -15659.048828125000     
   2.4100000000000010E-002    -17621.691406250000     
   2.5200000000000000E-002    -19757.484375000000     
   2.6300000000000018E-002    -22069.558593750000     
   2.7400000000000008E-002    -24554.203125000000     
   2.8500000000000025E-002    -27203.964843750000     
   2.9600000000000015E-002    -30013.683593750000     
   3.0700000000000005E-002    -32979.816406250000     
   3.1800000000000023E-002    -36092.894531250000     
   3.2900000000000013E-002    -39328.726562500000     
   3.4000000000000002E-002    -42651.769531250000     
   3.5100000000000020E-002    -46022.812500000000     
   3.6200000000000010E-002    -49408.664062500000     
   3.7300000000000028E-002    -52776.867187500000     
   3.8400000000000017E-002    -56078.941406250000     
   3.9500000000000007E-002    -59242.570312500000     
   4.0600000000000025E-002    -62191.773437500000     
   4.1700000000000015E-002    -64858.683593750000     
   4.2800000000000005E-002    -67171.984375000000     
   4.3900000000000022E-002    -69056.898437500000     
   4.5000000000000012E-002    -70421.359375000000     
   4.6100000000000002E-002    -71165.867187500000     
   4.7200000000000020E-002    -71183.523437500000     
   4.8300000000000010E-002    -70371.710937500000     
   4.9400000000000027E-002    -68637.375000000000     
   5.0500000000000017E-002    -65894.679687500000     
   5.1600000000000007E-002    -62065.972656250000     
   5.2700000000000025E-002    -57060.789062500000     
   5.3800000000000014E-002    -50780.109375000000     
   5.4900000000000004E-002    -43141.054687500000     
   5.6000000000000022E-002    -34111.882812500000     
   5.7100000000000012E-002    -23692.507812500000     
   5.8200000000000002E-002    -11887.230468750000     
   5.9300000000000019E-002     1334.4166259765625     
   6.0400000000000009E-002     15958.232421875000     
   6.1500000000000027E-002     31928.232421875000     
   6.2600000000000017E-002     49135.363281250000     
   6.3700000000000007E-002     67458.664062500000     
   6.4800000000000024E-002     86729.304687500000     
   6.5900000000000014E-002     106787.70312500000     
   6.7000000000000004E-002     127467.71875000000     
   6.8100000000000022E-002     148526.98437500000     
   6.9200000000000012E-002     169719.93750000000     
   7.0300000000000029E-002     190742.62500000000     
   7.1400000000000019E-002     211259.28125000000     
   7.2500000000000009E-002     230942.85937500000     
   7.3600000000000027E-002     249513.78125000000     
   7.4700000000000016E-002     266680.12500000000     
   7.5800000000000006E-002     282110.78125000000     
   7.6900000000000024E-002     295414.81250000000     
   7.8000000000000014E-002     306214.37500000000     
   7.9100000000000004E-002     314215.21875000000     
   8.0200000000000021E-002     319242.93750000000     
   8.1300000000000011E-002     321099.37500000000     
   8.2400000000000029E-002     319548.81250000000     
   8.3500000000000019E-002     314338.25000000000     
   8.4600000000000009E-002     305347.78125000000     
   8.5700000000000026E-002     292552.06250000000     
   8.6800000000000016E-002     276011.75000000000     
   8.7900000000000006E-002     255793.84375000000     
   8.9000000000000024E-002     232007.60937500000     
   9.0100000000000013E-002     204832.14062500000     
   9.1200000000000003E-002     174489.67187500000     
   9.2300000000000021E-002     141242.32812500000     
   9.3400000000000011E-002     105437.55468750000     
   9.4500000000000028E-002     67548.960937500000     
   9.5600000000000018E-002     28112.169921875000     
   9.6700000000000008E-002    -12394.506835937500     
   9.7800000000000026E-002    -53575.933593750000     
   9.8900000000000016E-002    -94997.359375000000     
  0.10000000000000001         -136052.04687500000     
  0.10110000000000002         -176037.64062500000     
  0.10220000000000001         -214371.17187500000     
  0.10330000000000003         -250628.96875000000     
  0.10440000000000002         -284455.78125000000     
  0.10550000000000001         -315373.46875000000     
  0.10660000000000003         -342883.21875000000     
  0.10770000000000002         -366592.43750000000     
  0.10880000000000001         -386253.96875000000     
  0.10990000000000003         -401637.12500000000     
  0.11100000000000002         -412551.78125000000     
  0.11210000000000001         -418906.96875000000     
  0.11320000000000002         -420787.40625000000     
  0.11430000000000001         -418272.09375000000     
  0.11540000000000003         -411331.53125000000     
  0.11650000000000002         -400018.34375000000     
  0.11760000000000001         -384638.21875000000     
  0.11870000000000003         -365704.46875000000     
  0.11980000000000002         -343616.21875000000     
  0.12090000000000001         -318605.65625000000     
  0.12200000000000003         -290904.25000000000     
  0.12310000000000001         -261006.42187500000     
  0.12420000000000003         -229513.51562500000     
  0.12530000000000002         -196975.01562500000     
  0.12640000000000001         -163777.90625000000     
  0.12750000000000003         -130286.31250000000     
  0.12860000000000002         -96939.843750000000     
  0.12970000000000001         -64232.878906250000     
  0.13080000000000003         -32509.400390625000     
  0.13190000000000002         -2053.1530761718750     
  0.13300000000000001          26782.873046875000     
  0.13410000000000000          53598.675781250000     
  0.13520000000000004          78162.054687500000     
  0.13630000000000003          100455.31250000000     
  0.13740000000000002          120490.14843750000     
  0.13850000000000001          138095.87500000000     
  0.13960000000000000          153029.42187500000     
  0.14070000000000005          165221.26562500000     
  0.14180000000000004          174884.25000000000     
  0.14290000000000003          182263.46875000000     
  0.14400000000000002          187425.79687500000     
  0.14510000000000001          190347.76562500000     
  0.14620000000000000          191141.32812500000     
  0.14730000000000004          190085.46875000000     
  0.14840000000000003          187427.95312500000     
  0.14950000000000002          183302.81250000000     
  0.15060000000000001          177862.39062500000     
  0.15170000000000000          171405.39062500000     
  0.15280000000000005          164239.92187500000     
  0.15390000000000004          156492.85937500000     
  0.15500000000000003          148181.32812500000     
  0.15610000000000002          139441.26562500000     
  0.15720000000000001          130622.30468750000     
  0.15830000000000000          122043.12500000000     
  0.15940000000000004          113770.75781250000     
  0.16050000000000003          105696.69531250000     
  0.16160000000000002          97840.523437500000     
  0.16270000000000001          90423.593750000000     
  0.16380000000000000          83642.125000000000     
  0.16490000000000005          77494.804687500000     
  0.16600000000000004          71887.546875000000     
  0.16710000000000003          66819.546875000000     
  0.16820000000000002          62350.679687500000     
  0.16930000000000001          58451.675781250000     
  0.17040000000000000          54975.371093750000     
  0.17150000000000004          51832.570312500000     
  0.17260000000000003          49085.687500000000     
  0.17370000000000002          46778.175781250000     
  0.17480000000000001          44741.527343750000     
  0.17590000000000000          42677.230468750000     
  0.17700000000000005          40436.859375000000     
  0.17810000000000004          38092.980468750000     
  0.17920000000000003          35705.183593750000     
  0.18030000000000002          33111.160156250000     
  0.18140000000000001          30029.593750000000     
  0.18250000000000000          26315.937500000000     
  0.18360000000000004          22000.802734375000     
  0.18470000000000003          17094.343750000000     
  0.18580000000000002          11470.195312500000     
  0.18690000000000001          4982.8666992187500     
  0.18800000000000000         -2368.1787109375000     
  0.18910000000000005         -10506.843750000000     
  0.19020000000000004         -19455.931640625000     
  0.19130000000000003         -29333.855468750000     
  0.19240000000000002         -40142.769531250000     
  0.19350000000000001         -51708.437500000000     
  0.19460000000000005         -63826.253906250000     
  0.19570000000000004         -76469.984375000000     
  0.19680000000000003         -89666.820312500000     
  0.19790000000000002         -103304.51562500000     
  0.19900000000000001         -117080.89062500000     
  0.20010000000000000         -130740.62500000000     
  0.20120000000000005         -144158.96875000000     
  0.20230000000000004         -157241.18750000000     
  0.20340000000000003         -169758.00000000000     
  0.20450000000000002         -181372.68750000000     
  0.20560000000000000         -191822.75000000000     
  0.20670000000000005         -200964.92187500000     
  0.20780000000000004         -208666.29687500000     
  0.20890000000000003         -214675.28125000000     
