 -0.12000000000000000          0.0000000000000000
 -0.11889999999999999          0.0000000000000000
 -0.11780000000000000          0.0000000000000000
 -0.11670000000000000          0.0000000000000000
 -0.11559999999999999          0.0000000000000000
 -0.11449999999999999          0.0000000000000000
 -0.11340000000000000          0.0000000000000000
 -0.11230000000000000          0.0000000000000000
 -0.11119999999999999          0.0000000000000000
 -0.11009999999999999          0.0000000000000000
 -0.10900000000000000          0.0000000000000000
 -0.10790000000000000          0.0000000000000000
 -0.10679999999999999          0.0000000000000000
 -0.10569999999999999          0.0000000000000000
 -0.10460000000000000          0.0000000000000000
 -0.10349999999999999          0.0000000000000000
 -0.10239999999999999          0.0000000000000000
 -0.10130000000000000         -1.9314144377936741E-038
 -0.10020000000000000          7.6111397170343721E-038
  -9.9099999999999994E-002     2.3725359636630506E-037
  -9.7999999999999990E-002    -2.3039425607797788E-036
  -9.6899999999999986E-002    -5.8035145842806881E-038
  -9.5799999999999996E-002     3.4944749382246967E-035
  -9.4699999999999993E-002    -2.8432843582365067E-035
  -9.3599999999999989E-002    -3.9417011771333921E-034
  -9.2499999999999999E-002     4.1312620389954673E-034
  -9.1399999999999995E-002     3.7573916526126232E-033
  -9.0299999999999991E-002    -3.4174427271166486E-033
  -8.9200000000000002E-002    -3.1596324244735414E-032
  -8.8099999999999984E-002     1.6453976298163215E-032
  -8.6999999999999994E-002     2.3471833913320931E-031
  -8.5899999999999990E-002     3.1436862558574617E-033
  -8.4799999999999986E-002    -1.5118061057789859E-030
  -8.3699999999999997E-002    -9.6947589434350048E-031
  -8.2599999999999993E-002     8.1690613156157414E-030
  -8.1499999999999989E-002     1.1438197245478551E-029
  -8.0399999999999999E-002    -3.4766300549298451E-029
  -7.9299999999999995E-002    -8.7477784374634164E-029
  -7.8199999999999992E-002     9.6454898938756567E-029
  -7.7100000000000002E-002     5.0348638015617896E-028
  -7.5999999999999984E-002     2.3846148366204685E-029
  -7.4899999999999994E-002    -2.2161860759338584E-027
  -7.3799999999999991E-002    -2.2836535204086821E-027
  -7.2699999999999987E-002     6.9387897074449096E-027
  -7.1599999999999997E-002     1.6393008781862789E-026
  -7.0499999999999993E-002    -9.9998465832424495E-027
  -6.9399999999999989E-002    -7.3272907610170317E-026
  -6.8300000000000000E-002    -4.2752353736307667E-026
  -6.7199999999999996E-002     2.1728781669050488E-025
  -6.6099999999999992E-002     3.9428347796310191E-025
  -6.5000000000000002E-002    -2.9600849294154253E-025
  -6.3899999999999985E-002    -1.6577874452326565E-024
  -6.2799999999999995E-002    -9.6609980682335307E-025
  -6.1699999999999991E-002     4.1325022834027306E-024
  -6.0599999999999994E-002     7.9081025940390345E-024
  -5.9499999999999990E-002    -3.0338714779195319E-024
  -5.8399999999999994E-002    -2.7065593621635832E-023
  -5.7299999999999990E-002    -2.4240649587881370E-023
  -5.6199999999999986E-002     4.6631404575801362E-023
  -5.5099999999999996E-002     1.2461346681140651E-022
  -5.3999999999999992E-002     2.9612418432367385E-023
  -5.2899999999999989E-002    -2.9122240460702222E-022
  -5.1799999999999985E-002    -4.4413187032659950E-022
  -5.0699999999999995E-002     1.6841944299285760E-022
  -4.9599999999999991E-002     1.3077780010529136E-021
  -4.8499999999999988E-002     1.2784094542362299E-021
  -4.7399999999999998E-002    -1.4145174196084990E-021
  -4.6299999999999994E-002    -4.7750329680041149E-021
  -4.5199999999999990E-002    -3.0985777810485109E-021
  -4.4099999999999986E-002     6.3425277079918147E-021
  -4.2999999999999997E-002     1.5058561326412178E-020
  -4.1899999999999993E-002     7.0256698418290778E-021
  -4.0799999999999989E-002    -2.1064172070121323E-020
  -3.9699999999999985E-002    -4.2842246245315657E-020
  -3.8599999999999995E-002    -1.8789822820035434E-020
  -3.7499999999999992E-002     5.4608473637401931E-020
  -3.6399999999999988E-002     1.1360087527436420E-019
  -3.5299999999999984E-002     6.7716533385891267E-020
  -3.4199999999999994E-002    -1.0299810003205363E-019
  -3.3099999999999991E-002    -2.8347334835585062E-019
  -3.1999999999999987E-002    -2.7091390322394001E-019
  -3.0899999999999997E-002     7.3059318811765415E-020
  -2.9799999999999993E-002     6.4252448322065798E-019
  -2.8699999999999989E-002     9.8929229618178259E-019
  -2.7599999999999986E-002     4.7436946973537893E-019
  -2.6499999999999996E-002    -1.1668195245012289E-018
  -2.5399999999999992E-002    -3.0402357533993427E-018
  -2.4299999999999988E-002    -2.9736204171286097E-018
  -2.3199999999999985E-002     9.1921272750567753E-019
  -2.2099999999999995E-002     7.4135309665707682E-018
  -2.0999999999999991E-002     1.0854278887171855E-017
  -1.9899999999999987E-002     4.4719795146102268E-018
  -1.8799999999999983E-002    -1.2324362469774572E-017
  -1.7699999999999994E-002    -2.8849935566036569E-017
  -1.6599999999999990E-002    -2.7391956944517953E-017
  -1.5499999999999986E-002     2.9334113743475602E-018
  -1.4399999999999996E-002     5.2092149061780147E-017
  -1.3299999999999992E-002     8.7133273432425011E-017
  -1.2199999999999989E-002     6.7578776691230641E-017
  -1.1099999999999985E-002    -2.7003585720756956E-017
  -9.9999999999999950E-003    -1.6931185410966559E-016
  -8.8999999999999913E-003    -2.7278230198203753E-016
  -7.7999999999999875E-003    -2.1641686508391453E-016
  -6.6999999999999837E-003     8.0199514665760512E-017
  -5.5999999999999939E-003     5.5099514394715918E-016
  -4.4999999999999901E-003     9.1909258117606543E-016
  -3.3999999999999864E-003     7.7278463313638934E-016
  -2.2999999999999826E-003    -1.7499200411439373E-016
  -1.1999999999999927E-003    -1.7388284093974382E-015
  -9.9999999999988987E-005    -3.0624008222275871E-015
   1.0000000000000148E-003    -2.8381522375738001E-015
   2.1000000000000185E-003    -5.3845143303127025E-017
   3.2000000000000084E-003     4.9650166045038004E-015
   4.3000000000000121E-003     9.8359007435133358E-015
   5.4000000000000159E-003     1.0521836494529341E-014
   6.5000000000000058E-003     3.3292809986331566E-015
   7.6000000000000234E-003    -1.1960201776986708E-014
   8.7000000000000133E-003    -2.9482052378831253E-014
   9.8000000000000032E-003    -3.7523559563365505E-014
   1.0900000000000021E-002    -2.3234974328659869E-014
   1.2000000000000011E-002     1.8785500092337662E-014
   1.3100000000000001E-002     7.7669688985492619E-014
   1.4200000000000018E-002     1.2313792292686226E-013
   1.5300000000000008E-002     1.1368789481873420E-013
   1.6400000000000026E-002     1.7686998309636610E-014
   1.7500000000000016E-002    -1.5864635722739190E-013
   1.8600000000000005E-002    -3.5069560103129227E-013
   1.9700000000000023E-002    -4.4054297427924272E-013
   2.0800000000000013E-002    -3.0007731867918996E-013
   2.1900000000000003E-002     1.3280277214294117E-013
   2.3000000000000020E-002     7.7358546001285444E-013
   2.4100000000000010E-002     1.3536775866906936E-012
   2.5200000000000000E-002     1.4736808778489929E-012
   2.6300000000000018E-002     7.6680735329112681E-013
   2.7400000000000008E-002    -8.6273528468808203E-013
   2.8500000000000025E-002    -3.0244723826094999E-012
   2.9600000000000015E-002    -4.7866159820497689E-012
   3.0700000000000005E-002    -4.8986131991057835E-012
   3.1800000000000023E-002    -2.3125485901220877E-012
   3.2900000000000013E-002     3.1295818801041486E-012
   3.4000000000000002E-002     1.0129795439961509E-011
   3.5100000000000020E-002     1.5848225509706992E-011
   3.6200000000000010E-002     1.6574946276604052E-011
   3.7300000000000028E-002     9.1790871778463234E-012
   3.8400000000000017E-002    -7.0256626037712433E-012
   3.9500000000000007E-002    -2.8727525566707435E-011
   4.0600000000000025E-002    -4.8272979363828128E-011
   4.1700000000000015E-002    -5.5237429213983447E-011
   4.2800000000000005E-002    -4.0006088719568567E-011
   4.3900000000000022E-002     1.4370222676737820E-012
   4.5000000000000012E-002     6.3189335708369043E-011
   4.6100000000000002E-002     1.2770241808457428E-010
   4.7200000000000020E-002     1.6843325345572424E-010
   4.8300000000000010E-002     1.5741823122805698E-010
   4.9400000000000027E-002     7.6404327309376185E-011
   5.0500000000000017E-002    -7.1805193735396955E-011
   5.1600000000000007E-002    -2.5637322820237785E-010
   5.2700000000000025E-002    -4.2017617163381260E-010
   5.3800000000000014E-002    -4.9261628110031097E-010
   5.4900000000000004E-002    -4.1231956737775022E-010
   5.6000000000000022E-002    -1.5443678280657736E-010
   5.7100000000000012E-002     2.4606075510469338E-010
   5.8200000000000002E-002     6.8483063664359634E-010
   5.9300000000000019E-002     1.0000545946908801E-009
   6.0400000000000009E-002     1.0081967483088761E-009
   6.1500000000000027E-002     5.5864946002515126E-010
   6.2600000000000017E-002    -4.0508602028310747E-010
   6.3700000000000007E-002    -1.7948492692099194E-009
   6.4800000000000024E-002    -3.3552369771427948E-009
   6.5900000000000014E-002    -4.6811408083158312E-009
   6.7000000000000004E-002    -5.2775903647273026E-009
   6.8100000000000022E-002    -4.6519406105005601E-009
   6.9200000000000012E-002    -2.4171427082109176E-009
   7.0300000000000029E-002     1.6214354303656364E-009
   7.1400000000000019E-002     7.4228556634636789E-009
   7.2500000000000009E-002     1.4729583774908406E-008
   7.3600000000000027E-002     2.3152043837626479E-008
   7.4700000000000016E-002     3.2304154018447662E-008
   7.5800000000000006E-002     4.1959914653943997E-008
   7.6900000000000024E-002     5.2192827837416189E-008
   7.8000000000000014E-002     6.3462664456892526E-008
   7.9100000000000004E-002     7.6628076328688621E-008
   8.0200000000000021E-002     9.2882629587620613E-008
   8.1300000000000011E-002     1.1363630392224877E-007
   8.2400000000000029E-002     1.4038049300779676E-007
   8.3500000000000019E-002     1.7458224021993374E-007
   8.4600000000000009E-002     2.1764795121725911E-007
   8.5700000000000026E-002     2.7097769361716928E-007
   8.6800000000000016E-002     3.3610558602958918E-007
   8.7900000000000006E-002     4.1489670365990605E-007
   8.9000000000000024E-002     5.0975114618267980E-007
   9.0100000000000013E-002     6.2377085896514473E-007
   9.1200000000000003E-002     7.6084830880063237E-007
   9.2300000000000021E-002     9.2568041054619243E-007
   9.3400000000000011E-002     1.1237186754442519E-006
   9.4500000000000028E-002     1.3611064559881925E-006
   9.5600000000000018E-002     1.6446533663838636E-006
   9.6700000000000008E-002     1.9818789951386862E-006
   9.7800000000000026E-002     2.3811373921489576E-006
   9.8900000000000016E-002     2.8518361432361417E-006
  0.10000000000000001          3.4046747714455705E-006
  0.10110000000000002          4.0518857531424146E-006
  0.10220000000000001          4.8073861762532033E-006
  0.10330000000000003          5.6868416322686244E-006
  0.10440000000000002          6.7076816776534542E-006
  0.10550000000000001          7.8890116128604859E-006
  0.10660000000000003          9.2515292635653168E-006
  0.10770000000000002          1.0817455404321663E-005
  0.10880000000000001          1.2610514204425272E-005
  0.10990000000000003          1.4655925042461604E-005
  0.11100000000000002          1.6980413420242257E-005
  0.11210000000000001          1.9612152755144052E-005
  0.11320000000000002          2.2580688892048784E-005
  0.11430000000000001          2.5916688173310831E-005
  0.11540000000000003          2.9651584554812871E-005
  0.11650000000000002          3.3817072107922286E-005
  0.11760000000000001          3.8444693927885965E-005
  0.11870000000000003          4.3565087253227830E-005
  0.11980000000000002          4.9207297706743702E-005
  0.12090000000000001          5.5397907999577001E-005
  0.12200000000000003          6.2160288507584482E-005
  0.12310000000000001          6.9513713242486119E-005
  0.12420000000000003          7.7472061093430966E-005
  0.12530000000000002          8.6042804468888789E-005
  0.12640000000000001          9.5226103439927101E-005
  0.12750000000000003          1.0501370707061142E-004
  0.12860000000000002          1.1538752005435526E-004
  0.12970000000000001          1.2631838035304099E-004
  0.13080000000000003          1.3776477135252208E-004
  0.13190000000000002          1.4967194874770939E-004
  0.13300000000000001          1.6197111108340323E-004
  0.13410000000000000          1.7457766807638109E-004
  0.13520000000000004          1.8739051301963627E-004
  0.13630000000000003          2.0029113511554897E-004
  0.13740000000000002          2.1314372133929282E-004
  0.13850000000000001          2.2579461801797152E-004
  0.13960000000000000          2.3807318939361721E-004
  0.14070000000000005          2.4979218142107129E-004
  0.14180000000000004          2.6074849301949143E-004
  0.14290000000000003          2.7072554803453386E-004
  0.14400000000000002          2.7949435752816498E-004
  0.14510000000000001          2.8681606636382639E-004
  0.14620000000000000          2.9244433972053230E-004
  0.14730000000000004          2.9612868092954159E-004
  0.14840000000000003          2.9761827317997813E-004
  0.14950000000000002          2.9666538466699421E-004
  0.15060000000000001          2.9302950133569539E-004
  0.15170000000000000          2.8648282750509679E-004
  0.15280000000000005          2.7681526262313128E-004
  0.15390000000000004          2.6384048396721482E-004
  0.15500000000000003          2.4739990476518869E-004
  0.15610000000000002          2.2736798564437777E-004
  0.15720000000000001          2.0365735690575093E-004
  0.15830000000000000          1.7622364975977689E-004
  0.15940000000000004          1.4506935258395970E-004
  0.16050000000000003          1.1024744890164584E-004
  0.16160000000000002          7.1864502388052642E-005
  0.16270000000000001          3.0083418096182868E-005
  0.16380000000000000         -1.4874607586534694E-005
  0.16490000000000005         -6.2729690398555249E-005
  0.16600000000000004         -1.1314399307593703E-004
  0.16710000000000003         -1.6572285676375031E-004
  0.16820000000000002         -2.2001743491273373E-004
  0.16930000000000001         -2.7552858227863908E-004
  0.17040000000000000         -3.3171294489875436E-004
  0.17150000000000004         -3.8798892637714744E-004
  0.17260000000000003         -4.4374453136697412E-004
  0.17370000000000002         -4.9834384117275476E-004
  0.17480000000000001         -5.5113586131483316E-004
  0.17590000000000000         -6.0146459145471454E-004
  0.17700000000000005         -6.4867944456636906E-004
  0.17810000000000004         -6.9214706309139729E-004
  0.17920000000000003         -7.3125830385833979E-004
  0.18030000000000002         -7.6544156763702631E-004
  0.18140000000000001         -7.9417222877964377E-004
  0.18250000000000000         -8.1698317080736160E-004
  0.18360000000000004         -8.3347264444455504E-004
  0.18470000000000003         -8.4331439575180411E-004
  0.18580000000000002         -8.4626284660771489E-004
  0.18690000000000001         -8.4215734386816621E-004
  0.18800000000000000         -8.3092815475538373E-004
  0.18910000000000005         -8.1259739818051457E-004
  0.19020000000000004         -7.8728114021942019E-004
  0.19130000000000003         -7.5518980156630278E-004
  0.19240000000000002         -7.1662379195913672E-004
  0.19350000000000001         -6.7196926102042198E-004
  0.19460000000000005         -6.2169349985197186E-004
  0.19570000000000004         -5.6633824715390801E-004
  0.19680000000000003         -5.0651043420657516E-004
  0.19790000000000002         -4.4287377386353910E-004
  0.19900000000000001         -3.7613787571899593E-004
  0.20010000000000000         -3.0704450909979641E-004
  0.20120000000000005         -2.3635716934222728E-004
  0.20230000000000004         -1.6484953812323511E-004
  0.20340000000000003         -9.3295544502325356E-005
  0.20450000000000002         -2.2456848455476575E-005
  0.20560000000000000          4.6930177632020786E-005
  0.20670000000000005          1.1416672350605950E-004
  0.20780000000000004          1.7860115622170269E-004
  0.20890000000000003          2.3963571584317833E-004
