 -0.12000000000000000          0.0000000000000000     
 -0.11889999999999999          0.0000000000000000     
 -0.11780000000000000          0.0000000000000000     
 -0.11670000000000000          0.0000000000000000     
 -0.11559999999999999          0.0000000000000000     
 -0.11449999999999999          0.0000000000000000     
 -0.11340000000000000          0.0000000000000000     
 -0.11230000000000000         -1.8783071281402897E-020
 -0.11119999999999999          9.6245650208372806E-020
 -0.11009999999999999          1.7260401733459258E-019
 -0.10900000000000000         -1.5471537580330842E-018
 -0.10790000000000000         -1.2718098373398282E-018
 -0.10679999999999999          1.4097888988286242E-017
 -0.10569999999999999          1.2991629217586398E-017
 -0.10460000000000000         -9.0682639266441049E-017
 -0.10349999999999999         -1.2876245463069131E-016
 -0.10239999999999999          4.1496962002177866E-016
 -0.10130000000000000          9.6186721561681556E-016
 -0.10020000000000000         -1.1413875902161288E-015
  -9.9099999999999994E-002    -5.1850368006848939E-015
  -9.7999999999999990E-002    -2.5498505449926101E-016
  -9.6899999999999986E-002     1.9469672320757483E-014
  -9.5799999999999996E-002     2.0868149127662751E-014
  -9.4699999999999993E-002    -4.3772453652175802E-014
  -9.3599999999999989E-002    -1.1435691532179354E-013
  -9.2499999999999999E-002     5.7319714804411528E-015
  -9.1399999999999995E-002     3.3578936614771238E-013
  -9.0299999999999991E-002     3.7095896016428598E-013
  -8.9200000000000002E-002    -4.3907854240486655E-013
  -8.8099999999999984E-002    -1.4344206161406858E-012
  -8.6999999999999994E-002    -6.8824926226923600E-013
  -8.5899999999999990E-002     2.3469566134276532E-012
  -8.4799999999999986E-002     4.3081241699050032E-012
  -8.3699999999999997E-002     7.0297495038604274E-013
  -8.2599999999999993E-002    -7.0571604116054232E-012
  -8.1499999999999989E-002    -1.0216764066706130E-011
  -8.0399999999999999E-002    -2.2866623958922583E-012
  -7.9299999999999995E-002     1.1688933675146895E-011
  -7.8199999999999992E-002     2.0796421876245752E-011
  -7.7100000000000002E-002     2.0186873006533546E-011
  -7.5999999999999984E-002     6.5488521723555682E-012
  -7.4899999999999994E-002    -3.3666264220855169E-011
  -7.3799999999999991E-002    -1.0018624818641797E-010
  -7.2699999999999987E-002    -1.2547961281139663E-010
  -7.1599999999999997E-002     5.3613146908104703E-012
  -7.0499999999999993E-002     2.9590471739560087E-010
  -6.9399999999999989E-002     4.9699705462202814E-010
  -6.8300000000000000E-002     2.5667290515229979E-010
  -6.7199999999999996E-002    -4.5634007683759137E-010
  -6.6099999999999992E-002    -1.1279339684477918E-009
  -6.5000000000000002E-002    -1.0833817176703064E-009
  -6.3899999999999985E-002    -1.6936835267600259E-010
  -6.2799999999999995E-002     1.0750571544093646E-009
  -6.1699999999999991E-002     1.9899808467727098E-009
  -6.0599999999999994E-002     2.3132538107262235E-009
  -5.9499999999999990E-002     1.9120227623403707E-009
  -5.8399999999999994E-002     2.9167193660306623E-010
  -5.7299999999999990E-002    -2.9309985549730300E-009
  -5.6199999999999986E-002    -6.7777996548556985E-009
  -5.5099999999999996E-002    -8.6977074431615620E-009
  -5.3999999999999992E-002    -6.3408887029936523E-009
  -5.2899999999999989E-002     4.3354403400641672E-010
  -5.1799999999999985E-002     9.6549150896407809E-009
  -5.0699999999999995E-002     1.8844657390104658E-008
  -4.9599999999999991E-002     2.5264572656169548E-008
  -4.8499999999999988E-002     2.4449708035945150E-008
  -4.7399999999999998E-002     1.0782673420806077E-008
  -4.6299999999999994E-002    -1.7433029242397424E-008
  -4.5199999999999990E-002    -5.2580418241632287E-008
  -4.4099999999999986E-002    -7.9019322640760947E-008
  -4.2999999999999997E-002    -8.1517953276488697E-008
  -4.1899999999999993E-002    -5.3148404788316839E-008
  -4.0799999999999989E-002     3.4847142948990495E-009
  -3.9699999999999985E-002     7.8818537474489858E-008
  -3.8599999999999995E-002     1.5688425492044189E-007
  -3.7499999999999992E-002     2.1522797055695264E-007
  -3.6399999999999988E-002     2.3038910512696020E-007
  -3.5299999999999984E-002     1.8811631719017896E-007
  -3.4199999999999994E-002     8.9488381149749330E-008
  -3.3099999999999991E-002    -5.0185956723680647E-008
  -3.1999999999999987E-002    -2.0151227886344714E-007
  -3.0899999999999997E-002    -3.1673863531977986E-007
  -2.9799999999999993E-002    -3.3552413469806197E-007
  -2.8699999999999989E-002    -2.1478763301274739E-007
  -2.7599999999999986E-002     3.3932010978787730E-008
  -2.6499999999999996E-002     3.3844142421912693E-007
  -2.5399999999999992E-002     6.0311225524856127E-007
  -2.4299999999999988E-002     7.5050405712318025E-007
  -2.3199999999999985E-002     7.2374632509308867E-007
  -2.2099999999999995E-002     4.6187827251742419E-007
  -2.0999999999999991E-002    -9.7405568055819458E-008
  -1.9899999999999987E-002    -9.6972667051886674E-007
  -1.8799999999999983E-002    -2.0832203517784365E-006
  -1.7699999999999994E-002    -3.3012788662745152E-006
  -1.6599999999999990E-002    -4.4920861910213716E-006
  -1.5499999999999986E-002    -5.5787813835195266E-006
  -1.4399999999999996E-002    -6.5433205236331560E-006
  -1.3299999999999992E-002    -7.4200297603965737E-006
  -1.2199999999999989E-002    -8.3063050624332391E-006
  -1.1099999999999985E-002    -9.3638491307501681E-006
  -9.9999999999999950E-003    -1.0786589882627595E-005
  -8.8999999999999913E-003    -1.2769827662850730E-005
  -7.7999999999999875E-003    -1.5523570255027153E-005
  -6.6999999999999837E-003    -1.9291528587928042E-005
  -5.5999999999999939E-003    -2.4301816665683873E-005
  -4.4999999999999901E-003    -3.0677565518999472E-005
  -3.3999999999999864E-003    -3.8436337490566075E-005
  -2.2999999999999826E-003    -4.7624122089473531E-005
  -1.1999999999999927E-003    -5.8437086408957839E-005
  -9.9999999999988987E-005    -7.1174123149830848E-005
   1.0000000000000148E-003    -8.6099062173161656E-005
   2.1000000000000185E-003    -1.0344867769163102E-004
   3.2000000000000084E-003    -1.2364030408207327E-004
   4.3000000000000121E-003    -1.4742359053343534E-004
   5.4000000000000159E-003    -1.7573486547917128E-004
   6.5000000000000058E-003    -2.0938523812219501E-004
   7.6000000000000234E-003    -2.4894470698200166E-004
   8.7000000000000133E-003    -2.9494735645130277E-004
   9.8000000000000032E-003    -3.4813492675311863E-004
   1.0900000000000021E-002    -4.0943265776149929E-004
   1.2000000000000011E-002    -4.7974838525988162E-004
   1.3100000000000001E-002    -5.5989890825003386E-004
   1.4200000000000018E-002    -6.5074278973042965E-004
   1.5300000000000008E-002    -7.5334665598347783E-004
   1.6400000000000026E-002    -8.6901261238381267E-004
   1.7500000000000016E-002    -9.9922996014356613E-004
   1.8600000000000005E-002    -1.1456517968326807E-003
   1.9700000000000023E-002    -1.3098255731165409E-003
   2.0800000000000013E-002    -1.4927580486983061E-003
   2.1900000000000003E-002    -1.6948176780715585E-003
   2.3000000000000020E-002    -1.9162498647347093E-003
   2.4100000000000010E-002    -2.1578746382147074E-003
   2.5200000000000000E-002    -2.4208996910601854E-003
   2.6300000000000018E-002    -2.7060061693191528E-003
   2.7400000000000008E-002    -3.0127195641398430E-003
   2.8500000000000025E-002    -3.3398121595382690E-003
   2.9600000000000015E-002    -3.6863181740045547E-003
   3.0700000000000005E-002    -4.0519488975405693E-003
   3.1800000000000023E-002    -4.4361921027302742E-003
   3.2900000000000013E-002    -4.8369574360549450E-003
   3.4000000000000002E-002    -5.2502299658954144E-003
   3.5100000000000020E-002    -5.6710126809775829E-003
   3.6200000000000010E-002    -6.0944929718971252E-003
   3.7300000000000028E-002    -6.5159630030393600E-003
   3.8400000000000017E-002    -6.9299070164561272E-003
   3.9500000000000007E-002    -7.3295999318361282E-003
   4.0600000000000025E-002    -7.7069499529898167E-003
   4.1700000000000015E-002    -8.0523816868662834E-003
   4.2800000000000005E-002    -8.3558298647403717E-003
   4.3900000000000022E-002    -8.6076231673359871E-003
   4.5000000000000012E-002    -8.7982984259724617E-003
   4.6100000000000002E-002    -8.9177256450057030E-003
   4.7200000000000020E-002    -8.9539429172873497E-003
   4.8300000000000010E-002    -8.8931992650032043E-003
   4.9400000000000027E-002    -8.7218824774026871E-003
   5.0500000000000017E-002    -8.4293270483613014E-003
   5.1600000000000007E-002    -8.0073205754160881E-003
   5.2700000000000025E-002    -7.4467514641582966E-003
   5.3800000000000014E-002    -6.7365434952080250E-003
   5.4900000000000004E-002    -5.8659883216023445E-003
   5.6000000000000022E-002    -4.8275124281644821E-003
   5.7100000000000012E-002    -3.6184943746775389E-003
   5.8200000000000002E-002    -2.2394915577024221E-003
   5.9300000000000019E-002    -6.9221138255670667E-004
   6.0400000000000009E-002     1.0214736685156822E-003
   6.1500000000000027E-002     2.8984358068555593E-003
   6.2600000000000017E-002     4.9310508184134960E-003
   6.3700000000000007E-002     7.1046585217118263E-003
   6.4800000000000024E-002     9.3998583033680916E-003
   6.5900000000000014E-002     1.1795635335147381E-002
   6.7000000000000004E-002     1.4268952421844006E-002
   6.8100000000000022E-002     1.6797283664345741E-002
   6.9200000000000012E-002     1.9354743883013725E-002
   7.0300000000000029E-002     2.1906625479459763E-002
   7.1400000000000019E-002     2.4412129074335098E-002
   7.2500000000000009E-002     2.6830840855836868E-002
   7.3600000000000027E-002     2.9126938432455063E-002
   7.4700000000000016E-002     3.1267069280147552E-002
   7.5800000000000006E-002     3.3214520663022995E-002
   7.6900000000000024E-002     3.4926824271678925E-002
   7.8000000000000014E-002     3.6360092461109161E-002
   7.9100000000000004E-002     3.7476338446140289E-002
   8.0200000000000021E-002     3.8245297968387604E-002
   8.1300000000000011E-002     3.8641069084405899E-002
   8.2400000000000029E-002     3.8640227168798447E-002
   8.3500000000000019E-002     3.8221266120672226E-002
   8.4600000000000009E-002     3.7365321069955826E-002
   8.5700000000000026E-002     3.6059491336345673E-002
   8.6800000000000016E-002     3.4301277250051498E-002
   8.7900000000000006E-002     3.2100718468427658E-002
   8.9000000000000024E-002     2.9477186501026154E-002
   9.0100000000000013E-002     2.6450552046298981E-002
   9.1200000000000003E-002     2.3038487881422043E-002
   9.2300000000000021E-002     1.9265385344624519E-002
   9.3400000000000011E-002     1.5172310173511505E-002
   9.4500000000000028E-002     1.0815685614943504E-002
   9.5600000000000018E-002     6.2540983781218529E-003
   9.6700000000000008E-002     1.5386515296995640E-003
   9.7800000000000026E-002    -3.2824210356920958E-003
   9.8900000000000016E-002    -8.1519093364477158E-003
  0.10000000000000001         -1.3000323437154293E-002
  0.10110000000000002         -1.7756123095750809E-002
  0.10220000000000001         -2.2354705259203911E-002
  0.10330000000000003         -2.6738606393337250E-002
  0.10440000000000002         -3.0852805823087692E-002
  0.10550000000000001         -3.4644257277250290E-002
  0.10660000000000003         -3.8064662367105484E-002
  0.10770000000000002         -4.1068866848945618E-002
  0.10880000000000001         -4.3613884598016739E-002
  0.10990000000000003         -4.5664675533771515E-002
  0.11100000000000002         -4.7202389687299728E-002
  0.11210000000000001         -4.8224359750747681E-002
  0.11320000000000002         -4.8730593174695969E-002
  0.11430000000000001         -4.8713356256484985E-002
  0.11540000000000003         -4.8170063644647598E-002
  0.11650000000000002         -4.7118585556745529E-002
  0.11760000000000001         -4.5595496892929077E-002
  0.11870000000000003         -4.3641686439514160E-002
  0.11980000000000002         -4.1291184723377228E-002
  0.12090000000000001         -3.8576770573854446E-002
  0.12200000000000003         -3.5542599856853485E-002
  0.12310000000000001         -3.2243523746728897E-002
  0.12420000000000003         -2.8736019507050514E-002
  0.12530000000000002         -2.5073997676372528E-002
  0.12640000000000001         -2.1309422329068184E-002
  0.12750000000000003         -1.7495024949312210E-002
  0.12860000000000002         -1.3682063668966293E-002
  0.12970000000000001         -9.9159954115748405E-003
  0.13080000000000003         -6.2399455346167088E-003
  0.13190000000000002         -2.7010773774236441E-003
  0.13300000000000001          6.5405463101342320E-004
  0.13410000000000000          3.7919397000223398E-003
  0.13520000000000004          6.6946931183338165E-003
  0.13630000000000003          9.3474490568041801E-003
  0.13740000000000002          1.1727580800652504E-002
  0.13850000000000001          1.3810577802360058E-002
  0.13960000000000000          1.5585003420710564E-002
  0.14070000000000005          1.7057146877050400E-002
  0.14180000000000004          1.8238589167594910E-002
  0.14290000000000003          1.9133208319544792E-002
  0.14400000000000002          1.9741456955671310E-002
  0.14510000000000001          2.0073030143976212E-002
  0.14620000000000000          2.0149214193224907E-002
  0.14730000000000004          1.9992325454950333E-002
  0.14840000000000003          1.9619233906269073E-002
  0.14950000000000002          1.9047297537326813E-002
  0.15060000000000001          1.8300758674740791E-002
  0.15170000000000000          1.7406411468982697E-002
  0.15280000000000005          1.6384309157729149E-002
  0.15390000000000004          1.5249266289174557E-002
  0.15500000000000003          1.4020849019289017E-002
  0.15610000000000002          1.2726570479571819E-002
  0.15720000000000001          1.1392387561500072E-002
  0.15830000000000000          1.0032382793724537E-002
  0.15940000000000004          8.6536314338445663E-003
  0.16050000000000003          7.2690993547439575E-003
  0.16160000000000002          5.8998041786253452E-003
  0.16270000000000001          4.5632319524884224E-003
  0.16380000000000000          3.2657030969858170E-003
  0.16490000000000005          2.0100714173167944E-003
  0.16600000000000004          8.0624711699783802E-004
  0.16710000000000003         -3.3112126402556896E-004
  0.16820000000000002         -1.3937853509560227E-003
  0.16930000000000001         -2.3829650599509478E-003
  0.17040000000000000         -3.2988530583679676E-003
  0.17150000000000004         -4.1313264518976212E-003
  0.17260000000000003         -4.8663811758160591E-003
  0.17370000000000002         -5.4992605000734329E-003
  0.17480000000000001         -6.0350312851369381E-003
  0.17590000000000000         -6.4754481427371502E-003
  0.17700000000000005         -6.8109966814517975E-003
  0.17810000000000004         -7.0289173163473606E-003
  0.17920000000000003         -7.1245385333895683E-003
  0.18030000000000002         -7.1002128534018993E-003
  0.18140000000000001         -6.9550210610032082E-003
  0.18250000000000000         -6.6817579790949821E-003
  0.18360000000000004         -6.2747648917138577E-003
  0.18470000000000003         -5.7350071147084236E-003
  0.18580000000000002         -5.0643850117921829E-003
  0.18690000000000001         -4.2586531490087509E-003
  0.18800000000000000         -3.3119295258074999E-003
  0.18910000000000005         -2.2276323288679123E-003
  0.19020000000000004         -1.0190081084147096E-003
  0.19130000000000003          3.0317238997668028E-004
  0.19240000000000002          1.7377621261402965E-003
  0.19350000000000001          3.2841414213180542E-003
  0.19460000000000005          4.9289721064269543E-003
  0.19570000000000004          6.6480571404099464E-003
  0.19680000000000003          8.4197130054235458E-003
  0.19790000000000002          1.0230369865894318E-002
  0.19900000000000001          1.2066082097589970E-002
  0.20010000000000000          1.3903304003179073E-002
  0.20120000000000005          1.5711629763245583E-002
  0.20230000000000004          1.7462549731135368E-002
  0.20340000000000003          1.9132932648062706E-002
  0.20450000000000002          2.0698243752121925E-002
  0.20560000000000000          2.2127542644739151E-002
  0.20670000000000005          2.3388588801026344E-002
  0.20780000000000004          2.4454977363348007E-002
  0.20890000000000003          2.5306152179837227E-002
