 -0.12000000000000000          0.0000000000000000     
 -0.11889999999999999          0.0000000000000000     
 -0.11780000000000000          0.0000000000000000     
 -0.11670000000000000          0.0000000000000000     
 -0.11559999999999999          0.0000000000000000     
 -0.11449999999999999          0.0000000000000000     
 -0.11340000000000000          2.0533333888023789E-018
 -0.11230000000000000         -9.6978272444683659E-019
 -0.11119999999999999         -2.4896556522876157E-017
 -0.11009999999999999          3.8446655903847119E-018
 -0.10900000000000000          1.6964716004277009E-016
 -0.10790000000000000          4.5645831286480896E-017
 -0.10679999999999999         -8.1148789783704327E-016
 -0.10569999999999999         -6.2107976173372327E-016
 -0.10460000000000000          2.8311582865283213E-015
 -0.10349999999999999          3.8672724927740678E-015
 -0.10239999999999999         -6.9812070112708433E-015
 -0.10130000000000000         -1.5927687161266905E-014
 -0.10020000000000000          1.0528550924702226E-014
  -9.9099999999999994E-002     4.8914997350995790E-014
  -9.7999999999999990E-002    -1.9296198014396112E-016
  -9.6899999999999986E-002    -1.2244410129910732E-013
  -9.5799999999999996E-002    -6.3902665982124712E-014
  -9.4699999999999993E-002     2.6441319294669141E-013
  -9.3599999999999989E-002     3.0360422834628531E-013
  -9.2499999999999999E-002    -4.5358909770559785E-013
  -9.1399999999999995E-002    -1.0170514604113112E-012
  -9.0299999999999991E-002     3.3441641383163967E-013
  -8.9200000000000002E-002     2.5192716836264228E-012
  -8.8099999999999984E-002     1.2114461994325310E-012
  -8.6999999999999994E-002    -4.2207617609313353E-012
  -8.5899999999999990E-002    -5.6304110679361585E-012
  -8.4799999999999986E-002     3.6200521746909686E-012
  -8.3699999999999997E-002     1.2731346359096118E-011
  -8.2599999999999993E-002     2.5865685461534671E-012
  -8.1499999999999989E-002    -1.9879710724812760E-011
  -8.0399999999999999E-002    -1.6754585566158831E-011
  -7.9299999999999995E-002     2.3728892115104649E-011
  -7.8199999999999992E-002     4.3523365467201813E-011
  -7.7100000000000002E-002    -1.4428613685779634E-011
  -7.5999999999999984E-002    -8.7705287477035654E-011
  -7.4899999999999994E-002    -3.8046114869683123E-011
  -7.3799999999999991E-002     1.2360054646443075E-010
  -7.2699999999999987E-002     1.6119595935837339E-010
  -7.1599999999999997E-002    -7.3054569338371067E-011
  -7.0499999999999993E-002    -3.0860139443866785E-010
  -6.9399999999999989E-002    -1.2512159364153064E-010
  -6.8300000000000000E-002     3.5897543271268262E-010
  -6.7199999999999996E-002     4.3188269627236764E-010
  -6.6099999999999992E-002    -2.1898780011575525E-010
  -6.5000000000000002E-002    -7.6476258659141649E-010
  -6.3899999999999985E-002    -1.9117754601616355E-010
  -6.2799999999999995E-002     9.9250596630184873E-010
  -6.1699999999999991E-002     9.8562491501752447E-010
  -6.0599999999999994E-002    -7.2366668213419416E-010
  -5.9499999999999990E-002    -1.9550783214583589E-009
  -5.8399999999999994E-002    -4.7684445281248600E-010
  -5.7299999999999990E-002     2.2874777627635012E-009
  -5.6199999999999986E-002     2.3349304711928198E-009
  -5.5099999999999996E-002    -1.2367699087079131E-009
  -5.3999999999999992E-002    -3.8300762561505053E-009
  -5.2899999999999989E-002    -1.1312184522438429E-009
  -5.1799999999999985E-002     3.9615639657597512E-009
  -5.0699999999999995E-002     4.0896361852560403E-009
  -4.9599999999999991E-002    -2.0810602130438838E-009
  -4.8499999999999988E-002    -6.4193659277123061E-009
  -4.7399999999999998E-002    -1.9149266616835803E-009
  -4.6299999999999994E-002     6.3436567110386477E-009
  -4.5199999999999990E-002     6.7491825461729604E-009
  -4.4099999999999986E-002    -2.4029531697777884E-009
  -4.2999999999999997E-002    -9.0706375743820900E-009
  -4.1899999999999993E-002    -3.7450771372959935E-009
  -4.0799999999999989E-002     6.4202163585491689E-009
  -3.9699999999999985E-002     7.1582162419758788E-009
  -3.8599999999999995E-002    -2.1859374310650992E-009
  -3.7499999999999992E-002    -7.3949233403425296E-009
  -3.6399999999999988E-002    -5.5782339858367891E-010
  -3.5299999999999984E-002     7.8189099639303095E-009
  -3.4199999999999994E-002     4.8943626929087714E-009
  -3.3099999999999991E-002    -4.5495256451033583E-009
  -3.1999999999999987E-002    -6.0348859243219977E-009
  -3.0899999999999997E-002     6.7646771517715365E-010
  -2.9799999999999993E-002     1.0920313542328586E-009
  -2.8699999999999989E-002    -7.9048918522062195E-009
  -2.7599999999999986E-002    -8.6123987941277846E-009
  -2.6499999999999996E-002     8.9776222012005746E-009
  -2.5399999999999992E-002     2.3491937284347841E-008
  -2.4299999999999988E-002     8.4769391506256397E-009
  -2.3199999999999985E-002    -2.2924863785078742E-008
  -2.2099999999999995E-002    -2.7294481341755272E-008
  -2.0999999999999991E-002     6.6336358628404923E-009
  -1.9899999999999987E-002     3.2311099573689717E-008
  -1.8799999999999983E-002     6.4897083262849264E-009
  -1.7699999999999994E-002    -4.2041389036739929E-008
  -1.6599999999999990E-002    -4.2548272460862790E-008
  -1.5499999999999986E-002     1.8262500844912211E-008
  -1.4399999999999996E-002     6.7635063771831483E-008
  -1.3299999999999992E-002     4.0074834117831415E-008
  -1.2199999999999989E-002    -3.2658142856689665E-008
  -1.1099999999999985E-002    -6.3675152262021584E-008
  -9.9999999999999950E-003    -2.7594023066512818E-008
  -8.8999999999999913E-003     1.2863289100550901E-008
  -7.7999999999999875E-003     3.0492040004048704E-009
  -6.6999999999999837E-003    -3.0385891136575083E-008
  -5.5999999999999939E-003    -3.1253453158797129E-008
  -4.4999999999999901E-003    -6.5345440170005986E-010
  -3.3999999999999864E-003     1.7209336178325430E-008
  -2.2999999999999826E-003     1.3955288480360650E-008
  -1.1999999999999927E-003     1.9808366502616082E-008
  -9.9999999999988987E-005     2.7183107320638555E-008
   1.0000000000000148E-003    -2.0637646258592213E-008
   2.1000000000000185E-003    -1.2758117406974634E-007
   3.2000000000000084E-003    -1.8600320572659257E-007
   4.3000000000000121E-003    -1.0127895677669585E-007
   5.4000000000000159E-003     5.1247091903405817E-008
   6.5000000000000058E-003     8.9990841445342085E-008
   7.6000000000000234E-003    -2.9383475208533127E-008
   8.7000000000000133E-003    -1.3578285518178745E-007
   9.8000000000000032E-003    -7.2937503148295946E-008
   1.0900000000000021E-002     7.3120858701258840E-008
   1.2000000000000011E-002     7.2657464045278175E-008
   1.3100000000000001E-002    -1.3525878728160023E-007
   1.4200000000000018E-002    -3.3910876595655282E-007
   1.5300000000000008E-002    -3.2984931408464035E-007
   1.6400000000000026E-002    -1.5825250443413097E-007
   1.7500000000000016E-002    -3.2655592008268286E-008
   1.8600000000000005E-002    -2.5096110078948186E-008
   1.9700000000000023E-002    -4.3719296627386939E-008
   2.0800000000000013E-002    -2.7701645421984722E-008
   2.1900000000000003E-002    -2.8796895534810574E-008
   2.3000000000000020E-002    -1.0520547988335238E-007
   2.4100000000000010E-002    -1.8351232711211196E-007
   2.5200000000000000E-002    -1.8573464899418468E-007
   2.6300000000000018E-002    -1.7411250041732274E-007
   2.7400000000000008E-002    -2.4985033064695017E-007
   2.8500000000000025E-002    -3.5101132311865513E-007
   2.9600000000000015E-002    -2.5016333893290721E-007
   3.0700000000000005E-002     4.4208753990915284E-008
   3.1800000000000023E-002     2.2838619884169020E-007
   3.2900000000000013E-002     7.8470108633155178E-008
   3.4000000000000002E-002    -8.6077776018100849E-008
   3.5100000000000020E-002     5.7595944014110501E-008
   3.6200000000000010E-002     1.9861077760197077E-007
   3.7300000000000028E-002     1.9111817550765409E-007
   3.8400000000000017E-002     3.9444842059310758E-008
   3.9500000000000007E-002    -1.7199859314587229E-007
   4.0600000000000025E-002    -2.0750560381088690E-008
   4.1700000000000015E-002     4.2195281935164530E-007
   4.2800000000000005E-002     6.4270125221810304E-007
   4.3900000000000022E-002     4.3455915488266328E-007
   4.5000000000000012E-002     2.9899430842306174E-007
   4.6100000000000002E-002     5.3666195753976353E-007
   4.7200000000000020E-002     7.2589165256431443E-007
   4.8300000000000010E-002     8.0651039979784400E-007
   4.9400000000000027E-002     1.1358126812410774E-006
   5.0500000000000017E-002     1.5319549220293993E-006
   5.1600000000000007E-002     1.1261136023676954E-006
   5.2700000000000025E-002    -5.8095707800021046E-008
   5.3800000000000014E-002    -1.6664830582158174E-007
   5.4900000000000004E-002     1.3431575780487037E-006
   5.6000000000000022E-002     2.4257094537460944E-006
   5.7100000000000012E-002     1.4210792187441257E-006
   5.8200000000000002E-002    -1.0057106436534013E-007
   5.9300000000000019E-002     9.0071822000936663E-008
   6.0400000000000009E-002     1.2469553212213214E-006
   6.1500000000000027E-002     1.7013942397170467E-006
   6.2600000000000017E-002     9.9307817436056212E-007
   6.3700000000000007E-002     2.8869223456240434E-007
   6.4800000000000024E-002     3.5905455320062174E-007
   6.5900000000000014E-002     3.3184551284648478E-007
   6.7000000000000004E-002    -4.5716072349932801E-007
   6.8100000000000022E-002    -5.3362015250968398E-007
   6.9200000000000012E-002     9.1820379566343036E-007
   7.0300000000000029E-002     1.8826005998562323E-006
   7.1400000000000019E-002     3.7359035331974155E-007
   7.2500000000000009E-002    -3.0275268727564253E-006
   7.3600000000000027E-002    -4.5569777284981683E-006
   7.4700000000000016E-002    -1.3383170198721928E-006
   7.5800000000000006E-002     3.3366031857440248E-006
   7.6900000000000024E-002     3.0733613129996229E-006
   7.8000000000000014E-002    -2.7160344870935660E-006
   7.9100000000000004E-002    -7.0071123445814010E-006
   8.0200000000000021E-002    -4.6142536120896693E-006
   8.1300000000000011E-002     8.7821257466202951E-007
   8.2400000000000029E-002     2.4151556772267213E-006
   8.3500000000000019E-002    -1.2987413811060833E-006
   8.4600000000000009E-002    -5.0336452659394126E-006
   8.5700000000000026E-002    -4.7798939704080112E-006
   8.6800000000000016E-002    -2.2866493054607417E-006
   8.7900000000000006E-002    -7.3333484351678635E-007
   8.9000000000000024E-002     9.5773700081736024E-008
   9.0100000000000013E-002     1.1288974519629846E-006
   9.1200000000000003E-002     6.2836579672875814E-007
   9.2300000000000021E-002    -3.0644405342172831E-006
   9.3400000000000011E-002    -6.2954291024652775E-006
   9.4500000000000028E-002    -3.4113434139726451E-006
   9.5600000000000018E-002     4.0602390072308481E-006
   9.6700000000000008E-002     7.0174787651922088E-006
   9.7800000000000026E-002     7.0872494006835041E-007
   9.8900000000000016E-002    -7.0750220402260311E-006
  0.10000000000000001         -6.6469769990362693E-006
  0.10110000000000002          1.6393976238759933E-006
  0.10220000000000001          8.6835934780538082E-006
  0.10330000000000003          7.3900569077522960E-006
  0.10440000000000002          5.2939611805413733E-007
  0.10550000000000001         -3.8048947317292914E-006
  0.10660000000000003         -2.3060465537128039E-006
  0.10770000000000002          1.2505869335655007E-006
  0.10880000000000001          4.2970727918145712E-006
  0.10990000000000003          5.9768558458017651E-006
  0.11100000000000002          4.7587377594027203E-006
  0.11210000000000001         -2.3713674579539656E-007
  0.11320000000000002         -5.6791509450704325E-006
  0.11430000000000001         -4.5681558731303085E-006
  0.11540000000000003          4.1592797970224638E-006
  0.11650000000000002          1.1943908248213120E-005
  0.11760000000000001          9.8769278338295408E-006
  0.11870000000000003         -1.5450649470949429E-006
  0.11980000000000002         -1.0170962923439220E-005
  0.12090000000000001         -5.6451744967489503E-006
  0.12200000000000003          5.8130549405177590E-006
  0.12310000000000001          1.0667433343769517E-005
  0.12420000000000003          4.7477578846155666E-006
  0.12530000000000002         -4.0528261706640478E-006
  0.12640000000000001         -6.9412844823091291E-006
  0.12750000000000003         -3.9401816138706636E-006
  0.12860000000000002          9.7326974923817033E-008
  0.12970000000000001          3.4369427339697722E-006
  0.13080000000000003          6.0424576986406464E-006
  0.13190000000000002          5.0717821977741551E-006
  0.13300000000000001         -2.5471629214735003E-006
  0.13410000000000000         -1.1659371011774056E-005
  0.13520000000000004         -1.1446302778495010E-005
  0.13630000000000003          7.8028773486948921E-007
  0.13740000000000002          1.2934886399307288E-005
  0.13850000000000001          1.0638570529408753E-005
  0.13960000000000000         -4.1919111026800238E-006
  0.14070000000000005         -1.4487070984614547E-005
  0.14180000000000004         -9.1817155407625251E-006
  0.14290000000000003          3.8533107726834714E-006
  0.14400000000000002          9.4630258899996988E-006
  0.14510000000000001          4.1134030652756337E-006
  0.14620000000000000         -2.8507181468739873E-006
  0.14730000000000004         -4.6368068069568835E-006
  0.14840000000000003         -4.1930461520678364E-006
  0.14950000000000002         -4.5106444304110482E-006
  0.15060000000000001         -1.8267610357725061E-006
  0.15170000000000000          5.9464191508595832E-006
  0.15280000000000005          1.0872530765482225E-005
  0.15390000000000004          3.7452432479767594E-006
  0.15500000000000003         -1.0147823559236713E-005
  0.15610000000000002         -1.3980231415189337E-005
  0.15720000000000001         -1.6560419453526265E-006
  0.15830000000000000          1.2598660759977065E-005
  0.15940000000000004          1.1792591976700351E-005
  0.16050000000000003         -2.0534348550427239E-006
  0.16160000000000002         -1.1205001101188827E-005
  0.16270000000000001         -6.2963144955574535E-006
  0.16380000000000000          3.2284749522659695E-006
  0.16490000000000005          5.0746161832648795E-006
  0.16600000000000004          1.1246210078752483E-006
  0.16710000000000003          7.8993878105393378E-007
  0.16820000000000002          3.7937666093057487E-006
  0.16930000000000001          1.4207516869646497E-006
  0.17040000000000000         -6.7771634348900989E-006
  0.17150000000000004         -9.0319699665997177E-006
  0.17260000000000003          1.1952213299082359E-006
  0.17370000000000002          1.2325425814196933E-005
  0.17480000000000001          8.7913831521291286E-006
  0.17590000000000000         -6.0857264543301426E-006
  0.17700000000000005         -1.3018362551520113E-005
  0.17810000000000004         -3.2433301839773776E-006
  0.17920000000000003          9.4024853751761839E-006
  0.18030000000000002          8.4231014625402167E-006
  0.18140000000000001         -2.6039595013571670E-006
  0.18250000000000000         -7.1706908784108236E-006
  0.18360000000000004         -5.9615695136017166E-007
  0.18470000000000003          4.6826635298202746E-006
  0.18580000000000002         -9.7927163267286232E-008
  0.18690000000000001         -5.8734190133691300E-006
  0.18800000000000000         -1.0793111187012983E-006
  0.18910000000000005          8.4892299128114246E-006
  0.19020000000000004          7.1763870437280275E-006
  0.19130000000000003         -5.6433632380503695E-006
  0.19240000000000002         -1.2141904335294385E-005
  0.19350000000000001         -2.4924941044446314E-006
  0.19460000000000005          1.0115101758856326E-005
  0.19570000000000004          8.3285758591955528E-006
  0.19680000000000003         -4.6498744268319570E-006
  0.19790000000000002         -9.8000873549608514E-006
  0.19900000000000001         -4.9816037517302902E-007
  0.20010000000000000          8.2132210081908852E-006
  0.20120000000000005          3.6540800465445500E-006
  0.20230000000000004         -5.6793046496750321E-006
  0.20340000000000003         -4.5106885409040842E-006
  0.20450000000000002          5.0642033784242813E-006
  0.20560000000000000          7.0106498242239468E-006
  0.20670000000000005         -3.1817028229852440E-006
  0.20780000000000004         -1.0517359442019369E-005
  0.20890000000000003         -2.8028646283928538E-006
