 -0.12000000000000000          0.0000000000000000
 -0.11889999999999999          0.0000000000000000
 -0.11780000000000000          0.0000000000000000
 -0.11670000000000000          0.0000000000000000
 -0.11559999999999999          0.0000000000000000
 -0.11449999999999999          0.0000000000000000
 -0.11340000000000000          0.0000000000000000
 -0.11230000000000000          4.5173334915543855E-021
 -0.11119999999999999         -2.1335217507987356E-021
 -0.11009999999999999         -5.0255093159369238E-020
 -0.10900000000000000          6.3247356507830386E-021
 -0.10790000000000000          3.2296866351523760E-019
 -0.10679999999999999          1.0674557717373977E-019
 -0.10569999999999999         -1.4623047761222683E-018
 -0.10460000000000000         -1.2596300164102911E-018
 -0.10349999999999999          4.7662432272616785E-018
 -0.10239999999999999          7.2483702952041428E-018
 -0.10130000000000000         -1.0592410048849818E-017
 -0.10020000000000000         -2.7792543971565133E-017
  -9.9099999999999994E-002     1.2570398243991732E-017
  -9.7999999999999990E-002     7.9820460804419312E-017
  -9.6899999999999986E-002     1.2145883363365230E-017
  -9.5799999999999996E-002    -1.8955655035397421E-016
  -9.4699999999999993E-002    -1.2843990713135484E-016
  -9.3599999999999989E-002     3.9215259059577714E-016
  -9.2499999999999999E-002     5.3948947190813040E-016
  -9.1399999999999995E-002    -6.0574327731161850E-016
  -9.0299999999999991E-002    -1.6980233383172912E-015
  -8.9200000000000002E-002     1.2997302353099532E-016
  -8.8099999999999984E-002     3.8443742275944687E-015
  -8.6999999999999994E-002     2.7951547275888037E-015
  -8.5899999999999990E-002    -5.4413006896460517E-015
  -8.4799999999999986E-002    -9.5917485786649673E-015
  -8.3699999999999997E-002     2.5228135180140488E-015
  -8.2599999999999993E-002     1.8417215249069176E-014
  -8.1499999999999989E-002     8.2132600552490068E-015
  -8.0399999999999999E-002    -2.5318153606609939E-014
  -7.9299999999999995E-002    -2.8646833847125255E-014
  -7.8199999999999992E-002     2.6885410198585098E-014
  -7.7100000000000002E-002     6.7104572495490372E-014
  -7.5999999999999984E-002    -4.8575484522879638E-015
  -7.4899999999999994E-002    -1.2584705955283326E-013
  -7.3799999999999991E-002    -8.8558948043750141E-014
  -7.2699999999999987E-002     1.4607405725546724E-013
  -7.1599999999999997E-002     2.6607204937564854E-013
  -7.0499999999999993E-002    -1.4646019585919795E-014
  -6.9399999999999989E-002    -4.1285109554124733E-013
  -6.8300000000000000E-002    -2.8991373646376772E-013
  -6.7199999999999996E-002     3.7689483153337255E-013
  -6.6099999999999992E-002     6.6022843659210850E-013
  -6.5000000000000002E-002    -1.0487793901566012E-013
  -6.3899999999999985E-002    -1.0222490172059895E-012
  -6.2799999999999995E-002    -5.2546839492476072E-013
  -6.1699999999999991E-002     1.1612636850386049E-012
  -6.0599999999999994E-002     1.6429054297550927E-012
  -5.9499999999999990E-002    -4.3080353195369681E-013
  -5.8399999999999994E-002    -2.6582670526603680E-012
  -5.7299999999999990E-002    -1.4798601797108568E-012
  -5.6199999999999986E-002     2.3741848331065851E-012
  -5.5099999999999996E-002     3.6569857385371218E-012
  -5.3999999999999992E-002    -3.4670782412572765E-013
  -5.2899999999999989E-002    -4.7691820111162020E-012
  -5.1799999999999985E-002    -2.8353903426536764E-012
  -5.0699999999999995E-002     3.9462547812840754E-012
  -4.9599999999999991E-002     6.1618149818642998E-012
  -4.8499999999999988E-002    -6.3208173504275544E-013
  -4.7399999999999998E-002    -7.9607960848382398E-012
  -4.6299999999999994E-002    -4.8449117981408385E-012
  -4.5199999999999990E-002     5.9952520378714347E-012
  -4.4099999999999986E-002     1.0003299404093280E-011
  -4.2999999999999997E-002     7.0876258421309624E-013
  -4.1899999999999993E-002    -9.9521406740632479E-012
  -4.0799999999999989E-002    -7.5304181293422978E-012
  -3.9699999999999985E-002     4.1723872620802460E-012
  -3.8599999999999995E-002     8.2176886823104311E-012
  -3.7499999999999992E-002    -6.3665912819477199E-013
  -3.6399999999999988E-002    -8.0511699737662035E-012
  -3.5299999999999984E-002    -1.8639456297875334E-012
  -3.4199999999999994E-002     9.1503107174650822E-012
  -3.3099999999999991E-002     8.9035558439864992E-012
  -3.1999999999999987E-002    -8.5870828676892774E-013
  -3.0899999999999997E-002    -4.3732734447687882E-012
  -2.9799999999999993E-002     6.2964846010704623E-013
  -2.8699999999999989E-002    -1.9706079216336159E-012
  -2.7599999999999986E-002    -1.6760957205486093E-011
  -2.6499999999999996E-002    -2.0918494367250240E-011
  -2.5399999999999992E-002     2.9896306784349402E-012
  -2.4299999999999988E-002     3.0763776942555054E-011
  -2.3199999999999985E-002     2.1638078481767131E-011
  -2.2099999999999995E-002    -1.9671358292283614E-011
  -2.0999999999999991E-002    -3.8408554114965909E-011
  -1.9899999999999987E-002    -5.0711505307499127E-012
  -1.8799999999999983E-002     3.2689149997988665E-011
  -1.7699999999999994E-002     9.2205965085412345E-012
  -1.6599999999999990E-002    -5.9777079119971432E-011
  -1.5499999999999986E-002    -8.4356112373118464E-011
  -1.4399999999999996E-002    -1.9564008399419741E-011
  -1.3299999999999992E-002     6.4453005432785204E-011
  -1.2199999999999989E-002     6.8579926459921836E-011
  -1.1099999999999985E-002    -7.3335799238849475E-012
  -9.9999999999999950E-003    -7.1449852978577866E-011
  -8.8999999999999913E-003    -6.8009424480930392E-011
  -7.7999999999999875E-003    -4.3178845915425867E-011
  -6.6999999999999837E-003    -6.1346386304172995E-011
  -5.5999999999999939E-003    -1.0987928622530063E-010
  -4.4999999999999901E-003    -1.2977106889078271E-010
  -3.3999999999999864E-003    -1.1116316200876497E-010
  -2.2999999999999826E-003    -9.2089322278887664E-011
  -1.1999999999999927E-003    -8.1026782505766448E-011
  -9.9999999999988987E-005    -4.9192254436558613E-011
   1.0000000000000148E-003    -2.1563698743287674E-011
   2.1000000000000185E-003    -9.4287806728932111E-011
   3.2000000000000084E-003    -3.0156338537423721E-010
   4.3000000000000121E-003    -5.0252169092601662E-010
   5.4000000000000159E-003    -5.2384341309164029E-010
   6.5000000000000058E-003    -3.8870801022383716E-010
   7.6000000000000234E-003    -3.2448177478272555E-010
   8.7000000000000133E-003    -4.5445580632019755E-010
   9.8000000000000032E-003    -6.2161864544663104E-010
   1.0900000000000021E-002    -6.1248883742592852E-010
   1.2000000000000011E-002    -4.5779621760111411E-010
   1.3100000000000001E-002    -4.4538139842842384E-010
   1.4200000000000018E-002    -7.4689832096908049E-010
   1.5300000000000008E-002    -1.1881473582775470E-009
   1.6400000000000026E-002    -1.4688038563193118E-009
   1.7500000000000016E-002    -1.5325373192709435E-009
   1.8600000000000005E-002    -1.5340169134958614E-009
   1.9700000000000023E-002    -1.5866228331162802E-009
   2.0800000000000013E-002    -1.6341445974177304E-009
   2.1900000000000003E-002    -1.6501958688408536E-009
   2.3000000000000020E-002    -1.6895513876846735E-009
   2.4100000000000010E-002    -1.8948456137479752E-009
   2.5200000000000000E-002    -2.1213566459010735E-009
   2.6300000000000018E-002    -2.3400021920139125E-009
   2.7400000000000008E-002    -2.5420134885933976E-009
   2.8500000000000025E-002    -2.8902458204527193E-009
   2.9600000000000015E-002    -3.3253135800492828E-009
   3.0700000000000005E-002    -3.4774085833078061E-009
   3.1800000000000023E-002    -3.2317488685151829E-009
   3.2900000000000013E-002    -2.9133309098483551E-009
   3.4000000000000002E-002    -3.0552991248100625E-009
   3.5100000000000020E-002    -3.1265030564497920E-009
   3.6200000000000010E-002    -2.9134983314804686E-009
   3.7300000000000028E-002    -2.7605391306195770E-009
   3.8400000000000017E-002    -2.5721478280615884E-009
   3.9500000000000007E-002    -2.6118269769170865E-009
   4.0600000000000025E-002    -2.9480582419694201E-009
   4.1700000000000015E-002    -2.8023774412133662E-009
   4.2800000000000005E-002    -2.1446266984526119E-009
   4.3900000000000022E-002    -1.3263314890821221E-009
   4.5000000000000012E-002    -1.1803343857863524E-009
   4.6100000000000002E-002    -9.4787910853710855E-010
   4.7200000000000020E-002    -4.6310053014586572E-011
   4.8300000000000010E-002     7.8738593423111070E-010
   4.9400000000000027E-002     1.6894220467023047E-009
   5.0500000000000017E-002     2.9768805198671089E-009
   5.1600000000000007E-002     4.6467016900919589E-009
   5.2700000000000025E-002     5.3663478105647755E-009
   5.3800000000000014E-002     4.2822168033751495E-009
   5.4900000000000004E-002     4.4608534643941766E-009
   5.6000000000000022E-002     6.9291559157136362E-009
   5.7100000000000012E-002     9.8473398324472328E-009
   5.8200000000000002E-002     9.9119361607336032E-009
   5.9300000000000019E-002     9.1295246917866280E-009
   6.0400000000000009E-002     9.7477013127900136E-009
   6.1500000000000027E-002     1.1973545710475264E-008
   6.2600000000000017E-002     1.3799667186731313E-008
   6.3700000000000007E-002     1.4119686753133465E-008
   6.4800000000000024E-002     1.3988919356222596E-008
   6.5900000000000014E-002     1.4316644758594066E-008
   6.7000000000000004E-002     1.4393802594270255E-008
   6.8100000000000022E-002     1.2958078166036557E-008
   6.9200000000000012E-002     1.3146086885740260E-008
   7.0300000000000029E-002     1.4910344958707356E-008
   7.1400000000000019E-002     1.6625575582907004E-008
   7.2500000000000009E-002     1.5458185842476269E-008
   7.3600000000000027E-002     1.0223896396155396E-008
   7.4700000000000016E-002     5.2952304763209668E-009
   7.5800000000000006E-002     6.6694449962767521E-009
   7.6900000000000024E-002     1.2085119571736413E-008
   7.8000000000000014E-002     1.3192203773826350E-008
   7.9100000000000004E-002     6.1383107485823984E-009
   8.0200000000000021E-002    -2.0878163642379377E-009
   8.1300000000000011E-002    -4.0758916242111809E-009
   8.2400000000000029E-002    -2.7546470660055888E-010
   8.3500000000000019E-002     1.2523152514987146E-009
   8.4600000000000009E-002    -3.1226321528521339E-009
   8.5700000000000026E-002    -9.7076160443521076E-009
   8.6800000000000016E-002    -1.3557546196807380E-008
   8.7900000000000006E-002    -1.4694313321683694E-008
   8.9000000000000024E-002    -1.5037667111528208E-008
   9.0100000000000013E-002    -1.4453092056498917E-008
   9.1200000000000003E-002    -1.2511471858545065E-008
   9.2300000000000021E-002    -1.2874616039937337E-008
   9.3400000000000011E-002    -1.9398394002223540E-008
   9.4500000000000028E-002    -2.7210138142663709E-008
   9.5600000000000018E-002    -2.7143505221260966E-008
   9.6700000000000008E-002    -1.7765477977604860E-008
   9.7800000000000026E-002    -1.1171620961647477E-008
   9.8900000000000016E-002    -1.6380711898023037E-008
  0.10000000000000001         -2.6749173542839344E-008
  0.10110000000000002         -3.0665322725553779E-008
  0.10220000000000001         -2.3162341378224482E-008
  0.10330000000000003         -1.2022645989873126E-008
  0.10440000000000002         -7.3191985805465265E-009
  0.10550000000000001         -1.1041567660186047E-008
  0.10660000000000003         -1.5941202136104948E-008
  0.10770000000000002         -1.5869222380615611E-008
  0.10880000000000001         -1.3055247549687010E-008
  0.10990000000000003         -6.0946176994036705E-009
  0.11100000000000002          1.0555814000667851E-009
  0.11210000000000001          5.5191189396452955E-009
  0.11320000000000002          1.6907938382715315E-009
  0.11430000000000001         -6.9447816386514205E-009
  0.11540000000000003         -8.8103995210531139E-009
  0.11650000000000002          1.5787205986939057E-009
  0.11760000000000001          1.6127422952649795E-008
  0.11870000000000003          2.2423167322926929E-008
  0.11980000000000002          1.1990022308339121E-008
  0.12090000000000001         -9.0459206791848601E-010
  0.12200000000000003         -1.0374693326653528E-009
  0.12310000000000001          1.1639904151650171E-008
  0.12420000000000003          2.2670828769832951E-008
  0.12530000000000002          2.1965544050317476E-008
  0.12640000000000001          1.3186960856614860E-008
  0.12750000000000003          6.5705769713986228E-009
  0.12860000000000002          4.3894803347654943E-009
  0.12970000000000001          6.4681437983438173E-009
  0.13080000000000003          1.2087229883661621E-008
  0.13190000000000002          1.9950364915644059E-008
  0.13300000000000001          2.3310997576686532E-008
  0.13410000000000000          1.4422993466212120E-008
  0.13520000000000004         -2.2967852064681438E-009
  0.13630000000000003         -1.0773220537885209E-008
  0.13740000000000002         -6.3142208128752486E-010
  0.13850000000000001          1.7655345629918884E-008
  0.13960000000000000          2.2786400322161171E-008
  0.14070000000000005          8.4806304201379135E-009
  0.14180000000000004         -9.0715452927270235E-009
  0.14290000000000003         -1.1742497640909733E-008
  0.14400000000000002         -6.4498534291246301E-010
  0.14510000000000001          9.1618499453716140E-009
  0.14620000000000000          8.5467783961235000E-009
  0.14730000000000004          2.9523785638474465E-009
  0.14840000000000003         -1.5834340505449518E-009
  0.14950000000000002         -6.2281966251021004E-009
  0.15060000000000001         -1.1576121394796246E-008
  0.15170000000000000         -1.0322446897248483E-008
  0.15280000000000005          1.4704986117664021E-009
  0.15390000000000004          1.3593258962885102E-008
  0.15500000000000003          9.5224086393841390E-009
  0.15610000000000002         -9.0619431958316454E-009
  0.15720000000000001         -2.1114411552503043E-008
  0.15830000000000000         -1.2465044996190500E-008
  0.15940000000000004          6.7101968426186431E-009
  0.16050000000000003          1.3588074665449312E-008
  0.16160000000000002          2.1569379615726803E-009
  0.16270000000000001         -1.1147297307445569E-008
  0.16380000000000000         -1.1634322838460776E-008
  0.16490000000000005         -3.9549203911803943E-009
  0.16600000000000004         -5.6101212564385605E-010
  0.16710000000000003         -1.6744583497541043E-009
  0.16820000000000002          1.1733677363068296E-009
  0.16930000000000001          6.7730812070010415E-009
  0.17040000000000000          4.3353245438026988E-009
  0.17150000000000004         -8.0947764047323290E-009
  0.17260000000000003         -1.5493011318312711E-008
  0.17370000000000002         -5.4668274351854507E-009
  0.17480000000000001          1.1591808402044990E-008
  0.17590000000000000          1.3885451899398049E-008
  0.17700000000000005         -1.7687586950643208E-009
  0.17810000000000004         -1.4746508902874211E-008
  0.17920000000000003         -8.9039859929584964E-009
  0.18030000000000002          5.9062914559149249E-009
  0.18140000000000001          9.5693462043300315E-009
  0.18250000000000000          2.6508145678505457E-010
  0.18360000000000004         -6.2003073786343066E-009
  0.18470000000000003         -1.1770845409486697E-009
  0.18580000000000002          4.1551211360513207E-009
  0.18690000000000001         -1.3003704779634973E-009
  0.18800000000000000         -8.6780271857378466E-009
  0.18910000000000005         -3.6907470413183319E-009
  0.19020000000000004          9.9632808669980477E-009
  0.19130000000000003          1.2240181312961340E-008
  0.19240000000000002         -2.5862985086888557E-009
  0.19350000000000001         -1.4693560146383788E-008
  0.19460000000000005         -8.0297120064187766E-009
  0.19570000000000004          7.6324289111084909E-009
  0.19680000000000003          1.0482922085941482E-008
  0.19790000000000002         -2.4783828322938461E-009
  0.19900000000000001         -1.1206804373387058E-008
  0.20010000000000000         -3.6632770150646365E-009
  0.20120000000000005          6.6970593515236487E-009
  0.20230000000000004          4.0223979702602719E-009
  0.20340000000000003         -6.0389471201460765E-009
  0.20450000000000002         -5.9289275711194023E-009
  0.20560000000000000          5.1389683619618154E-009
  0.20670000000000005          9.5737746619306563E-009
  0.20780000000000004         -1.5838849121152521E-009
  0.20890000000000003         -1.3297527523548069E-008
