 -0.12000000000000000          0.0000000000000000
 -0.11889999999999999          0.0000000000000000
 -0.11780000000000000          0.0000000000000000
 -0.11670000000000000          1.2546763107634806E-011
 -0.11559999999999999          1.3697711367943732E-011
 -0.11449999999999999         -3.8519888667654101E-011
 -0.11340000000000000         -6.0437016502490337E-011
 -0.11230000000000000          8.1728193657149006E-011
 -0.11119999999999999          2.1664815774702362E-010
 -0.11009999999999999         -3.4040614077524012E-011
 -0.10900000000000000         -4.8208054215237439E-010
 -0.10790000000000000         -2.7206706332272290E-010
 -0.10679999999999999          7.1667355383553399E-010
 -0.10569999999999999          1.0246070658581630E-009
 -0.10460000000000000         -4.2161413249530710E-010
 -0.10349999999999999         -1.8818480107540836E-009
 -0.10239999999999999         -6.0493338116529571E-010
 -0.10130000000000000          2.4258657305153974E-009
 -0.10020000000000000          2.5024646799209904E-009
  -9.9099999999999994E-002    -1.8537392731943214E-009
  -9.7999999999999990E-002    -4.8300972110837392E-009
  -9.6899999999999986E-002    -6.5601130083692283E-010
  -9.5799999999999996E-002     6.4044076708569264E-009
  -9.4699999999999993E-002     5.8165898764173107E-009
  -9.3599999999999989E-002    -3.7803706831596173E-009
  -9.2499999999999999E-002    -9.8755315036669344E-009
  -9.1399999999999995E-002    -2.5646533785561587E-009
  -9.0299999999999991E-002     9.5435064295656957E-009
  -8.9200000000000002E-002     9.3253387234426555E-009
  -8.8099999999999984E-002    -4.2171426350989805E-009
  -8.6999999999999994E-002    -1.2694440165716969E-008
  -8.5899999999999990E-002    -3.9120702233219617E-009
  -8.4799999999999986E-002     9.9854604584947992E-009
  -8.3699999999999997E-002     9.7387156117179074E-009
  -8.2599999999999993E-002    -2.9504683141112764E-009
  -8.1499999999999989E-002    -8.7990539299198645E-009
  -8.0399999999999999E-002    -8.1161039000576807E-010
  -7.9299999999999995E-002     5.8461169238910315E-009
  -7.8199999999999992E-002    -3.1187788462894162E-010
  -7.7100000000000002E-002    -7.3376864584417945E-009
  -7.5999999999999984E-002     2.9691941180048920E-012
  -7.4899999999999994E-002     1.1607462546692204E-008
  -7.3799999999999991E-002     4.7746384623792437E-009
  -7.2699999999999987E-002    -1.6708165517798079E-008
  -7.1599999999999997E-002    -2.0920309040661778E-008
  -7.0499999999999993E-002     5.0183723843133521E-009
  -6.9399999999999989E-002     2.8316698319486022E-008
  -6.8300000000000000E-002     1.2550958494728093E-008
  -6.7199999999999996E-002    -2.6887942539133292E-008
  -6.6099999999999992E-002    -3.8679164759969353E-008
  -6.5000000000000002E-002    -6.8538561492914596E-009
  -6.3899999999999985E-002     2.4600396386631473E-008
  -6.2799999999999995E-002     1.2652751735231504E-008
  -6.1699999999999991E-002    -2.5253452662354903E-008
  -6.0599999999999994E-002    -3.9293038156529292E-008
  -5.9499999999999990E-002    -1.9400914652578649E-008
  -5.8399999999999994E-002    -3.7838399080669660E-009
  -5.7299999999999990E-002    -1.5919523477236908E-008
  -5.6199999999999986E-002    -3.1369257413871310E-008
  -5.5099999999999996E-002    -2.4939522447198215E-008
  -5.3999999999999992E-002    -1.7682884490000106E-008
  -5.2899999999999989E-002    -4.2286462331730945E-008
  -5.1799999999999985E-002    -8.0362298149339040E-008
  -5.0699999999999995E-002    -7.9882468639880244E-008
  -4.9599999999999991E-002    -3.7831284771527862E-008
  -4.8499999999999988E-002    -1.9347170976402595E-008
  -4.7399999999999998E-002    -6.9011790060358180E-008
  -4.6299999999999994E-002    -1.3945387422609201E-007
  -4.5199999999999990E-002    -1.5015395149475808E-007
  -4.4099999999999986E-002    -1.0027047636640418E-007
  -4.2999999999999997E-002    -7.1666931944491807E-008
  -4.1899999999999993E-002    -1.1474452321635908E-007
  -4.0799999999999989E-002    -1.8237510346352792E-007
  -3.9699999999999985E-002    -2.0388004884352995E-007
  -3.8599999999999995E-002    -1.8465661355548946E-007
  -3.7499999999999992E-002    -1.8540903568009526E-007
  -3.6399999999999988E-002    -2.2214078398974380E-007
  -3.5299999999999984E-002    -2.4801934728202468E-007
  -3.4199999999999994E-002    -2.3923982439555402E-007
  -3.3099999999999991E-002    -2.4121229103002406E-007
  -3.1999999999999987E-002    -2.9318422889446083E-007
  -3.0899999999999997E-002    -3.5208702797717706E-007
  -2.9799999999999993E-002    -3.4674403082135541E-007
  -2.8699999999999989E-002    -2.9049104455225461E-007
  -2.7599999999999986E-002    -2.7545084435587341E-007
  -2.6499999999999996E-002    -3.4248205338371918E-007
  -2.5399999999999992E-002    -4.1515204429742880E-007
  -2.4299999999999988E-002    -4.0524611222281237E-007
  -2.3199999999999985E-002    -3.3571558333278517E-007
  -2.2099999999999995E-002    -3.0304008191706089E-007
  -2.0999999999999991E-002    -3.3726442438819504E-007
  -1.9899999999999987E-002    -3.6610245501833560E-007
  -1.8799999999999983E-002    -3.3274599786636827E-007
  -1.7699999999999994E-002    -2.7657031864691817E-007
  -1.6599999999999990E-002    -2.5848984819276666E-007
  -1.5499999999999986E-002    -2.6027734634226363E-007
  -1.4399999999999996E-002    -2.1478064127222751E-007
  -1.3299999999999992E-002    -1.2105300584153156E-007
  -1.2199999999999989E-002    -5.5594554737581348E-008
  -1.1099999999999985E-002    -5.3948753020449658E-008
  -9.9999999999999950E-003    -4.6930264119282583E-008
  -8.8999999999999913E-003     4.4146634792241457E-008
  -7.7999999999999875E-003     1.8381598465566640E-007
  -6.6999999999999837E-003     2.7294689175505482E-007
  -5.5999999999999939E-003     2.9075033580738818E-007
  -4.4999999999999901E-003     3.1965078051143792E-007
  -3.3999999999999864E-003     4.1705570197336783E-007
  -2.2999999999999826E-003     5.4522678283319692E-007
  -1.1999999999999927E-003     6.2394752831096412E-007
  -9.9999999999988987E-005     6.5615904532023706E-007
   1.0000000000000148E-003     7.1364513587468537E-007
   2.1000000000000185E-003     8.1522216532903258E-007
   3.2000000000000084E-003     9.0072484226766392E-007
   4.3000000000000121E-003     9.2176765065232757E-007
   5.4000000000000159E-003     9.2386898131735506E-007
   6.5000000000000058E-003     9.7900840501097264E-007
   7.6000000000000234E-003     1.0620152579576825E-006
   8.7000000000000133E-003     1.0918672614934621E-006
   9.8000000000000032E-003     1.0462401860422688E-006
   1.0900000000000021E-002     1.0000817383115645E-006
   1.2000000000000011E-002     1.0099145129061071E-006
   1.3100000000000001E-002     1.0320969749955111E-006
   1.4200000000000018E-002     9.9305134426685981E-007
   1.5300000000000008E-002     8.9560330707172398E-007
   1.6400000000000026E-002     8.1153518749488285E-007
   1.7500000000000016E-002     7.7036747825331986E-007
   1.8600000000000005E-002     7.1826320890977513E-007
   1.9700000000000023E-002     6.0880086039105663E-007
   2.0800000000000013E-002     4.7579763418070797E-007
   2.1900000000000003E-002     3.7903299698882620E-007
   2.3000000000000020E-002     3.1026863211991440E-007
   2.4100000000000010E-002     2.0847062387474580E-007
   2.5200000000000000E-002     5.8276647507682355E-008
   2.6300000000000018E-002    -8.1173524790756346E-008
   2.7400000000000008E-002    -1.6640449018723302E-007
   2.8500000000000025E-002    -2.3121518211155490E-007
   2.9600000000000015E-002    -3.3821180522863870E-007
   3.0700000000000005E-002    -4.7440303774237691E-007
   3.1800000000000023E-002    -5.7924813745557913E-007
   3.2900000000000013E-002    -6.2710950032851542E-007
   3.4000000000000002E-002    -6.6327271497357287E-007
   3.5100000000000020E-002    -7.3346302542631747E-007
   3.6200000000000010E-002    -8.1236021287622862E-007
   3.7300000000000028E-002    -8.5194949406286469E-007
   3.8400000000000017E-002    -8.5286325202105218E-007
   3.9500000000000007E-002    -8.5484981582339969E-007
   4.0600000000000025E-002    -8.7524500713698217E-007
   4.1700000000000015E-002    -8.7615893562542624E-007
   4.2800000000000005E-002    -8.3538958506323979E-007
   4.3900000000000022E-002    -7.8985686968735536E-007
   4.5000000000000012E-002    -7.6571757290366804E-007
   4.6100000000000002E-002    -7.4252443482691888E-007
   4.7200000000000020E-002    -6.8923537810405833E-007
   4.8300000000000010E-002    -6.0310412663966417E-007
   4.9400000000000027E-002    -5.2103598591202172E-007
   5.0500000000000017E-002    -4.7211688070092350E-007
   5.1600000000000007E-002    -4.3252103409940901E-007
   5.2700000000000025E-002    -3.7046942225060775E-007
   5.3800000000000014E-002    -2.8571173515956616E-007
   5.4900000000000004E-002    -2.0319176030625385E-007
   5.6000000000000022E-002    -1.3831778744588519E-007
   5.7100000000000012E-002    -8.0041090200211329E-008
   5.8200000000000002E-002    -2.3786920877455486E-008
   5.9300000000000019E-002     2.1381087123018006E-008
   6.0400000000000009E-002     5.5490531281066069E-008
   6.1500000000000027E-002     9.7070561366763286E-008
   6.2600000000000017E-002     1.5118752116904943E-007
   6.3700000000000007E-002     1.9727200140096102E-007
   6.4800000000000024E-002     2.1262859206672147E-007
   6.5900000000000014E-002     2.0873281414424127E-007
   6.7000000000000004E-002     2.1577342579348624E-007
   6.8100000000000022E-002     2.3756716416301060E-007
   6.9200000000000012E-002     2.5193790520461334E-007
   7.0300000000000029E-002     2.4816347377054626E-007
   7.1400000000000019E-002     2.4236720719272853E-007
   7.2500000000000009E-002     2.4459259861941973E-007
   7.3600000000000027E-002     2.3675379168253130E-007
   7.4700000000000016E-002     2.0459550853502151E-007
   7.5800000000000006E-002     1.6974085781384929E-007
   7.6900000000000024E-002     1.6363719623768702E-007
   7.8000000000000014E-002     1.7615330705211818E-007
   7.9100000000000004E-002     1.6701116578587971E-007
   8.0200000000000021E-002     1.2374209745757980E-007
   8.1300000000000011E-002     8.2530647205203422E-008
   8.2400000000000029E-002     7.5119743314644438E-008
   8.3500000000000019E-002     8.0789639866907237E-008
   8.4600000000000009E-002     6.3330574562314723E-008
   8.5700000000000026E-002     3.0624029534465080E-008
   8.6800000000000016E-002     2.1658017601566826E-008
   8.7900000000000006E-002     3.6296562200277549E-008
   8.9000000000000024E-002     2.7840718175298207E-008
   9.0100000000000013E-002    -2.1842801345428597E-008
   9.1200000000000003E-002    -6.0867122897434456E-008
   9.2300000000000021E-002    -3.7764078086865993E-008
   9.3400000000000011E-002     1.5149410614867520E-008
   9.4500000000000028E-002     1.8715859084750264E-008
   9.5600000000000018E-002    -3.8817834280280294E-008
   9.6700000000000008E-002    -8.3330384370583488E-008
   9.7800000000000026E-002    -6.1441433274467272E-008
   9.8900000000000016E-002    -1.3813239441162750E-008
  0.10000000000000001         -9.7519121666778119E-009
  0.10110000000000002         -4.2849020331914289E-008
  0.10220000000000001         -5.1150419011491977E-008
  0.10330000000000003         -2.1824693163807751E-008
  0.10440000000000002         -1.0805268679803248E-008
  0.10550000000000001         -4.5993171937652733E-008
  0.10660000000000003         -7.1301727189165831E-008
  0.10770000000000002         -3.1628918151227481E-008
  0.10880000000000001          2.9634289688829085E-008
  0.10990000000000003          2.4571189527478055E-008
  0.11100000000000002         -4.5745586874090804E-008
  0.11210000000000001         -8.1946105012775661E-008
  0.11320000000000002         -2.8979027177911121E-008
  0.11430000000000001          4.0371681109263591E-008
  0.11540000000000003          3.0888095636782964E-008
  0.11650000000000002         -3.5315448343453681E-008
  0.11760000000000001         -5.5093138939810160E-008
  0.11870000000000003         -1.5207044512521861E-009
  0.11980000000000002          3.8753672271241157E-008
  0.12090000000000001          4.0069467743819587E-009
  0.12200000000000003         -4.6341778414671353E-008
  0.12310000000000001         -2.6534436869951605E-008
  0.12420000000000003          3.7455194501490041E-008
  0.12530000000000002          4.5631200151774465E-008
  0.12640000000000001         -1.9344351898098466E-008
  0.12750000000000003         -6.0242633992402261E-008
  0.12860000000000002         -1.3222720696148826E-008
  0.12970000000000001          5.2699551389423505E-008
  0.13080000000000003          3.9756461234219387E-008
  0.13190000000000002         -2.9133383705470806E-008
  0.13300000000000001         -4.6377241602613140E-008
  0.13410000000000000          1.3400130782770248E-008
  0.13520000000000004          5.3931824339770174E-008
  0.13630000000000003          8.4623055229826605E-009
  0.13740000000000002         -5.3895288232297389E-008
  0.13850000000000001         -3.3240151964264442E-008
  0.13960000000000000          4.4205332727642599E-008
  0.14070000000000005          6.1916381355331396E-008
  0.14180000000000004         -1.0023123664382183E-008
  0.14290000000000003         -6.6580163604612608E-008
  0.14400000000000002         -2.5438499307028906E-008
  0.14510000000000001          5.0045763089201500E-008
  0.14620000000000000          4.8432866606162861E-008
  0.14730000000000004         -2.2283545675350069E-008
  0.14840000000000003         -5.1917023569103549E-008
  0.14950000000000002          9.6959351658654214E-010
  0.15060000000000001          4.8302037924941033E-008
  0.15170000000000000          1.4067598641531731E-008
  0.15280000000000005         -4.6248850082974968E-008
  0.15390000000000004         -3.3560080936467784E-008
  0.15500000000000003          3.7220821980099572E-008
  0.15610000000000002          5.7089859950565369E-008
  0.15720000000000001         -8.9282616855257402E-009
  0.15830000000000000         -6.4584256165289844E-008
  0.15940000000000004         -2.6819497733754361E-008
  0.16050000000000003          4.8780318451235871E-008
  0.16160000000000002          5.1882011575798970E-008
  0.16270000000000001         -1.7318864564686010E-008
  0.16380000000000000         -5.3218702333879264E-008
  0.16490000000000005         -6.8569749878122366E-009
  0.16600000000000004          4.4417188149736830E-008
  0.16710000000000003          2.1373715242134494E-008
  0.16820000000000002         -3.5141720644560337E-008
  0.16930000000000001         -3.2150776263506486E-008
  0.17040000000000000          2.7605674191022445E-008
  0.17150000000000004          4.9151822167914361E-008
  0.17260000000000003         -5.8029372418388903E-009
  0.17370000000000002         -5.6604125830972407E-008
  0.17480000000000001         -2.5530994207656477E-008
  0.17590000000000000          4.3266432214750239E-008
  0.17700000000000005          4.9383480416054226E-008
  0.17810000000000004         -1.4066943165857992E-008
  0.17920000000000003         -5.2845727793737751E-008
  0.18030000000000002         -1.4167287787358873E-008
  0.18140000000000001          3.8906584620690410E-008
  0.18250000000000000          2.8016007291853384E-008
  0.18360000000000004         -2.3671422155757682E-008
  0.18470000000000003         -3.4066605536509087E-008
  0.18580000000000002          9.6000754012948164E-009
  0.18690000000000001          3.5347134996754903E-008
  0.18800000000000000          2.1515687009809881E-009
  0.18910000000000005         -3.6592862073803190E-008
  0.19020000000000004         -1.8359909148557563E-008
  0.19130000000000003          3.0407189655079492E-008
  0.19240000000000002          3.5183973068342311E-008
  0.19350000000000001         -1.1997782323192041E-008
  0.19460000000000005         -4.0845044679826970E-008
  0.19570000000000004         -9.8485566368822219E-009
  0.19680000000000003          3.2841487751511522E-008
  0.19790000000000002          2.4562002209904676E-008
  0.19900000000000001         -1.8420692526888161E-008
  0.20010000000000000         -2.9743052465391884E-008
  0.20120000000000005          5.3901496599451093E-009
  0.20230000000000004          3.1500899666525584E-008
  0.20340000000000003          1.0303134345690523E-008
  0.20450000000000002         -2.2820319856009519E-008
  0.20560000000000000         -1.6333519425870691E-008
  0.20670000000000005          1.8638077747823445E-008
  0.20780000000000004          2.7683750403184604E-008
  0.20890000000000003         -3.3238973795590709E-009
