 -0.12000000000000000          0.0000000000000000     
 -0.11889999999999999          0.0000000000000000     
 -0.11780000000000000          0.0000000000000000     
 -0.11670000000000000          0.0000000000000000     
 -0.11559999999999999          0.0000000000000000     
 -0.11449999999999999          0.0000000000000000     
 -0.11340000000000000          0.0000000000000000     
 -0.11230000000000000         -6.2610290111258174E-021
 -0.11119999999999999          3.3993614120674623E-020
 -0.11009999999999999          6.6132631146868537E-020
 -0.10900000000000000         -5.4153090030676176E-019
 -0.10790000000000000         -6.1443575606382997E-019
 -0.10679999999999999          4.7189404903425274E-018
 -0.10569999999999999          6.3246390936023944E-018
 -0.10460000000000000         -2.7583646125309767E-017
 -0.10349999999999999         -5.4655631410918733E-017
 -0.10239999999999999          1.0399265691924401E-016
 -0.10130000000000000          3.4698297049666547E-016
 -0.10020000000000000         -1.4753897807961221E-016
  -9.9099999999999994E-002    -1.5457930947290906E-015
  -9.7999999999999990E-002    -9.7597063182595489E-016
  -9.6899999999999986E-002     4.4037467391482097E-015
  -9.5799999999999996E-002     7.8493416668236164E-015
  -9.4699999999999993E-002    -4.8829141244429147E-015
  -9.3599999999999989E-002    -2.7708590698044717E-014
  -9.2499999999999999E-002    -1.8216568390457683E-014
  -9.1399999999999995E-002     4.7607666371412768E-014
  -9.0299999999999991E-002     9.6576772187079163E-014
  -8.9200000000000002E-002     1.2177678333227197E-014
  -8.8099999999999984E-002    -1.7227957613014794E-013
  -8.6999999999999994E-002    -2.3096265568470220E-013
  -8.5899999999999990E-002    -2.4176124494815383E-014
  -8.4799999999999986E-002     2.9305060439931141E-013
  -8.3699999999999997E-002     5.2690984171308020E-013
  -8.2599999999999993E-002     6.3044258398828323E-013
  -8.1499999999999989E-002     1.6605485974978407E-013
  -8.0399999999999999E-002    -1.7508346118397244E-012
  -7.9299999999999995E-002    -4.2292202726001982E-012
  -7.8199999999999992E-002    -2.6307656140339697E-012
  -7.7100000000000002E-002     6.7765216181514543E-012
  -7.5999999999999984E-002     1.6768990709903342E-011
  -7.4899999999999994E-002     9.4722424348603340E-012
  -7.3799999999999991E-002    -2.1455786800017584E-011
  -7.2699999999999987E-002    -4.7976907169289262E-011
  -7.1599999999999997E-002    -2.5492252406222882E-011
  -7.0499999999999993E-002     4.8791495149691499E-011
  -6.9399999999999989E-002     1.0636792141527351E-010
  -6.8300000000000000E-002     6.7245403689852878E-011
  -6.7199999999999996E-002    -6.2492747088249700E-011
  -6.6099999999999992E-002    -1.7933682316950694E-010
  -6.5000000000000002E-002    -1.8214106611846859E-010
  -6.3899999999999985E-002    -5.3834325886015222E-011
  -6.2799999999999995E-002     1.6733635310739459E-010
  -6.1699999999999991E-002     4.2062869853864981E-010
  -6.0599999999999994E-002     5.4233056934194224E-010
  -5.9499999999999990E-002     2.4110710650226963E-010
  -5.8399999999999994E-002    -5.9657079276576042E-010
  -5.7299999999999990E-002    -1.4758213540133625E-009
  -5.6199999999999986E-002    -1.4452196106518045E-009
  -5.5099999999999996E-002    -6.1620313018817541E-011
  -5.3999999999999992E-002     1.8243648813864866E-009
  -5.2899999999999989E-002     2.6890834003978625E-009
  -5.1799999999999985E-002     1.9513319848840638E-009
  -5.0699999999999995E-002     5.6001953074868993E-010
  -4.9599999999999991E-002    -4.4650499964049573E-010
  -4.8499999999999988E-002    -1.5387080498641126E-009
  -4.7399999999999998E-002    -3.8974730109941902E-009
  -4.6299999999999994E-002    -6.8687491250329913E-009
  -4.5199999999999990E-002    -7.3372889985989787E-009
  -4.4099999999999986E-002    -2.7023987492214019E-009
  -4.2999999999999997E-002     5.8674332059638346E-009
  -4.1899999999999993E-002     1.4143271442890182E-008
  -4.0799999999999989E-002     1.8592949402318482E-008
  -3.9699999999999985E-002     1.8176146809878446E-008
  -3.8599999999999995E-002     1.2447186392705589E-008
  -3.7499999999999992E-002     1.8129857337623179E-010
  -3.6399999999999988E-002    -1.8149965086422526E-008
  -3.5299999999999984E-002    -3.7639988903492849E-008
  -3.4199999999999994E-002    -5.1196515471474413E-008
  -3.3099999999999991E-002    -5.4442050867464786E-008
  -3.1999999999999987E-002    -4.5790844893645044E-008
  -3.0899999999999997E-002    -2.1594734889163192E-008
  -2.9799999999999993E-002     2.3918914848763961E-008
  -2.8699999999999989E-002     8.9255067337035143E-008
  -2.7599999999999986E-002     1.5776097939124156E-007
  -2.6499999999999996E-002     2.0408918999237358E-007
  -2.5399999999999992E-002     2.0895859620395640E-007
  -2.4299999999999988E-002     1.6317704876200878E-007
  -2.3199999999999985E-002     5.7765049632507726E-008
  -2.2099999999999995E-002    -1.1934345423014747E-007
  -2.0999999999999991E-002    -3.6735872299686889E-007
  -1.9899999999999987E-002    -6.5829459572341875E-007
  -1.8799999999999983E-002    -9.5250436515925685E-007
  -1.7699999999999994E-002    -1.2331263405940263E-006
  -1.6599999999999990E-002    -1.5156597328314092E-006
  -1.5499999999999986E-002    -1.8180005554313539E-006
  -1.4399999999999996E-002    -2.1342505078791874E-006
  -1.3299999999999992E-002    -2.4554778974561486E-006
  -1.2199999999999989E-002    -2.8127981295256177E-006
  -1.1099999999999985E-002    -3.2786390420369571E-006
  -9.9999999999999950E-003    -3.9164651752798818E-006
  -8.8999999999999913E-003    -4.7460252972086892E-006
  -7.7999999999999875E-003    -5.7738066061574500E-006
  -6.6999999999999837E-003    -7.0468345256813336E-006
  -5.5999999999999939E-003    -8.6553427536273375E-006
  -4.4999999999999901E-003    -1.0685483175620902E-005
  -3.3999999999999864E-003    -1.3193764061725233E-005
  -2.2999999999999826E-003    -1.6231892004725523E-005
  -1.1999999999999927E-003    -1.9867018636432476E-005
  -9.9999999999988987E-005    -2.4160111934179440E-005
   1.0000000000000148E-003    -2.9159535188227892E-005
   2.1000000000000185E-003    -3.4965989470947534E-005
   3.2000000000000084E-003    -4.1793948184931651E-005
   4.3000000000000121E-003    -4.9909220251720399E-005
   5.4000000000000159E-003    -5.9493388107512146E-005
   6.5000000000000058E-003    -7.0634603616781533E-005
   7.6000000000000234E-003    -8.3490820543374866E-005
   8.7000000000000133E-003    -9.8423362942412496E-005
   9.8000000000000032E-003    -1.1589118366828188E-004
   1.0900000000000021E-002    -1.3620295794680715E-004
   1.2000000000000011E-002    -1.5945811173878610E-004
   1.3100000000000001E-002    -1.8579495372250676E-004
   1.4200000000000018E-002    -2.1563944756053388E-004
   1.5300000000000008E-002    -2.4960265727713704E-004
   1.6400000000000026E-002    -2.8818642022088170E-004
   1.7500000000000016E-002    -3.3165092463605106E-004
   1.8600000000000005E-002    -3.8019727799110115E-004
   1.9700000000000023E-002    -4.3418013956397772E-004
   2.0800000000000013E-002    -4.9409503117203712E-004
   2.1900000000000003E-002    -5.6044140364974737E-004
   2.3000000000000020E-002    -6.3362356740981340E-004
   2.4100000000000010E-002    -7.1392505196854472E-004
   2.5200000000000000E-002    -8.0141681246459484E-004
   2.6300000000000018E-002    -8.9592946460470557E-004
   2.7400000000000008E-002    -9.9725602194666862E-004
   2.8500000000000025E-002    -1.1054887436330318E-003
   2.9600000000000015E-002    -1.2209113920107484E-003
   3.0700000000000005E-002    -1.3433967251330614E-003
   3.1800000000000023E-002    -1.4719428727403283E-003
   3.2900000000000013E-002    -1.6050867270678282E-003
   3.4000000000000002E-002    -1.7418020870536566E-003
   3.5100000000000020E-002    -1.8817546078935266E-003
   3.6200000000000010E-002    -2.0242058672010899E-003
   3.7300000000000028E-002    -2.1668919362127781E-003
   3.8400000000000017E-002    -2.3066201247274876E-003
   3.9500000000000007E-002    -2.4405163712799549E-003
   4.0600000000000025E-002    -2.5664407294243574E-003
   4.1700000000000015E-002    -2.6824036613106728E-003
   4.2800000000000005E-002    -2.7859213296324015E-003
   4.3900000000000022E-002    -2.8735464438796043E-003
   4.5000000000000012E-002    -2.9408326372504234E-003
   4.6100000000000002E-002    -2.9831866268068552E-003
   4.7200000000000020E-002    -2.9963180422782898E-003
   4.8300000000000010E-002    -2.9771612025797367E-003
   4.9400000000000027E-002    -2.9232585802674294E-003
   5.0500000000000017E-002    -2.8310816269367933E-003
   5.1600000000000007E-002    -2.6954247150570154E-003
   5.2700000000000025E-002    -2.5102868676185608E-003
   5.3800000000000014E-002    -2.2724673617631197E-003
   5.4900000000000004E-002    -1.9817864522337914E-003
   5.6000000000000022E-002    -1.6376804560422897E-003
   5.7100000000000012E-002    -1.2387384194880724E-003
   5.8200000000000002E-002    -7.8249746002256870E-004
   5.9300000000000019E-002    -2.6665825862437487E-004
   6.0400000000000009E-002     3.0861169216223061E-004
   6.1500000000000027E-002     9.3985593412071466E-004
   6.2600000000000017E-002     1.6202620463445783E-003
   6.3700000000000007E-002     2.3440381046384573E-003
   6.4800000000000024E-002     3.1090287957340479E-003
   6.5900000000000014E-002     3.9120293222367764E-003
   6.7000000000000004E-002     4.7453660517930984E-003
   6.8100000000000022E-002     5.5975182913243771E-003
   6.9200000000000012E-002     6.4561683684587479E-003
   7.0300000000000029E-002     7.3097259737551212E-003
   7.1400000000000019E-002     8.1477249041199684E-003
   7.2500000000000009E-002     8.9605385437607765E-003
   7.3600000000000027E-002     9.7367512062191963E-003
   7.4700000000000016E-002     1.0461782105267048E-002
   7.5800000000000006E-002     1.1118982918560505E-002
   7.6900000000000024E-002     1.1692048981785774E-002
   7.8000000000000014E-002     1.2168727815151215E-002
   7.9100000000000004E-002     1.2541975826025009E-002
   8.0200000000000021E-002     1.2805311940610409E-002
   8.1300000000000011E-002     1.2947068549692631E-002
   8.2400000000000029E-002     1.2951180338859558E-002
   8.3500000000000019E-002     1.2806632556021214E-002
   8.4600000000000009E-002     1.2511928565800190E-002
   8.5700000000000026E-002     1.2071165256202221E-002
   8.6800000000000016E-002     1.1486709117889404E-002
   8.7900000000000006E-002     1.0756249539554119E-002
   8.9000000000000024E-002     9.8786437883973122E-003
   9.0100000000000013E-002     8.8581535965204239E-003
   9.1200000000000003E-002     7.7049597166478634E-003
   9.2300000000000021E-002     6.4340890385210514E-003
   9.3400000000000011E-002     5.0632189959287643E-003
   9.4500000000000028E-002     3.6091075744479895E-003
   9.5600000000000018E-002     2.0848268177360296E-003
   9.6700000000000008E-002     5.0213589565828443E-004
   9.7800000000000026E-002    -1.1221456807106733E-003
   9.8900000000000016E-002    -2.7613583952188492E-003
  0.10000000000000001         -4.3847803026437759E-003
  0.10110000000000002         -5.9683644212782383E-003
  0.10220000000000001         -7.4984682723879814E-003
  0.10330000000000003         -8.9650545269250870E-003
  0.10440000000000002         -1.0349022224545479E-002
  0.10550000000000001         -1.1623009108006954E-002
  0.10660000000000003         -1.2763720937073231E-002
  0.10770000000000002         -1.3756722211837769E-002
  0.10880000000000001         -1.4595493674278259E-002
  0.10990000000000003         -1.5275213867425919E-002
  0.11100000000000002         -1.5789192169904709E-002
  0.11210000000000001         -1.6131931915879250E-002
  0.11320000000000002         -1.6297325491905212E-002
  0.11430000000000001         -1.6280269250273705E-002
  0.11540000000000003         -1.6083672642707825E-002
  0.11650000000000002         -1.5719980001449585E-002
  0.11760000000000001         -1.5207329764962196E-002
  0.11870000000000003         -1.4557166956365108E-002
  0.11980000000000002         -1.3771271333098412E-002
  0.12090000000000001         -1.2855397537350655E-002
  0.12200000000000003         -1.1827952228486538E-002
  0.12310000000000001         -1.0716162621974945E-002
  0.12420000000000003         -9.5425993204116821E-003
  0.12530000000000002         -8.3212442696094513E-003
  0.12640000000000001         -7.0636621676385403E-003
  0.12750000000000003         -5.7858685031533241E-003
  0.12860000000000002         -4.5070345513522625E-003
  0.12970000000000001         -3.2431676518172026E-003
  0.13080000000000003         -2.0099163521081209E-003
  0.13190000000000002         -8.2609429955482483E-004
  0.13300000000000001          2.9199171694926918E-004
  0.13410000000000000          1.3374107657000422E-003
  0.13520000000000004          2.3108017630875111E-003
  0.13630000000000003          3.2094686757773161E-003
  0.13740000000000002          4.0192799642682076E-003
  0.13850000000000001          4.7238143160939217E-003
  0.13960000000000000          5.3196228109300137E-003
  0.14070000000000005          5.8180992491543293E-003
  0.14180000000000004          6.2309070490300655E-003
  0.14290000000000003          6.5571973100304604E-003
  0.14400000000000002          6.7895394749939442E-003
  0.14510000000000001          6.9276513531804085E-003
  0.14620000000000000          6.9816284812986851E-003
  0.14730000000000004          6.9632814265787601E-003
  0.14840000000000003          6.8799830041825771E-003
  0.14950000000000002          6.7384252324700356E-003
  0.15060000000000001          6.5480414777994156E-003
  0.15170000000000000          6.3168904744088650E-003
  0.15280000000000005          6.0466569848358631E-003
  0.15390000000000004          5.7382043451070786E-003
  0.15500000000000003          5.4026478901505470E-003
  0.15610000000000002          5.0592878833413124E-003
  0.15720000000000001          4.7201612032949924E-003
  0.15830000000000000          4.3812789954245090E-003
  0.15940000000000004          4.0333415381610394E-003
  0.16050000000000003          3.6798969376832247E-003
  0.16160000000000002          3.3385695423930883E-003
  0.16270000000000001          3.0238586477935314E-003
  0.16380000000000000          2.7344820555299520E-003
  0.16490000000000005          2.4604944046586752E-003
  0.16600000000000004          2.1988574881106615E-003
  0.16710000000000003          1.9560696091502905E-003
  0.16820000000000002          1.7368568805977702E-003
  0.16930000000000001          1.5387473395094275E-003
  0.17040000000000000          1.3597408542409539E-003
  0.17150000000000004          1.2035781983286142E-003
  0.17260000000000003          1.0719236452132463E-003
  0.17370000000000002          9.5582782523706555E-004
  0.17480000000000001          8.4345950745046139E-004
  0.17590000000000000          7.3499133577570319E-004
  0.17700000000000005          6.4207351533696055E-004
  0.17810000000000004          5.6951114675030112E-004
  0.17920000000000003          5.0425360677763820E-004
  0.18030000000000002          4.2878260137513280E-004
  0.18140000000000001          3.4115137532353401E-004
  0.18250000000000000          2.5382376043125987E-004
  0.18360000000000004          1.7348707478959113E-004
  0.18470000000000003          9.0303241449873894E-005
  0.18580000000000002         -9.4727656687609851E-006
  0.18690000000000001         -1.2685581168625504E-004
  0.18800000000000000         -2.5369948707520962E-004
  0.18910000000000005         -3.8837984902784228E-004
  0.19020000000000004         -5.3859327454119921E-004
  0.19130000000000003         -7.0826848968863487E-004
  0.19240000000000002         -8.9090870460495353E-004
  0.19350000000000001         -1.0797191644087434E-003
  0.19460000000000005         -1.2781764380633831E-003
  0.19570000000000004         -1.4940386172384024E-003
  0.19680000000000003         -1.7239131266251206E-003
  0.19790000000000002         -1.9547399133443832E-003
  0.19900000000000001         -2.1797092631459236E-003
  0.20010000000000000         -2.4058017879724503E-003
  0.20120000000000005         -2.6407332625240088E-003
  0.20230000000000004         -2.8757806867361069E-003
  0.20340000000000003         -3.0921983998268843E-003
  0.20450000000000002         -3.2830238342285156E-003
  0.20560000000000000         -3.4578132908791304E-003
  0.20670000000000005         -3.6232005804777145E-003
  0.20780000000000004         -3.7681004032492638E-003
  0.20890000000000003         -3.8743359036743641E-003
