 -0.12000000000000000          0.0000000000000000
 -0.11889999999999999          0.0000000000000000
 -0.11780000000000000          0.0000000000000000
 -0.11670000000000000          0.0000000000000000
 -0.11559999999999999          0.0000000000000000
 -0.11449999999999999          0.0000000000000000
 -0.11340000000000000          0.0000000000000000
 -0.11230000000000000          0.0000000000000000
 -0.11119999999999999         -4.1322777735891047E-023
 -0.11009999999999999          2.1174046535510227E-022
 -0.10900000000000000          3.3840628318462969E-022
 -0.10790000000000000         -3.1919964817367598E-021
 -0.10679999999999999         -2.4595755071931119E-021
 -0.10569999999999999          2.7823376663608953E-020
 -0.10460000000000000          2.6122043858172103E-020
 -0.10349999999999999         -1.7167835053035746E-019
 -0.10239999999999999         -2.5715566658928692E-019
 -0.10130000000000000          7.4125469318345598E-019
 -0.10020000000000000          1.8589523555021647E-018
  -9.9099999999999994E-002    -1.7697977951054337E-018
  -9.7999999999999990E-002    -9.5481309214485725E-018
  -9.6899999999999986E-002    -2.3307739021557272E-018
  -9.5799999999999996E-002     3.3285158896537696E-017
  -9.4699999999999993E-002     4.3579166848131459E-017
  -9.3599999999999989E-002    -6.3014215400150722E-017
  -9.2499999999999999E-002    -2.0800597350146714E-016
  -9.1399999999999995E-002    -5.0404118277020733E-017
  -9.0299999999999991E-002     5.3073035714013288E-016
  -8.9200000000000002E-002     7.6570603173574435E-016
  -8.8099999999999984E-002    -4.3524192424621185E-016
  -8.6999999999999994E-002    -2.3900199277082559E-015
  -8.5899999999999990E-002    -1.9493904239312534E-015
  -8.4799999999999986E-002     2.7732853956818817E-015
  -8.3699999999999997E-002     7.5284830453048457E-015
  -8.2599999999999993E-002     4.3198316085801998E-015
  -8.1499999999999989E-002    -7.9972751240286327E-015
  -8.0399999999999999E-002    -1.8157062631847173E-014
  -7.9299999999999995E-002    -1.3027934240845800E-014
  -7.8199999999999992E-002     7.5586043839421559E-015
  -7.7100000000000002E-002     3.2724206509718648E-014
  -7.5999999999999984E-002     5.1969760688896222E-014
  -7.4899999999999994E-002     4.7131721946482366E-014
  -7.3799999999999991E-002    -2.2096062298111209E-014
  -7.2699999999999987E-002    -1.7327813988353424E-013
  -7.1599999999999997E-002    -2.9815145036020396E-013
  -7.0499999999999993E-002    -1.6148361944509637E-013
  -6.9399999999999989E-002     3.5283909583135042E-013
  -6.8300000000000000E-002     9.3191112379015228E-013
  -6.7199999999999996E-002     9.1752072519518668E-013
  -6.6099999999999992E-002    -7.2037563631291435E-014
  -6.5000000000000002E-002    -1.5639362634795040E-012
  -6.3899999999999985E-002    -2.4554789625208517E-012
  -6.2799999999999995E-002    -1.9365470598636803E-012
  -6.1699999999999991E-002    -9.0352584355274379E-014
  -6.0599999999999994E-002     2.4414136077371973E-012
  -5.9499999999999990E-002     4.9988116944399419E-012
  -5.8399999999999994E-002     6.6478697546834553E-012
  -5.7299999999999990E-002     5.6404859082037628E-012
  -5.6199999999999986E-002     1.9965440704785425E-013
  -5.5099999999999996E-002    -9.2706953225274447E-012
  -5.3999999999999992E-002    -1.8935304713085799E-011
  -5.2899999999999989E-002    -2.3220611197749541E-011
  -5.1799999999999985E-002    -1.7981453132032144E-011
  -5.0699999999999995E-002    -1.9797722489167668E-012
  -4.9599999999999991E-002     2.3476776078723560E-011
  -4.8499999999999988E-002     5.3602216415482573E-011
  -4.7399999999999998E-002     7.7266054665514616E-011
  -4.6299999999999994E-002     7.7324008307400049E-011
  -4.5199999999999990E-002     3.8913341299240400E-011
  -4.4099999999999986E-002    -3.8352862552493150E-011
  -4.2999999999999997E-002    -1.3492906791867654E-010
  -4.1899999999999993E-002    -2.1769219760159331E-010
  -4.0799999999999989E-002    -2.5185548091499754E-010
  -3.9699999999999985E-002    -2.1002594108310291E-010
  -3.8599999999999995E-002    -7.8454708007935636E-011
  -3.7499999999999992E-002     1.3511959606749002E-010
  -3.6399999999999988E-002     3.9504644000487588E-010
  -3.5299999999999984E-002     6.4197430704737712E-010
  -3.4199999999999994E-002     8.0890183440374130E-010
  -3.3099999999999991E-002     8.3885060009336598E-010
  -3.1999999999999987E-002     6.9849531714183399E-010
  -3.0899999999999997E-002     3.9552441877255262E-010
  -2.9799999999999993E-002     1.6678890256763279E-012
  -2.8699999999999989E-002    -3.4263264447886854E-010
  -2.7599999999999986E-002    -4.7086623489178692E-010
  -2.6499999999999996E-002    -2.6797855601223830E-010
  -2.5399999999999992E-002     2.7370439248386447E-010
  -2.4299999999999988E-002     1.0588584453685712E-009
  -2.3199999999999985E-002     1.9248171945207559E-009
  -2.2099999999999995E-002     2.6511199902046201E-009
  -2.0999999999999991E-002     2.9409588098161521E-009
  -1.9899999999999987E-002     2.4368134177166212E-009
  -1.8799999999999983E-002     8.0753598252769621E-010
  -1.7699999999999994E-002    -2.1462605026556503E-009
  -1.6599999999999990E-002    -6.4552390099947843E-009
  -1.5499999999999986E-002    -1.2028809948105845E-008
  -1.4399999999999996E-002    -1.8728556483438297E-008
  -1.3299999999999992E-002    -2.6424283205983556E-008
  -1.2199999999999989E-002    -3.5052817537462033E-008
  -1.1099999999999985E-002    -4.4698207801729950E-008
  -9.9999999999999950E-003    -5.5653227803986738E-008
  -8.8999999999999913E-003    -6.8428114730068046E-008
  -7.7999999999999875E-003    -8.3746499512926675E-008
  -6.6999999999999837E-003    -1.0258033711352255E-007
  -5.5999999999999939E-003    -1.2618791345175850E-007
  -4.4999999999999901E-003    -1.5604409497882443E-007
  -3.3999999999999864E-003    -1.9367877257536747E-007
  -2.2999999999999826E-003    -2.4060514647317177E-007
  -1.1999999999999927E-003    -2.9845264748473710E-007
  -9.9999999999988987E-005    -3.6916640056006145E-007
   1.0000000000000148E-003    -4.5503591650231101E-007
   2.1000000000000185E-003    -5.5858464520497364E-007
   3.2000000000000084E-003    -6.8262073682490154E-007
   4.3000000000000121E-003    -8.3058915834044456E-007
   5.4000000000000159E-003    -1.0069551308333757E-006
   6.5000000000000058E-003    -1.2172100696261623E-006
   7.6000000000000234E-003    -1.4676008959213505E-006
   8.7000000000000133E-003    -1.7648882248977316E-006
   9.8000000000000032E-003    -2.1164908048376674E-006
   1.0900000000000021E-002    -2.5307913347205613E-006
   1.2000000000000011E-002    -3.0172418519214261E-006
   1.3100000000000001E-002    -3.5862319691659650E-006
   1.4200000000000018E-002    -4.2490100895520300E-006
   1.5300000000000008E-002    -5.0178628043795470E-006
   1.6400000000000026E-002    -5.9063850130769424E-006
   1.7500000000000016E-002    -6.9297025220294017E-006
   1.8600000000000005E-002    -8.1046891864389181E-006
   1.9700000000000023E-002    -9.4501046987716109E-006
   2.0800000000000013E-002    -1.0986280358338263E-005
   2.1900000000000003E-002    -1.2734197298414074E-005
   2.3000000000000020E-002    -1.4714918506797403E-005
   2.4100000000000010E-002    -1.6949972632573918E-005
   2.5200000000000000E-002    -1.9462240743450820E-005
   2.6300000000000018E-002    -2.2275924493442290E-005
   2.7400000000000008E-002    -2.5415443815290928E-005
   2.8500000000000025E-002    -2.8903907150379382E-005
   2.9600000000000015E-002    -3.2762978662503883E-005
   3.0700000000000005E-002    -3.7013760447734967E-005
   3.1800000000000023E-002    -4.1677249100757763E-005
   3.2900000000000013E-002    -4.6773471694905311E-005
   3.4000000000000002E-002    -5.2318755479063839E-005
   3.5100000000000020E-002    -5.8324039855506271E-005
   3.6200000000000010E-002    -6.4794963691383600E-005
   3.7300000000000028E-002    -7.1732050855644047E-005
   3.8400000000000017E-002    -7.9130026279017329E-005
   3.9500000000000007E-002    -8.6977292085066438E-005
   4.0600000000000025E-002    -9.5254690677393228E-005
   4.1700000000000015E-002    -1.0393288539489731E-004
   4.2800000000000005E-002    -1.1297082528471947E-004
   4.3900000000000022E-002    -1.2231622531544417E-004
   4.5000000000000012E-002    -1.3190711615607142E-004
   4.6100000000000002E-002    -1.4167159679345787E-004
   4.7200000000000020E-002    -1.5152580454014242E-004
   4.8300000000000010E-002    -1.6137071361299604E-004
   4.9400000000000027E-002    -1.7109110194724053E-004
   5.0500000000000017E-002    -1.8055857799481601E-004
   5.1600000000000007E-002    -1.8963548063766211E-004
   5.2700000000000025E-002    -1.9817528664134443E-004
   5.3800000000000014E-002    -2.0601853611879051E-004
   5.4900000000000004E-002    -2.1299517538864166E-004
   5.6000000000000022E-002    -2.1892374206800014E-004
   5.7100000000000012E-002    -2.2361573064699769E-004
   5.8200000000000002E-002    -2.2688345052301884E-004
   5.9300000000000019E-002    -2.2854215058032423E-004
   6.0400000000000009E-002    -2.2840860765427351E-004
   6.1500000000000027E-002    -2.2629801242146641E-004
   6.2600000000000017E-002    -2.2203114349395037E-004
   6.3700000000000007E-002    -2.1544647461269051E-004
   6.4800000000000024E-002    -2.0639937429223210E-004
   6.5900000000000014E-002    -1.9476696616038680E-004
   6.7000000000000004E-002    -1.8045135948341340E-004
   6.8100000000000022E-002    -1.6337730630766600E-004
   6.9200000000000012E-002    -1.4349643606692553E-004
   7.0300000000000029E-002    -1.2079520820407197E-004
   7.1400000000000019E-002    -9.5301737019326538E-005
   7.2500000000000009E-002    -6.7089247750118375E-005
   7.3600000000000027E-002    -3.6274119338486344E-005
   7.4700000000000016E-002    -3.0105345558695262E-006
   7.5800000000000006E-002     3.2512354664504528E-005
   7.6900000000000024E-002     7.0062196755316108E-005
   7.8000000000000014E-002     1.0935604950645939E-004
   7.9100000000000004E-002     1.5005958266556263E-004
   8.0200000000000021E-002     1.9180319213774055E-004
   8.1300000000000011E-002     2.3419123317580670E-004
   8.2400000000000029E-002     2.7680565835908055E-004
   8.3500000000000019E-002     3.1919920002110302E-004
   8.4600000000000009E-002     3.6089686909690499E-004
   8.5700000000000026E-002     4.0140506462194026E-004
   8.6800000000000016E-002     4.4022619840689003E-004
   8.7900000000000006E-002     4.7686739708296955E-004
   8.9000000000000024E-002     5.1085057202726603E-004
   9.0100000000000013E-002     5.4171995725482702E-004
   9.1200000000000003E-002     5.6904117809608579E-004
   9.2300000000000021E-002     5.9240288101136684E-004
   9.3400000000000011E-002     6.1142607592046261E-004
   9.4500000000000028E-002     6.2578439246863127E-004
   9.5600000000000018E-002     6.3521892298012972E-004
   9.6700000000000008E-002     6.3953665085136890E-004
   9.7800000000000026E-002     6.3859944930300117E-004
   9.8900000000000016E-002     6.3231919193640351E-004
  0.10000000000000001          6.2067335238680243E-004
  0.10110000000000002          6.0372153529897332E-004
  0.10220000000000001          5.8160541811957955E-004
  0.10330000000000003          5.5453641107305884E-004
  0.10440000000000002          5.2278104703873396E-004
  0.10550000000000001          4.8666336806491017E-004
  0.10660000000000003          4.4656379031948745E-004
  0.10770000000000002          4.0291793993674219E-004
  0.10880000000000001          3.5621141432784498E-004
  0.10990000000000003          3.0697093461640179E-004
  0.11100000000000002          2.5575174367986619E-004
  0.11210000000000001          2.0312271954026073E-004
  0.11320000000000002          1.4965287118684500E-004
  0.11430000000000001          9.5916773716453463E-005
  0.11540000000000003          4.2491887143114582E-005
  0.11650000000000002         -1.0052748621092178E-005
  0.11760000000000001         -6.1170765548013151E-005
  0.11870000000000003         -1.1036748765036464E-004
  0.11980000000000002         -1.5718667418695986E-004
  0.12090000000000001         -2.0120837143622339E-004
  0.12200000000000003         -2.4205453519243747E-004
  0.12310000000000001         -2.7940238942392170E-004
  0.12420000000000003         -3.1299298279918730E-004
  0.12530000000000002         -3.4262510598637164E-004
  0.12640000000000001         -3.6815719795413315E-004
  0.12750000000000003         -3.8950305315665901E-004
  0.12860000000000002         -4.0663901017978787E-004
  0.12970000000000001         -4.1959554073400795E-004
  0.13080000000000003         -4.2845087591558695E-004
  0.13190000000000002         -4.3332987115718424E-004
  0.13300000000000001         -4.3440645094960928E-004
  0.13410000000000000         -4.3189924326725304E-004
  0.13520000000000004         -4.2605996713973582E-004
  0.13630000000000003         -4.1716004488989711E-004
  0.13740000000000002         -4.0549019468016922E-004
  0.13850000000000001         -3.9136369014158845E-004
  0.13960000000000000         -3.7511356640607119E-004
  0.14070000000000005         -3.5707710776478052E-004
  0.14180000000000004         -3.3758187782950699E-004
  0.14290000000000003         -3.1694688368588686E-004
  0.14400000000000002         -2.9548894963227212E-004
  0.14510000000000001         -2.7351980679668486E-004
  0.14620000000000000         -2.5133285089395940E-004
  0.14730000000000004         -2.2919461480341852E-004
  0.14840000000000003         -2.0734991994686425E-004
  0.14950000000000002         -1.8602825002744794E-004
  0.15060000000000001         -1.6543967649340630E-004
  0.15170000000000000         -1.4576475950889289E-004
  0.15280000000000005         -1.2715185584966093E-004
  0.15390000000000004         -1.0972806194331497E-004
  0.15500000000000003         -9.3605092843063176E-005
  0.15610000000000002         -7.8874298196751624E-005
  0.15720000000000001         -6.5597683715168387E-005
  0.15830000000000000         -5.3809977544005960E-005
  0.15940000000000004         -4.3532047129701823E-005
  0.16050000000000003         -3.4776559914462268E-005
  0.16160000000000002         -2.7539803340914659E-005
  0.16270000000000001         -2.1796013243147172E-005
  0.16380000000000000         -1.7502516129752621E-005
  0.16490000000000005         -1.4613242456107400E-005
  0.16600000000000004         -1.3078521078568883E-005
  0.16710000000000003         -1.2835605048167054E-005
  0.16820000000000002         -1.3804778063786216E-005
  0.16930000000000001         -1.5901730876066722E-005
  0.17040000000000000         -1.9046861780225299E-005
  0.17150000000000004         -2.3158630938269198E-005
  0.17260000000000003         -2.8138041670899838E-005
  0.17370000000000002         -3.3869881008286029E-005
  0.17480000000000001         -4.0240171074401587E-005
  0.17590000000000000         -4.7145895223366097E-005
  0.17700000000000005         -5.4482956329593435E-005
  0.17810000000000004         -6.2129191064741462E-005
  0.17920000000000003         -6.9946916482876986E-005
  0.18030000000000002         -7.7800112194381654E-005
  0.18140000000000001         -8.5561216110363603E-005
  0.18250000000000000         -9.3098649813327938E-005
  0.18360000000000004         -1.0026642121374607E-004
  0.18470000000000003         -1.0691125498851761E-004
  0.18580000000000002         -1.1288643145235255E-004
  0.18690000000000001         -1.1805049143731594E-004
  0.18800000000000000         -1.2225378304719925E-004
  0.18910000000000005         -1.2533858534879982E-004
  0.19020000000000004         -1.2715523189399391E-004
  0.19130000000000003         -1.2757547665387392E-004
  0.19240000000000002         -1.2648171104956418E-004
  0.19350000000000001         -1.2375149526633322E-004
  0.19460000000000005         -1.1926149454666302E-004
  0.19570000000000004         -1.1291082773823291E-004
  0.19680000000000003         -1.0463407670613378E-004
  0.19790000000000002         -9.4386996352113783E-005
  0.19900000000000001         -8.2132253737654537E-005
  0.20010000000000000         -6.7846369347535074E-005
  0.20120000000000005         -5.1541686843847856E-005
  0.20230000000000004         -3.3273008739342913E-005
  0.20340000000000003         -1.3122159543854650E-005
  0.20450000000000002          8.8147344285971485E-006
  0.20560000000000000          3.2411680876975879E-005
  0.20670000000000005          5.7499408285366371E-005
  0.20780000000000004          8.3869716036133468E-005
  0.20890000000000003          1.1129565973533317E-004
