 -0.12000000000000000          0.0000000000000000     
 -0.11889999999999999          0.0000000000000000     
 -0.11780000000000000          0.0000000000000000     
 -0.11670000000000000          0.0000000000000000     
 -0.11559999999999999          0.0000000000000000     
 -0.11449999999999999          0.0000000000000000     
 -0.11340000000000000          0.0000000000000000     
 -0.11230000000000000         -6.2610237604676322E-021
 -0.11119999999999999          3.3993555959537803E-020
 -0.11009999999999999          6.6132728082096571E-020
 -0.10900000000000000         -5.4153074521039690E-019
 -0.10790000000000000         -6.1443782401536135E-019
 -0.10679999999999999          4.7189384223909960E-018
 -0.10569999999999999          6.3246502605406639E-018
 -0.10460000000000000         -2.7583637853503641E-017
 -0.10349999999999999         -5.4655628102196282E-017
 -0.10239999999999999          1.0399254442268070E-016
 -0.10130000000000000          3.4698289108732667E-016
 -0.10020000000000000         -1.4753863397247739E-016
  -9.9099999999999994E-002    -1.5457928829708538E-015
  -9.7999999999999990E-002    -9.7597211413361258E-016
  -9.6899999999999986E-002     4.4037446215658416E-015
  -9.5799999999999996E-002     7.8493467490212999E-015
  -9.4699999999999993E-002    -4.8829039600475476E-015
  -9.3599999999999989E-002    -2.7708589003978823E-014
  -9.2499999999999999E-002    -1.8216578554853050E-014
  -9.1399999999999995E-002     4.7607639266358456E-014
  -9.0299999999999991E-002     9.6576724753234117E-014
  -8.9200000000000002E-002     1.2177731696302874E-014
  -8.8099999999999984E-002    -1.7227948126245785E-013
  -8.6999999999999994E-002    -2.3096270989481082E-013
  -8.5899999999999990E-002    -2.4176138047342539E-014
  -8.4799999999999986E-002     2.9305117360545196E-013
  -8.3699999999999997E-002     5.2691032960405781E-013
  -8.2599999999999993E-002     6.3044171662654525E-013
  -8.1499999999999989E-002     1.6605331476168828E-013
  -8.0399999999999999E-002    -1.7508352623610279E-012
  -7.9299999999999995E-002    -4.2292189715575912E-012
  -7.8199999999999992E-002    -2.6307523867674654E-012
  -7.7100000000000002E-002     6.7765346285775241E-012
  -7.5999999999999984E-002     1.6768976832115534E-011
  -7.4899999999999994E-002     9.4722051383056005E-012
  -7.3799999999999991E-002    -2.1455809351422772E-011
  -7.2699999999999987E-002    -4.7976869005372791E-011
  -7.1599999999999997E-002    -2.5492202099242078E-011
  -7.0499999999999993E-002     4.8791515966373211E-011
  -6.9399999999999989E-002     1.0636788672080399E-010
  -6.8300000000000000E-002     6.7245320423126032E-011
  -6.7199999999999996E-002    -6.2492878927233875E-011
  -6.6099999999999992E-002    -1.7933671214720448E-010
  -6.5000000000000002E-002    -1.8214084407386366E-010
  -6.3899999999999985E-002    -5.3834096902516393E-011
  -6.2799999999999995E-002     1.6733658902978732E-010
  -6.1699999999999991E-002     4.2062847649404489E-010
  -6.0599999999999994E-002     5.4232995871927869E-010
  -5.9499999999999990E-002     2.4110688445766471E-010
  -5.8399999999999994E-002    -5.9657051521000426E-010
  -5.7299999999999990E-002    -1.4758202437903378E-009
  -5.6199999999999986E-002    -1.4452185004287799E-009
  -5.5099999999999996E-002    -6.1618730951007450E-011
  -5.3999999999999992E-002     1.8243653254756964E-009
  -5.2899999999999989E-002     2.6890785154165542E-009
  -5.1799999999999985E-002     1.9513235471890766E-009
  -5.0699999999999995E-002     5.6001786541415299E-010
  -4.9599999999999991E-002    -4.4649306474298101E-010
  -4.8499999999999988E-002    -1.5386890650503915E-009
  -4.7399999999999998E-002    -3.8974694582805114E-009
  -4.6299999999999994E-002    -6.8687593390848178E-009
  -4.5199999999999990E-002    -7.3373143116839401E-009
  -4.4099999999999986E-002    -2.7024322779567456E-009
  -4.2999999999999997E-002     5.8674318736962050E-009
  -4.1899999999999993E-002     1.4143296311885933E-008
  -4.0799999999999989E-002     1.8592967165886876E-008
  -3.9699999999999985E-002     1.8176146809878446E-008
  -3.8599999999999995E-002     1.2447193498132947E-008
  -3.7499999999999992E-002     1.8131565693302321E-010
  -3.6399999999999988E-002    -1.8149950875567811E-008
  -3.5299999999999984E-002    -3.7640006667061243E-008
  -3.4199999999999994E-002    -5.1196792583141360E-008
  -3.3099999999999991E-002    -5.4442399033405309E-008
  -3.1999999999999987E-002    -4.5790624625396958E-008
  -3.0899999999999997E-002    -2.1594114940626241E-008
  -2.9799999999999993E-002     2.3919076497236347E-008
  -2.8699999999999989E-002     8.9254974966479494E-008
  -2.7599999999999986E-002     1.5776059569816425E-007
  -2.6499999999999996E-002     2.0408887735356984E-007
  -2.5399999999999992E-002     2.0896024466310337E-007
  -2.4299999999999988E-002     1.6317891038397647E-007
  -2.3199999999999985E-002     5.7762388649962304E-008
  -2.2099999999999995E-002    -1.1934673693758668E-007
  -2.0999999999999991E-002    -3.6735721664626908E-007
  -1.9899999999999987E-002    -6.5828987771965330E-007
  -1.8799999999999983E-002    -9.5250123877121950E-007
  -1.7699999999999994E-002    -1.2331255447861622E-006
  -1.6599999999999990E-002    -1.5156496147028520E-006
  -1.5499999999999986E-002    -1.8179940752816037E-006
  -1.4399999999999996E-002    -2.1342748368624598E-006
  -1.3299999999999992E-002    -2.4555124582548160E-006
  -1.2199999999999989E-002    -2.8128013127570739E-006
  -1.1099999999999985E-002    -3.2786015253805090E-006
  -9.9999999999999950E-003    -3.9164474401331972E-006
  -8.8999999999999913E-003    -4.7460648602282163E-006
  -7.7999999999999875E-003    -5.7738534451345913E-006
  -6.6999999999999837E-003    -7.0468572630488779E-006
  -5.5999999999999939E-003    -8.6553627625107765E-006
  -4.4999999999999901E-003    -1.0685429515433498E-005
  -3.3999999999999864E-003    -1.3193609447625931E-005
  -2.2999999999999826E-003    -1.6231882909778506E-005
  -1.1999999999999927E-003    -1.9867355149472132E-005
  -9.9999999999988987E-005    -2.4160133762052283E-005
   1.0000000000000148E-003    -2.9159256882849149E-005
   2.1000000000000185E-003    -3.4966473322128877E-005
   3.2000000000000084E-003    -4.1794308344833553E-005
   4.3000000000000121E-003    -4.9908674554899335E-005
   5.4000000000000159E-003    -5.9493606386240572E-005
   6.5000000000000058E-003    -7.0635302108712494E-005
   7.6000000000000234E-003    -8.3489925600588322E-005
   8.7000000000000133E-003    -9.8420925496611744E-005
   9.8000000000000032E-003    -1.1589060159167275E-004
   1.0900000000000021E-002    -1.3620479148812592E-004
   1.2000000000000011E-002    -1.5946001803968102E-004
   1.3100000000000001E-002    -1.8579605966806412E-004
   1.4200000000000018E-002    -2.1563679911196232E-004
   1.5300000000000008E-002    -2.4960169685073197E-004
   1.6400000000000026E-002    -2.8818810824304819E-004
   1.7500000000000016E-002    -3.3165005152113736E-004
   1.8600000000000005E-002    -3.8019314524717629E-004
   1.9700000000000023E-002    -4.3417399865575135E-004
   2.0800000000000013E-002    -4.9409375060349703E-004
   2.1900000000000003E-002    -5.6044402299448848E-004
   2.3000000000000020E-002    -6.3362770015373826E-004
   2.4100000000000010E-002    -7.1392924292013049E-004
   2.5200000000000000E-002    -8.0142234219238162E-004
   2.6300000000000018E-002    -8.9593650773167610E-004
   2.7400000000000008E-002    -9.9726172629743814E-004
   2.8500000000000025E-002    -1.1054786155000329E-003
   2.9600000000000015E-002    -1.2209051055833697E-003
   3.0700000000000005E-002    -1.3433960266411304E-003
   3.1800000000000023E-002    -1.4719302998855710E-003
   3.2900000000000013E-002    -1.6050422564148903E-003
   3.4000000000000002E-002    -1.7417478375136852E-003
   3.5100000000000020E-002    -1.8817225936800241E-003
   3.6200000000000010E-002    -2.0242014434188604E-003
   3.7300000000000028E-002    -2.1669357083737850E-003
   3.8400000000000017E-002    -2.3066510912030935E-003
   3.9500000000000007E-002    -2.4404553696513176E-003
   4.0600000000000025E-002    -2.5663550477474928E-003
   4.1700000000000015E-002    -2.6824660599231720E-003
   4.2800000000000005E-002    -2.7860540430992842E-003
   4.3900000000000022E-002    -2.8735178057104349E-003
   4.5000000000000012E-002    -2.9407243710011244E-003
   4.6100000000000002E-002    -2.9831069987267256E-003
   4.7200000000000020E-002    -2.9963694978505373E-003
   4.8300000000000010E-002    -2.9773232527077198E-003
   4.9400000000000027E-002    -2.9232969973236322E-003
   5.0500000000000017E-002    -2.8309857007116079E-003
   5.1600000000000007E-002    -2.6952903717756271E-003
   5.2700000000000025E-002    -2.5102922227233648E-003
   5.3800000000000014E-002    -2.2724063601344824E-003
   5.4900000000000004E-002    -1.9812858663499355E-003
   5.6000000000000022E-002    -1.6372710233554244E-003
   5.7100000000000012E-002    -1.2391171185299754E-003
   5.8200000000000002E-002    -7.8355264849960804E-004
   5.9300000000000019E-002    -2.6713093393482268E-004
   6.0400000000000009E-002     3.0966117628850043E-004
   6.1500000000000027E-002     9.4108458142727613E-004
   6.2600000000000017E-002     1.6201558755710721E-003
   6.3700000000000007E-002     2.3431649897247553E-003
   6.4800000000000024E-002     3.1082229688763618E-003
   6.5900000000000014E-002     3.9113927632570267E-003
   6.7000000000000004E-002     4.7450577840209007E-003
   6.8100000000000022E-002     5.5981241166591644E-003
   6.9200000000000012E-002     6.4575709402561188E-003
   7.0300000000000029E-002     7.3103443719446659E-003
   7.1400000000000019E-002     8.1464257091283798E-003
   7.2500000000000009E-002     8.9589133858680725E-003
   7.3600000000000027E-002     9.7372364252805710E-003
   7.4700000000000016E-002     1.0463810525834560E-002
   7.5800000000000006E-002     1.1119424365460873E-002
   7.6900000000000024E-002     1.1690089479088783E-002
   7.8000000000000014E-002     1.2167451903223991E-002
   7.9100000000000004E-002     1.2543181888759136E-002
   8.0200000000000021E-002     1.2806746177375317E-002
   8.1300000000000011E-002     1.2945849448442459E-002
   8.2400000000000029E-002     1.2948450632393360E-002
   8.3500000000000019E-002     1.2805880978703499E-002
   8.4600000000000009E-002     1.2514073401689529E-002
   8.5700000000000026E-002     1.2073444202542305E-002
   8.6800000000000016E-002     1.1486421339213848E-002
   8.7900000000000006E-002     1.0754265822470188E-002
   8.9000000000000024E-002     9.8774731159210205E-003
   9.0100000000000013E-002     8.8587123900651932E-003
   9.1200000000000003E-002     7.7061103656888008E-003
   9.2300000000000021E-002     6.4347670413553715E-003
   9.3400000000000011E-002     5.0634946674108505E-003
   9.4500000000000028E-002     3.6093974485993385E-003
   9.5600000000000018E-002     2.0846661645919085E-003
   9.6700000000000008E-002     5.0057255430147052E-004
   9.7800000000000026E-002    -1.1237277649343014E-003
   9.8900000000000016E-002    -2.7602645568549633E-003
  0.10000000000000001         -4.3813236989080906E-003
  0.10110000000000002         -5.9666340239346027E-003
  0.10220000000000001         -7.5010354630649090E-003
  0.10330000000000003         -8.9684613049030304E-003
  0.10440000000000002         -1.0349278338253498E-002
  0.10550000000000001         -1.1621121317148209E-002
  0.10660000000000003         -1.2762364000082016E-002
  0.10770000000000002         -1.3756795786321163E-002
  0.10880000000000001         -1.4596658758819103E-002
  0.10990000000000003         -1.5277034603059292E-002
  0.11100000000000002         -1.5790471807122231E-002
  0.11210000000000001         -1.6131021082401276E-002
  0.11320000000000002         -1.6294978559017181E-002
  0.11430000000000001         -1.6278747469186783E-002
  0.11540000000000003         -1.6083005815744400E-002
  0.11650000000000002         -1.5719819813966751E-002
  0.11760000000000001         -1.5207231044769287E-002
  0.11870000000000003         -1.4557166025042534E-002
  0.11980000000000002         -1.3772644102573395E-002
  0.12090000000000001         -1.2857205234467983E-002
  0.12200000000000003         -1.1828116141259670E-002
  0.12310000000000001         -1.0713480412960052E-002
  0.12420000000000003         -9.5400596037507057E-003
  0.12530000000000002         -8.3227623254060745E-003
  0.12640000000000001         -7.0675457827746868E-003
  0.12750000000000003         -5.7872878387570381E-003
  0.12860000000000002         -4.5038517564535141E-003
  0.12970000000000001         -3.2392581924796104E-003
  0.13080000000000003         -2.0105834119021893E-003
  0.13190000000000002         -8.3048216765746474E-004
  0.13300000000000001          2.8883662889711559E-004
  0.13410000000000000          1.3380171731114388E-003
  0.13520000000000004          2.3131726775318384E-003
  0.13630000000000003          3.2104111742228270E-003
  0.13740000000000002          4.0192706510424614E-003
  0.13850000000000001          4.7249216586351395E-003
  0.13960000000000000          5.3209061734378338E-003
  0.14070000000000005          5.8169369585812092E-003
  0.14180000000000004          6.2276036478579044E-003
  0.14290000000000003          6.5555456094443798E-003
  0.14400000000000002          6.7915292456746101E-003
  0.14510000000000001          6.9304006174206734E-003
  0.14620000000000000          6.9815875031054020E-003
  0.14730000000000004          6.9612916558980942E-003
  0.14840000000000003          6.8798419088125229E-003
  0.14950000000000002          6.7408448085188866E-003
  0.15060000000000001          6.5496261231601238E-003
  0.15170000000000000          6.3152830116450787E-003
  0.15280000000000005          6.0442001558840275E-003
  0.15390000000000004          5.7387570850551128E-003
  0.15500000000000003          5.4057543165981770E-003
  0.15610000000000002          5.0605833530426025E-003
  0.15720000000000001          4.7174352221190929E-003
  0.15830000000000000          4.3772901408374310E-003
  0.15940000000000004          4.0321145206689835E-003
  0.16050000000000003          3.6818480584770441E-003
  0.16160000000000002          3.3410303294658661E-003
  0.16270000000000001          3.0250435229390860E-003
  0.16380000000000000          2.7345439884811640E-003
  0.16490000000000005          2.4599859025329351E-003
  0.16600000000000004          2.1975850686430931E-003
  0.16710000000000003          1.9541454967111349E-003
  0.16820000000000002          1.7360821366310120E-003
  0.16930000000000001          1.5407634200528264E-003
  0.17040000000000000          1.3631252804771066E-003
  0.17150000000000004          1.2046113843098283E-003
  0.17260000000000003          1.0691375937312841E-003
  0.17370000000000002          9.5227482961490750E-004
  0.17480000000000001          8.4320449968799949E-004
  0.17590000000000000          7.3834025533869863E-004
  0.17700000000000005          6.4497272251173854E-004
  0.17810000000000004          5.6836596922948956E-004
  0.17920000000000003          5.0021760398522019E-004
  0.18030000000000002          4.2610510718077421E-004
  0.18140000000000001          3.4224856062792242E-004
  0.18250000000000000          2.5715053197927773E-004
  0.18360000000000004          1.7600985302124172E-004
  0.18470000000000003          9.0717403509188443E-005
  0.18580000000000002         -1.0413256859465037E-005
  0.18690000000000001         -1.2841226998716593E-004
  0.18800000000000000         -2.5549941346980631E-004
  0.18910000000000005         -3.8938695797696710E-004
  0.19020000000000004         -5.3778942674398422E-004
  0.19130000000000003         -7.0635532028973103E-004
  0.19240000000000002         -8.8960537686944008E-004
  0.19350000000000001         -1.0798770235851407E-003
  0.19460000000000005         -1.2790382606908679E-003
  0.19570000000000004         -1.4940379187464714E-003
  0.19680000000000003         -1.7229634104296565E-003
  0.19790000000000002         -1.9542640075087547E-003
  0.19900000000000001         -2.1811744663864374E-003
  0.20010000000000000         -2.4083869066089392E-003
  0.20120000000000005         -2.6412436272948980E-003
  0.20230000000000004         -2.8730237390846014E-003
  0.20340000000000003         -3.0896689277142286E-003
  0.20450000000000002         -3.2843193039298058E-003
  0.20560000000000000         -3.4614698961377144E-003
  0.20670000000000005         -3.6244036164134741E-003
  0.20780000000000004         -3.7645716220140457E-003
  0.20890000000000003         -3.8694613613188267E-003
