 -0.12000000000000000          0.0000000000000000     
 -0.11889999999999999          0.0000000000000000     
 -0.11780000000000000          0.0000000000000000     
 -0.11670000000000000          0.0000000000000000     
 -0.11559999999999999          0.0000000000000000     
 -0.11449999999999999          0.0000000000000000     
 -0.11340000000000000          3.7333332904071134E-015
 -0.11230000000000000         -9.2299079620591917E-015
 -0.11119999999999999         -3.4273317961897726E-014
 -0.11009999999999999          8.6530080518378016E-014
 -0.10900000000000000          2.1492899961953610E-013
 -0.10790000000000000         -4.4038598180466682E-013
 -0.10679999999999999         -1.1180390380866045E-012
 -0.10569999999999999          1.4642357422031682E-012
 -0.10460000000000000          4.8125609400373470E-012
 -0.10349999999999999         -2.9287160804164492E-012
 -0.10239999999999999         -1.6795792187607184E-011
 -0.10130000000000000          5.2946302940906631E-013
 -0.10020000000000000          4.7572789457772657E-011
  -9.9099999999999994E-002     2.2220759954283409E-011
  -9.7999999999999990E-002    -1.1150796258574402E-010
  -9.6899999999999986E-002    -1.1076684014454941E-010
  -9.5799999999999996E-002     2.1720579501671722E-010
  -9.4699999999999993E-002     3.7973219013665016E-010
  -9.3599999999999989E-002    -3.0847574494785590E-010
  -9.2499999999999999E-002    -1.0682393858374439E-009
  -9.1399999999999995E-002     4.3762281992654195E-011
  -9.0299999999999991E-002     2.4134521048324586E-009
  -8.9200000000000002E-002     1.5590122526276673E-009
  -8.8099999999999984E-002    -3.9368761584057665E-009
  -8.6999999999999994E-002    -5.9398646001795896E-009
  -8.5899999999999990E-002     3.3768656759747273E-009
  -8.4799999999999986E-002     1.3442159385590458E-008
  -8.3699999999999997E-002     3.1238347464324079E-009
  -8.2599999999999993E-002    -2.1568885344436239E-008
  -8.1499999999999989E-002    -1.9278898477637085E-008
  -8.0399999999999999E-002     2.4960929323469827E-008
  -7.9299999999999995E-002     4.8645389938428707E-008
  -7.8199999999999992E-002    -1.2655438474951097E-008
  -7.7100000000000002E-002    -9.2711793797661812E-008
  -7.5999999999999984E-002    -4.0518528976463131E-008
  -7.4899999999999994E-002     1.3080796179565368E-007
  -7.3799999999999991E-002     1.6309502370859263E-007
  -7.2699999999999987E-002    -9.4739803557786217E-008
  -7.1599999999999997E-002    -3.3117029829554667E-007
  -7.0499999999999993E-002    -9.7096695128584543E-008
  -6.9399999999999989E-002     4.3069621824542992E-007
  -6.8300000000000000E-002     4.4948021127311222E-007
  -6.7199999999999996E-002    -3.1692164270680223E-007
  -6.6099999999999992E-002    -8.6647918351445696E-007
  -6.5000000000000002E-002    -1.2583851116687583E-007
  -6.3899999999999985E-002     1.1687204732879763E-006
  -6.2799999999999995E-002     9.8343116405885667E-007
  -6.1699999999999991E-002    -9.9594251423695823E-007
  -6.0599999999999994E-002    -2.1118605673109414E-006
  -5.9499999999999990E-002    -1.2706949803487078E-007
  -5.8399999999999994E-002     2.8147671855549561E-006
  -5.7299999999999990E-002     2.2112726583145559E-006
  -5.6199999999999986E-002    -2.1249950350465951E-006
  -5.5099999999999996E-002    -4.3690051825251430E-006
  -5.3999999999999992E-002    -3.4609738008839486E-007
  -5.2899999999999989E-002     5.2531127039401326E-006
  -5.1799999999999985E-002     4.0064946915663313E-006
  -5.0699999999999995E-002    -3.7736328977189260E-006
  -4.9599999999999991E-002    -7.4458148446865380E-006
  -4.8499999999999988E-002    -4.4201502191754116E-007
  -4.7399999999999998E-002     8.6318987086997367E-006
  -4.6299999999999994E-002     6.3837060224614106E-006
  -4.5199999999999990E-002    -5.6463800319761503E-006
  -4.4099999999999986E-002    -1.0993868272635154E-005
  -4.2999999999999997E-002    -1.1291975852145697E-006
  -4.1899999999999993E-002     1.0812032087414991E-005
  -4.0799999999999989E-002     7.6703154263668694E-006
  -3.9699999999999985E-002    -6.3284933276008815E-006
  -3.8599999999999995E-002    -1.0660890438884962E-005
  -3.7499999999999992E-002     1.1899935543624451E-006
  -3.6399999999999988E-002     1.1241110769333318E-005
  -3.5299999999999984E-002     3.9893170651339460E-006
  -3.4199999999999994E-002    -9.3067010311642662E-006
  -3.3099999999999991E-002    -7.8640268839080818E-006
  -3.1999999999999987E-002     5.1633446673804428E-006
  -3.0899999999999997E-002     7.0391674853453878E-006
  -2.9799999999999993E-002    -6.2836543293087743E-006
  -2.8699999999999989E-002    -1.0074096280732192E-005
  -2.7599999999999986E-002     8.7880307546583936E-006
  -2.6499999999999996E-002     2.3193862944026478E-005
  -2.5399999999999992E-002     3.1957995361153735E-006
  -2.4299999999999988E-002    -3.0496137696900405E-005
  -2.3199999999999985E-002    -2.6598419935908169E-005
  -2.2099999999999995E-002     1.8654227460501716E-005
  -2.0999999999999991E-002     4.3034295231336728E-005
  -1.9899999999999987E-002     3.6514236398943467E-006
  -1.8799999999999983E-002    -5.0599737733136863E-005
  -1.7699999999999994E-002    -3.7637459172401577E-005
  -1.6599999999999990E-002     3.6719902709592134E-005
  -1.5499999999999986E-002     7.3847200837917626E-005
  -1.4399999999999996E-002     1.5932955648167990E-005
  -1.3299999999999992E-002    -6.6031410824507475E-005
  -1.2199999999999989E-002    -6.6205531766172498E-005
  -1.1099999999999985E-002     9.8060590971726924E-006
  -9.9999999999999950E-003     5.5803207942517474E-005
  -8.8999999999999913E-003     1.7767270037438720E-005
  -7.7999999999999875E-003    -3.5593973734648898E-005
  -6.6999999999999837E-003    -2.5180946977343410E-005
  -5.5999999999999939E-003     2.3638665879843757E-005
  -4.4999999999999901E-003     3.2031908631324768E-005
  -3.3999999999999864E-003     4.1896703351085307E-007
  -2.2999999999999826E-003    -6.3192496781994123E-006
  -1.1999999999999927E-003     1.6967600458883680E-005
  -9.9999999999988987E-005    -3.5991220102005173E-006
   1.0000000000000148E-003    -8.3489278040360659E-005
   2.1000000000000185E-003    -1.1095836816821247E-004
   3.2000000000000084E-003     4.7833259486651514E-006
   4.3000000000000121E-003     1.4954573998693377E-004
   5.4000000000000159E-003     1.2785878789145499E-004
   6.5000000000000058E-003    -5.7356148317921907E-005
   7.6000000000000234E-003    -1.5989135135896504E-004
   8.7000000000000133E-003    -3.3558306313352659E-005
   9.8000000000000032E-003     1.4736110460944474E-004
   1.0900000000000021E-002     1.1784557864302769E-004
   1.2000000000000011E-002    -1.1833748430944979E-004
   1.3100000000000001E-002    -2.5859582819975913E-004
   1.4200000000000018E-002    -1.1130912753287703E-004
   1.5300000000000008E-002     1.2869627971667796E-004
   1.6400000000000026E-002     1.8358953821007162E-004
   1.7500000000000016E-002     4.5641969336429611E-005
   1.8600000000000005E-002    -3.2255742553388700E-005
   1.9700000000000023E-002    -1.0524589697524789E-006
   2.0800000000000013E-002     3.1916119041852653E-005
   2.1900000000000003E-002    -3.2387612009188160E-005
   2.3000000000000020E-002    -1.0573780309641734E-004
   2.4100000000000010E-002    -3.8428199331974611E-005
   2.5200000000000000E-002     3.3410997275495902E-005
   2.6300000000000018E-002    -1.1003483450622298E-005
   2.7400000000000008E-002    -1.2377151870168746E-004
   2.8500000000000025E-002    -5.6678032706258819E-005
   2.9600000000000015E-002     2.3848417913541198E-004
   3.0700000000000005E-002     2.9015808831900358E-004
   3.1800000000000023E-002     4.0178667404688895E-005
   3.2900000000000013E-002    -3.0935264658182859E-004
   3.4000000000000002E-002     1.8472794181434438E-005
   3.5100000000000020E-002     2.4758811923675239E-004
   3.6200000000000010E-002     1.0078935702040326E-005
   3.7300000000000028E-002    -2.8220620151842013E-005
   3.8400000000000017E-002    -2.5292401551268995E-004
   3.9500000000000007E-002    -1.1490684846648946E-004
   4.0600000000000025E-002     3.8391584530472755E-004
   4.1700000000000015E-002     4.1304310434497893E-004
   4.2800000000000005E-002    -5.7460633797745686E-006
   4.3900000000000022E-002    -3.6068001645617187E-004
   4.5000000000000012E-002     1.0921232023974881E-004
   4.6100000000000002E-002     3.3272331347689033E-004
   4.7200000000000020E-002     2.2616362912231125E-005
   4.8300000000000010E-002     1.2528928346000612E-004
   4.9400000000000027E-002     4.9101503100246191E-004
   5.0500000000000017E-002     2.4891842622309923E-004
   5.1600000000000007E-002    -9.7446044674143195E-004
   5.2700000000000025E-002    -1.1620206059888005E-003
   5.3800000000000014E-002     9.6666574245318770E-004
   5.4900000000000004E-002     1.7715706489980221E-003
   5.6000000000000022E-002     1.9897497259080410E-004
   5.7100000000000012E-002    -2.0311186090111732E-003
   5.8200000000000002E-002    -7.4971962021663785E-004
   5.9300000000000019E-002     1.0818284936249256E-003
   6.0400000000000009E-002     1.0122923413291574E-003
   6.1500000000000027E-002    -1.7647365166340023E-004
   6.2600000000000017E-002    -1.0966260451823473E-003
   6.3700000000000007E-002    -1.8320698291063309E-004
   6.4800000000000024E-002     3.1317747198045254E-004
   6.5900000000000014E-002    -3.6378236836753786E-004
   6.7000000000000004E-002    -1.0707735782489181E-003
   6.8100000000000022E-002     9.3039410421624780E-004
   6.9200000000000012E-002     1.7094959039241076E-003
   7.0300000000000029E-002     4.1459425119683146E-005
   7.1400000000000019E-002    -2.7841166593134403E-003
   7.2500000000000009E-002    -3.4092925488948822E-003
   7.3600000000000027E-002     6.0812302399426699E-004
   7.4700000000000016E-002     5.2373660728335381E-003
   7.5800000000000006E-002     3.2785118091851473E-003
   7.6900000000000024E-002    -3.7289357278496027E-003
   7.8000000000000014E-002    -6.7744203843176365E-003
   7.9100000000000004E-002    -1.0025714291259646E-003
   8.0200000000000021E-002     5.3883120417594910E-003
   8.1300000000000011E-002     4.6292659826576710E-003
   8.2400000000000029E-002    -1.8117825966328382E-003
   8.3500000000000019E-002    -4.9763293936848640E-003
   8.4600000000000009E-002    -1.8425721209496260E-003
   8.5700000000000026E-002     2.3166334722191095E-003
   8.6800000000000016E-002     2.2787442430853844E-003
   8.7900000000000006E-002     6.3743995269760489E-004
   8.9000000000000024E-002     8.6827384075149894E-004
   9.0100000000000013E-002     9.6630956977605820E-004
   9.1200000000000003E-002    -1.9237209344282746E-003
   9.2300000000000021E-002    -4.8422887921333313E-003
   9.3400000000000011E-002    -1.0773156536743045E-003
   9.4500000000000028E-002     6.2548262067139149E-003
   9.5600000000000018E-002     7.3550725355744362E-003
   9.6700000000000008E-002    -1.9584719557315111E-003
   9.7800000000000026E-002    -9.5702474936842918E-003
   9.8900000000000016E-002    -4.6141878701746464E-003
  0.10000000000000001          5.3752614185214043E-003
  0.10110000000000002          9.6674887463450432E-003
  0.10220000000000001          3.1216226052492857E-003
  0.10330000000000003         -5.5021247826516628E-003
  0.10440000000000002         -6.9679976440966129E-003
  0.10550000000000001         -8.9033949188888073E-004
  0.10660000000000003          3.6171020474284887E-003
  0.10770000000000002          2.8556473553180695E-003
  0.10880000000000001          2.6819196064025164E-003
  0.10990000000000003          3.7265921127982438E-004
  0.11100000000000002         -2.5835870765149593E-003
  0.11210000000000001         -6.4905607141554356E-003
  0.11320000000000002         -3.4200428053736687E-003
  0.11430000000000001          5.4364362731575966E-003
  0.11540000000000003          1.0442110709846020E-002
  0.11650000000000002          3.6704845260828733E-003
  0.11760000000000001         -7.4143884703516960E-003
  0.11870000000000003         -1.3302681967616081E-002
  0.11980000000000002         -2.3748476523905993E-003
  0.12090000000000001          1.0581921786069870E-002
  0.12200000000000003          1.0250303894281387E-002
  0.12310000000000001         -1.3925703242421150E-003
  0.12420000000000003         -9.3605192378163338E-003
  0.12530000000000002         -6.6119525581598282E-003
  0.12640000000000001          1.3874949654564261E-003
  0.12750000000000003          4.0424517355859280E-003
  0.12860000000000002          3.2842338550835848E-003
  0.12970000000000001          2.7871825732290745E-003
  0.13080000000000003          1.9558339845389128E-003
  0.13190000000000002         -3.7242954131215811E-003
  0.13300000000000001         -1.0142287239432335E-002
  0.13410000000000000         -6.4361696131527424E-003
  0.13520000000000004          6.8618506193161011E-003
  0.13630000000000003          1.5372033230960369E-002
  0.13740000000000002          6.7267110571265221E-003
  0.13850000000000001         -1.0866542346775532E-002
  0.13960000000000000         -1.6055338084697723E-002
  0.14070000000000005         -2.6623778976500034E-003
  0.14180000000000004          1.2279068119823933E-002
  0.14290000000000003          1.1426128447055817E-002
  0.14400000000000002         -1.2139190221205354E-003
  0.14510000000000001         -8.5038654506206512E-003
  0.14620000000000000         -4.1579101234674454E-003
  0.14730000000000004          9.1937277466058731E-004
  0.14840000000000003         -1.0375869169365615E-004
  0.14950000000000002         -4.7181258560158312E-004
  0.15060000000000001          5.3538214415311813E-003
  0.15170000000000000          8.7796235457062721E-003
  0.15280000000000005          1.7898315854836255E-004
  0.15390000000000004         -1.3136326335370541E-002
  0.15500000000000003         -1.2123423628509045E-002
  0.15610000000000002          5.1527223549783230E-003
  0.15720000000000001          1.7255365848541260E-002
  0.15830000000000000          8.6599038913846016E-003
  0.15940000000000004         -1.0128684341907501E-002
  0.16050000000000003         -1.5055571682751179E-002
  0.16160000000000002         -1.5806206502020359E-003
  0.16270000000000001          1.0513214394450188E-002
  0.16380000000000000          6.8029621616005898E-003
  0.16490000000000005         -3.4409104846417904E-003
  0.16600000000000004         -3.7377336993813515E-003
  0.16710000000000003          3.1277164816856384E-003
  0.16820000000000002          2.3419840727001429E-003
  0.16930000000000001         -6.6628768108785152E-003
  0.17040000000000000         -8.2626985386013985E-003
  0.17150000000000004          4.1625788435339928E-003
  0.17260000000000003          1.4443129301071167E-002
  0.17370000000000002          5.7917241938412189E-003
  0.17480000000000001         -1.2198206968605518E-002
  0.17590000000000000         -1.4827131293714046E-002
  0.17700000000000005          2.2207910660654306E-003
  0.17810000000000004          1.5543607063591480E-002
  0.17920000000000003          7.4310000054538250E-003
  0.18030000000000002         -9.2288497835397720E-003
  0.18140000000000001         -1.0822479613125324E-002
  0.18250000000000000          2.5129120331257582E-003
  0.18360000000000004          9.4478344544768333E-003
  0.18470000000000003          1.5777912631165236E-004
  0.18580000000000002         -8.8596595451235771E-003
  0.18690000000000001         -1.6411727992817760E-003
  0.18800000000000000          1.0361176915466785E-002
  0.18910000000000005          7.0191617123782635E-003
  0.19020000000000004         -9.4163548201322556E-003
  0.19130000000000003         -1.3906225562095642E-002
  0.19240000000000002          2.0817394834011793E-003
  0.19350000000000001          1.5463774092495441E-002
  0.19460000000000005          7.4578975327312946E-003
  0.19570000000000004         -1.0706111788749695E-002
  0.19680000000000003         -1.2895257212221622E-002
  0.19790000000000002          3.5290885716676712E-003
  0.19900000000000001          1.3374884612858295E-002
  0.20010000000000000          2.4591987021267414E-003
  0.20120000000000005         -1.0747336782515049E-002
  0.20230000000000004         -6.2233917415142059E-003
  0.20340000000000003          8.3452137187123299E-003
  0.20450000000000002          9.0661896392703056E-003
  0.20560000000000000         -5.5272979661822319E-003
  0.20670000000000005         -1.3004015199840069E-002
  0.20780000000000004         -3.3663425710983574E-004
  0.20890000000000003          1.4374900609254837E-002
