 -0.12000000000000000          0.0000000000000000
 -0.11889999999999999          0.0000000000000000
 -0.11780000000000000          0.0000000000000000
 -0.11670000000000000          0.0000000000000000
 -0.11559999999999999          0.0000000000000000
 -0.11449999999999999          0.0000000000000000
 -0.11340000000000000          0.0000000000000000
 -0.11230000000000000          0.0000000000000000
 -0.11119999999999999          0.0000000000000000
 -0.11009999999999999          0.0000000000000000
 -0.10900000000000000         -3.7337474201100635E-029
 -0.10790000000000000          1.3453097630132632E-029
 -0.10679999999999999          4.7176838434681140E-028
 -0.10569999999999999         -9.6304313786597021E-030
 -0.10460000000000000         -2.2791832444147649E-027
 -0.10349999999999999          2.2450969807010330E-027
 -0.10239999999999999          5.9567414658043364E-027
 -0.10130000000000000         -4.9226211629225854E-026
 -0.10020000000000000         -7.7164820678812221E-026
  -9.9099999999999994E-002     3.5427785161711230E-025
  -9.7999999999999990E-002     9.8178176997346787E-025
  -9.6899999999999986E-002    -6.6351066086236015E-025
  -9.5799999999999996E-002    -5.6465551301843663E-024
  -9.4699999999999993E-002    -5.2667548919220893E-024
  -9.3599999999999989E-002     1.2807500739617803E-023
  -9.2499999999999999E-002     3.4929132674278027E-023
  -9.1399999999999995E-002     1.6565129221111362E-023
  -9.0299999999999991E-002    -5.5165560594859181E-023
  -8.9200000000000002E-002    -1.2455057250915504E-022
  -8.8099999999999984E-002    -1.5215372435060106E-022
  -8.6999999999999994E-002    -1.0031463242087784E-022
  -8.5899999999999990E-002     3.5796283922265517E-022
  -8.4799999999999986E-002     1.5967284862528994E-021
  -8.3699999999999997E-002     2.3731367487684544E-021
  -8.2599999999999993E-002    -9.7030305336387512E-022
  -8.1499999999999989E-002    -9.7754863854195680E-021
  -8.0399999999999999E-002    -1.5159535522280468E-020
  -7.9299999999999995E-002    -9.7618641586033688E-022
  -7.8199999999999992E-002     3.4926250567805358E-020
  -7.7100000000000002E-002     6.3323428851410422E-020
  -7.5999999999999984E-002     4.1270719403738545E-020
  -7.4899999999999994E-002    -4.8335468682749351E-020
  -7.3799999999999991E-002    -1.8226379375389563E-019
  -7.2699999999999987E-002    -2.9687607827286490E-019
  -7.1599999999999997E-002    -2.4095342143726934E-019
  -7.0499999999999993E-002     2.3417061796251694E-019
  -6.9399999999999989E-002     1.1815504738374560E-018
  -6.8300000000000000E-002     1.9091241683759561E-018
  -6.7199999999999996E-002     9.8054734274587198E-019
  -6.6099999999999992E-002    -2.4318731573928771E-018
  -6.5000000000000002E-002    -6.6677221788261133E-018
  -6.3899999999999985E-002    -7.5772539980327764E-018
  -6.2799999999999995E-002    -1.5040610602390983E-018
  -6.1699999999999991E-002     1.1101705979179329E-017
  -6.0599999999999994E-002     2.4575501257364725E-017
  -5.9499999999999990E-002     2.9130320015189994E-017
  -5.8399999999999994E-002     1.2619667602817228E-017
  -5.7299999999999990E-002    -3.3211242036999957E-017
  -5.6199999999999986E-002    -9.6724518661761073E-017
  -5.5099999999999996E-002    -1.3118860845453385E-016
  -5.3999999999999992E-002    -7.0001813698525073E-017
  -5.2899999999999989E-002     1.1374956326421729E-016
  -5.1799999999999985E-002     3.4495165314025165E-016
  -5.0699999999999995E-002     4.5484292839016640E-016
  -4.9599999999999991E-002     2.8070587168712788E-016
  -4.8499999999999988E-002    -2.1407289992573527E-016
  -4.7399999999999998E-002    -8.8235130947904848E-016
  -4.6299999999999994E-002    -1.4008282762459638E-015
  -4.5199999999999990E-002    -1.3201901043926440E-015
  -4.4099999999999986E-002    -2.3408480769333676E-016
  -4.2999999999999997E-002     1.8395967427587302E-015
  -4.1899999999999993E-002     4.0546166989489322E-015
  -4.0799999999999989E-002     4.8309257832392875E-015
  -3.9699999999999985E-002     2.7573723994600520E-015
  -3.8599999999999995E-002    -2.2062770938668800E-015
  -3.7499999999999992E-002    -8.2677734016683990E-015
  -3.6399999999999988E-002    -1.2530703877950897E-014
  -3.5299999999999984E-002    -1.2231585204056355E-014
  -3.4199999999999994E-002    -5.6350781110553125E-015
  -3.3099999999999991E-002     7.2450869969772382E-015
  -3.1999999999999987E-002     2.3495121863684187E-014
  -3.0899999999999997E-002     3.6482823733601302E-014
  -2.9799999999999993E-002     3.7469938989672519E-014
  -2.8699999999999989E-002     2.0199853684806264E-014
  -2.7599999999999986E-002    -1.4547136959657328E-014
  -2.6499999999999996E-002    -5.8218783526714502E-014
  -2.5399999999999992E-002    -9.7321198951234866E-014
  -2.4299999999999988E-002    -1.1583328697259421E-013
  -2.3199999999999985E-002    -9.5981965322726459E-014
  -2.2099999999999995E-002    -2.2458428075144282E-014
  -2.0999999999999991E-002     1.0538197105312147E-013
  -1.9899999999999987E-002     2.5925285139158372E-013
  -1.8799999999999983E-002     3.7992073137656235E-013
  -1.7699999999999994E-002     3.9509267710756413E-013
  -1.6599999999999990E-002     2.4860200161479218E-013
  -1.5499999999999986E-002    -7.4176233731682029E-014
  -1.4399999999999996E-002    -5.2987930883319212E-013
  -1.3299999999999992E-002    -1.0064088234659763E-012
  -1.2199999999999989E-002    -1.3242393293033672E-012
  -1.1099999999999985E-002    -1.2707116175264543E-012
  -9.9999999999999950E-003    -6.7844780357942391E-013
  -8.8999999999999913E-003     4.7666812988053642E-013
  -7.7999999999999875E-003     2.0073497985356736E-012
  -6.6999999999999837E-003     3.5112167080103562E-012
  -5.5999999999999939E-003     4.4323273350188597E-012
  -4.4999999999999901E-003     4.1779205962877430E-012
  -3.3999999999999864E-003     2.2929186761083686E-012
  -2.2999999999999826E-003    -1.3153490883294205E-012
  -1.1999999999999927E-003    -6.1643984188008982E-012
  -9.9999999999988987E-005    -1.1109015617127849E-011
   1.0000000000000148E-003    -1.4475204021535681E-011
   2.1000000000000185E-003    -1.4431202760567530E-011
   3.2000000000000084E-003    -9.5314086484554750E-012
   4.3000000000000121E-003     6.7371753792108691E-013
   5.4000000000000159E-003     1.5105309364438213E-011
   6.5000000000000058E-003     3.0896365327270914E-011
   7.6000000000000234E-003     4.3611534522591811E-011
   8.7000000000000133E-003     4.8054074608394615E-011
   9.8000000000000032E-003     3.9579620830787476E-011
   1.0900000000000021E-002     1.5664674418713886E-011
   1.2000000000000011E-002    -2.2618880726743562E-011
   1.3100000000000001E-002    -6.9631238275302820E-011
   1.4200000000000018E-002    -1.1514269399048871E-010
   1.5300000000000008E-002    -1.4563532324540773E-010
   1.6400000000000026E-002    -1.4700303474501908E-010
   1.7500000000000016E-002    -1.0827104490740425E-010
   1.8600000000000005E-002    -2.5562933714251557E-011
   1.9700000000000023E-002     9.4652473359158051E-011
   2.0800000000000013E-002     2.3404952975702997E-010
   2.1900000000000003E-002     3.6363614897005903E-010
   2.3000000000000020E-002     4.4830295031772494E-010
   2.4100000000000010E-002     4.5464151887664173E-010
   2.5200000000000000E-002     3.6086109100885722E-010
   2.6300000000000018E-002     1.6667707491979655E-010
   2.7400000000000008E-002    -9.9404685871551379E-011
   2.8500000000000025E-002    -3.7786102025094692E-010
   2.9600000000000015E-002    -5.8291921289921333E-010
   3.0700000000000005E-002    -6.1527316574938595E-010
   3.1800000000000023E-002    -3.8215750008951943E-010
   3.2900000000000013E-002     1.7779235028658746E-010
   3.4000000000000002E-002     1.0693204099965214E-009
   3.5100000000000020E-002     2.2203208160931354E-009
   3.6200000000000010E-002     3.4717331232059223E-009
   3.7300000000000028E-002     4.5813290938667706E-009
   3.8400000000000017E-002     5.2426853969222975E-009
   3.9500000000000007E-002     5.1177249105194278E-009
   4.0600000000000025E-002     3.8776528654693720E-009
   4.1700000000000015E-002     1.2444413277634681E-009
   4.2800000000000005E-002    -2.9762006192868284E-009
   4.3900000000000022E-002    -8.8784091190063918E-009
   4.5000000000000012E-002    -1.6462461616129076E-008
   4.6100000000000002E-002    -2.5666610170560489E-008
   4.7200000000000020E-002    -3.6422175497818898E-008
   4.8300000000000010E-002    -4.8726608525839765E-008
   4.9400000000000027E-002    -6.2723607641146373E-008
   5.0500000000000017E-002    -7.8780367118724826E-008
   5.1600000000000007E-002    -9.7548713995365688E-008
   5.2700000000000025E-002    -1.2000310789517243E-007
   5.3800000000000014E-002    -1.4745214116373973E-007
   5.4900000000000004E-002    -1.8152721281694539E-007
   5.6000000000000022E-002    -2.2415417788579362E-007
   5.7100000000000012E-002    -2.7752136588787835E-007
   5.8200000000000002E-002    -3.4406107829454413E-007
   5.9300000000000019E-002    -4.2645586972867022E-007
   6.0400000000000009E-002    -5.2768331215702347E-007
   6.1500000000000027E-002    -6.5110396008094540E-007
   6.2600000000000017E-002    -8.0059004403665313E-007
   6.3700000000000007E-002    -9.8068039733334444E-007
   6.4800000000000024E-002    -1.1967570117121795E-006
   6.5900000000000014E-002    -1.4552126685885014E-006
   6.7000000000000004E-002    -1.7635893527767621E-006
   6.8100000000000022E-002    -2.1306946109689306E-006
   6.9200000000000012E-002    -2.5666834062576527E-006
   7.0300000000000029E-002    -3.0831131425657077E-006
   7.1400000000000019E-002    -3.6930014175595716E-006
   7.2500000000000009E-002    -4.4108492147643119E-006
   7.3600000000000027E-002    -5.2527429943438619E-006
   7.4700000000000016E-002    -6.2364701989281457E-006
   7.5800000000000006E-002    -7.3816459007502999E-006
   7.6900000000000024E-002    -8.7099269876489416E-006
   7.8000000000000014E-002    -1.0245114026474766E-005
   7.9100000000000004E-002    -1.2013271771138534E-005
   8.0200000000000021E-002    -1.4042805560166016E-005
   8.1300000000000011E-002    -1.6364441762561910E-005
   8.2400000000000029E-002    -1.9011094991583377E-005
   8.3500000000000019E-002    -2.2017686205799691E-005
   8.4600000000000009E-002    -2.5420926249353215E-005
   8.5700000000000026E-002    -2.9258779250085354E-005
   8.6800000000000016E-002    -3.3570191590115428E-005
   8.7900000000000006E-002    -3.8394664443330839E-005
   8.9000000000000024E-002    -4.3771837226813659E-005
   9.0100000000000013E-002    -4.9740654503693804E-005
   9.1200000000000003E-002    -5.6338772992603481E-005
   9.2300000000000021E-002    -6.3601699366699904E-005
   9.3400000000000011E-002    -7.1561960794497281E-005
   9.4500000000000028E-002    -8.0248020822182298E-005
   9.5600000000000018E-002    -8.9683089754544199E-005
   9.6700000000000008E-002    -9.9883916846010834E-005
   9.7800000000000026E-002    -1.1085892765549943E-004
   9.8900000000000016E-002    -1.2260687071830034E-004
  0.10000000000000001         -1.3511550787370652E-004
  0.10110000000000002         -1.4835977344773710E-004
  0.10220000000000001         -1.6230020264629275E-004
  0.10330000000000003         -1.7688138177618384E-004
  0.10440000000000002         -1.9203034753445536E-004
  0.10550000000000001         -2.0765539375133812E-004
  0.10660000000000003         -2.2364484902936965E-004
  0.10770000000000002         -2.3986717860680073E-004
  0.10880000000000001         -2.5616917992010713E-004
  0.10990000000000003         -2.7237599715590477E-004
  0.11100000000000002         -2.8829096117988229E-004
  0.11210000000000001         -3.0369588057510555E-004
  0.11320000000000002         -3.1835233676247299E-004
  0.11430000000000001         -3.3200287725776434E-004
  0.11540000000000003         -3.4437244175933301E-004
  0.11650000000000002         -3.5516961361281574E-004
  0.11760000000000001         -3.6409092717804015E-004
  0.11870000000000003         -3.7082424387335777E-004
  0.11980000000000002         -3.7505314685404301E-004
  0.12090000000000001         -3.7646127748303115E-004
  0.12200000000000003         -3.7473801057785749E-004
  0.12310000000000001         -3.6958404234610498E-004
  0.12420000000000003         -3.6071738577447832E-004
  0.12530000000000002         -3.4787951153703034E-004
  0.12640000000000001         -3.3084145979955792E-004
  0.12750000000000003         -3.0941030126996338E-004
  0.12860000000000002         -2.8343574376776814E-004
  0.12970000000000001         -2.5281606940552592E-004
  0.13080000000000003         -2.1750439191237092E-004
  0.13190000000000002         -1.7751319683156908E-004
  0.13300000000000001         -1.3291928917169571E-004
  0.13410000000000000         -8.3867802459280938E-005
  0.13520000000000004         -3.0575913115171716E-005
  0.13630000000000003          2.6665575205697678E-005
  0.13740000000000002          8.7492153397761285E-005
  0.13850000000000001          1.5146718942560256E-004
  0.13960000000000000          2.1808400924783200E-004
  0.14070000000000005          2.8676918009296060E-004
  0.14180000000000004          3.5688714706338942E-004
  0.14290000000000003          4.2774729081429541E-004
  0.14400000000000002          4.9861130537465215E-004
  0.14510000000000001          5.6870281696319580E-004
  0.14620000000000000          6.3721789047122002E-004
  0.14730000000000004          7.0333736948668957E-004
  0.14840000000000003          7.6623779023066163E-004
  0.14950000000000002          8.2510279025882483E-004
  0.15060000000000001          8.7913620518520474E-004
  0.15170000000000000          9.2758005484938622E-004
  0.15280000000000005          9.6972554456442595E-004
  0.15390000000000004          1.0049258125945926E-003
  0.15500000000000003          1.0326042538508773E-003
  0.15610000000000002          1.0522668017074466E-003
  0.15720000000000001          1.0635153157636523E-003
  0.15830000000000000          1.0660556145012379E-003
  0.15940000000000004          1.0597023647278547E-003
  0.16050000000000003          1.0443873470649123E-003
  0.16160000000000002          1.0201546829193830E-003
  0.16270000000000001          9.8716688808053732E-004
  0.16380000000000000          9.4570277724415064E-004
  0.16490000000000005          8.9615432079881430E-004
  0.16600000000000004          8.3902303595095873E-004
  0.16710000000000003          7.7491183765232563E-004
  0.16820000000000002          7.0451397914439440E-004
  0.16930000000000001          6.2860164325684309E-004
  0.17040000000000000          5.4801395162940025E-004
  0.17150000000000004          4.6364727313630283E-004
  0.17260000000000003          3.7644241820089519E-004
  0.17370000000000002          2.8736700187437236E-004
  0.17480000000000001          1.9739569688681513E-004
  0.17590000000000000          1.0749545617727563E-004
  0.17700000000000005          1.8614475266076624E-005
  0.17810000000000004         -6.8329354689922184E-005
  0.17920000000000003         -1.5246200200635940E-004
  0.18030000000000002         -2.3296885774470866E-004
  0.18140000000000001         -3.0910671921446919E-004
  0.18250000000000000         -3.8021229556761682E-004
  0.18360000000000004         -4.4570842874236405E-004
  0.18470000000000003         -5.0510861910879612E-004
  0.18580000000000002         -5.5802107090130448E-004
  0.18690000000000001         -6.0415209736675024E-004
  0.18800000000000000         -6.4330815803259611E-004
  0.18910000000000005         -6.7539565498009324E-004
  0.19020000000000004         -7.0041680010035634E-004
  0.19130000000000003         -7.1846303762868047E-004
  0.19240000000000002         -7.2970660403370857E-004
  0.19350000000000001         -7.3439517291262746E-004
  0.19460000000000005         -7.3284987593069673E-004
  0.19570000000000004         -7.2545418515801430E-004
  0.19680000000000003         -7.1264395955950022E-004
  0.19790000000000002         -6.9489324232563376E-004
  0.19900000000000001         -6.7270512226969004E-004
  0.20010000000000000         -6.4660626230761409E-004
  0.20120000000000005         -6.1714067123830318E-004
  0.20230000000000004         -5.8485701447352767E-004
  0.20340000000000003         -5.5029831128194928E-004
  0.20450000000000002         -5.1399390213191509E-004
  0.20560000000000000         -4.7645240556448698E-004
  0.20670000000000005         -4.3815857497975230E-004
  0.20780000000000004         -3.9956861292012036E-004
  0.20890000000000003         -3.6110496148467064E-004
