 -0.12000000000000000          0.0000000000000000
 -0.11889999999999999          0.0000000000000000
 -0.11780000000000000          0.0000000000000000
 -0.11670000000000000          0.0000000000000000
 -0.11559999999999999          0.0000000000000000
 -0.11449999999999999          0.0000000000000000
 -0.11340000000000000          0.0000000000000000
 -0.11230000000000000          4.5173334915543855E-021
 -0.11119999999999999          2.6953383395904554E-021
 -0.11009999999999999         -3.9686148311642383E-020
 -0.10900000000000000         -4.3154532775948567E-020
 -0.10790000000000000          1.2673961825370042E-019
 -0.10679999999999999          1.1275686670622454E-019
 -0.10569999999999999         -2.9436465453557734E-019
 -0.10460000000000000          7.7179637274802171E-019
 -0.10349999999999999          3.4095603163756938E-018
 -0.10239999999999999         -2.6647561394849845E-018
 -0.10130000000000000         -2.4008300202614664E-017
 -0.10020000000000000         -2.3006915353057968E-017
  -9.9099999999999994E-002     5.9794438026845214E-017
  -9.7999999999999990E-002     1.6465781834608704E-016
  -9.6899999999999986E-002     6.5371819112269760E-017
  -9.5799999999999996E-002    -3.2096637999152924E-016
  -9.4699999999999993E-002    -5.9947475704590384E-016
  -9.3599999999999989E-002    -2.6554607304386444E-016
  -9.2499999999999999E-002     5.2617946087277234E-016
  -9.1399999999999995E-002     1.2265280598214605E-015
  -9.0299999999999991E-002     1.9775489754715386E-015
  -8.9200000000000002E-002     2.6896684207113053E-015
  -8.8099999999999984E-002     1.9473867145549642E-016
  -8.6999999999999994E-002    -9.5672515387974257E-015
  -8.5899999999999990E-002    -2.1019359755340694E-014
  -8.4799999999999986E-002    -1.4576910167753317E-014
  -8.3699999999999997E-002     2.3028633714576932E-014
  -8.2599999999999993E-002     6.8656255539697314E-014
  -8.1499999999999989E-002     7.0093866962831625E-014
  -8.0399999999999999E-002     1.8026841057085718E-015
  -7.9299999999999995E-002    -9.8447481720539964E-014
  -7.8199999999999992E-002    -1.7167476750075406E-013
  -7.7100000000000002E-002    -1.9459218578935650E-013
  -7.5999999999999984E-002    -1.4046687532749680E-013
  -7.4899999999999994E-002     9.1882786643938952E-014
  -7.3799999999999991E-002     5.6259543464859396E-013
  -7.2699999999999987E-002     1.0080224415592864E-012
  -7.1599999999999997E-002     8.3523894181189440E-013
  -7.0499999999999993E-002    -2.9889692066895068E-013
  -6.9399999999999989E-002    -1.8545852787515971E-012
  -6.8300000000000000E-002    -2.6645740735381507E-012
  -6.7199999999999996E-002    -2.0365256789972586E-012
  -6.6099999999999992E-002    -3.4666621786735852E-013
  -6.5000000000000002E-002     1.7393216858105354E-012
  -6.3899999999999985E-002     4.1749277646108141E-012
  -6.2799999999999995E-002     6.7709930544335162E-012
  -6.1699999999999991E-002     7.5979647920498827E-012
  -6.0599999999999994E-002     3.6871334978261228E-012
  -5.9499999999999990E-002    -5.3345960461526065E-012
  -5.8399999999999994E-002    -1.5047071227902720E-011
  -5.7299999999999990E-002    -1.9570289833126253E-011
  -5.6199999999999986E-002    -1.7235570609619444E-011
  -5.5099999999999996E-002    -1.0806308105293372E-011
  -5.3999999999999992E-002    -1.1947499196571232E-012
  -5.2899999999999989E-002     1.5830942459715835E-011
  -5.1799999999999985E-002     4.2452256987512982E-011
  -5.0699999999999995E-002     6.8811373266086662E-011
  -4.9599999999999991E-002     7.5453795989055550E-011
  -4.8499999999999988E-002     4.9080850494931383E-011
  -4.7399999999999998E-002    -6.5036461459333506E-012
  -4.6299999999999994E-002    -7.7458893465998102E-011
  -4.5199999999999990E-002    -1.5275535003578256E-010
  -4.4099999999999986E-002    -2.2125642984427429E-010
  -4.2999999999999997E-002    -2.5614371734761221E-010
  -4.1899999999999993E-002    -2.1505974778790460E-010
  -4.0799999999999989E-002    -6.9064982899380567E-011
  -3.9699999999999985E-002     1.6694898241631506E-010
  -3.8599999999999995E-002     4.3755216116991846E-010
  -3.7499999999999992E-002     6.7744693188487304E-010
  -3.6399999999999988E-002     8.2886481012067748E-010
  -3.5299999999999984E-002     8.2947049229176173E-010
  -3.4199999999999994E-002     6.0446858629603639E-010
  -3.3099999999999991E-002     9.7093312556584266E-011
  -3.1999999999999987E-002    -6.8152383736475031E-010
  -3.0899999999999997E-002    -1.6310371941941071E-009
  -2.9799999999999993E-002    -2.5782607160351745E-009
  -2.8699999999999989E-002    -3.2951070760844914E-009
  -2.7599999999999986E-002    -3.5026765932144599E-009
  -2.6499999999999996E-002    -2.8971782750630837E-009
  -2.5399999999999992E-002    -1.2209904198812183E-009
  -2.4299999999999988E-002     1.6695306248593056E-009
  -2.3199999999999985E-002     5.8055089624531320E-009
  -2.2099999999999995E-002     1.1159310808750433E-008
  -2.0999999999999991E-002     1.7666986096287474E-008
  -1.9899999999999987E-002     2.5200602493669066E-008
  -1.8799999999999983E-002     3.3585806136215979E-008
  -1.7699999999999994E-002     4.2738868444303080E-008
  -1.6599999999999990E-002     5.2840015030142240E-008
  -1.5499999999999986E-002     6.4385176301584579E-008
  -1.4399999999999996E-002     7.8097201594573562E-008
  -1.3299999999999992E-002     9.4849120557682909E-008
  -1.2199999999999989E-002     1.1570791969006677E-007
  -1.1099999999999985E-002     1.4199851250396023E-007
  -9.9999999999999950E-003     1.7523126416563173E-007
  -8.8999999999999913E-003     2.1693197993499780E-007
  -7.7999999999999875E-003     2.6858725732381572E-007
  -6.6999999999999837E-003     3.3180529612764076E-007
  -5.5999999999999939E-003     4.0853248606254056E-007
  -4.4999999999999901E-003     5.0113567340304144E-007
  -3.3999999999999864E-003     6.1238159787535551E-007
  -2.2999999999999826E-003     7.4549825512804091E-007
  -1.1999999999999927E-003     9.0435344191064360E-007
  -9.9999999999988987E-005     1.0935968930425588E-006
   1.0000000000000148E-003     1.3186784144636476E-006
   2.1000000000000185E-003     1.5858485085118446E-006
   3.2000000000000084E-003     1.9022538708668435E-006
   4.3000000000000121E-003     2.2760302726965165E-006
   5.4000000000000159E-003     2.7162584501638776E-006
   6.5000000000000058E-003     3.2328607630915940E-006
   7.6000000000000234E-003     3.8367284105333965E-006
   8.7000000000000133E-003     4.5400688577501569E-006
   9.8000000000000032E-003     5.3566200222121552E-006
   1.0900000000000021E-002     6.3015036175784189E-006
   1.2000000000000011E-002     7.3909527600335423E-006
   1.3100000000000001E-002     8.6424170149257407E-006
   1.4200000000000018E-002     1.0074960300698876E-005
   1.5300000000000008E-002     1.1709554200933781E-005
   1.6400000000000026E-002     1.3568744179792702E-005
   1.7500000000000016E-002     1.5676212569815107E-005
   1.8600000000000005E-002     1.8056507542496547E-005
   1.9700000000000023E-002     2.0735036741825752E-005
   2.0800000000000013E-002     2.3737773517495953E-005
   2.1900000000000003E-002     2.7090889489045367E-005
   2.3000000000000020E-002     3.0820159736322239E-005
   2.4100000000000010E-002     3.4950659028254449E-005
   2.5200000000000000E-002     3.9506521716248244E-005
   2.6300000000000018E-002     4.4510379666462541E-005
   2.7400000000000008E-002     4.9982503696810454E-005
   2.8500000000000025E-002     5.5940476158866659E-005
   2.9600000000000015E-002     6.2398081354331225E-005
   3.0700000000000005E-002     6.9364432420115918E-005
   3.1800000000000023E-002     7.6842967246193439E-005
   3.2900000000000013E-002     8.4829822299070656E-005
   3.4000000000000002E-002     9.3312759418040514E-005
   3.5100000000000020E-002     1.0227112215943635E-004
   3.6200000000000010E-002     1.1167434422532097E-004
   3.7300000000000028E-002     1.2148083624197170E-004
   3.8400000000000017E-002     1.3163698895368725E-004
   3.9500000000000007E-002     1.4207683852873743E-004
   4.0600000000000025E-002     1.5272159362211823E-004
   4.1700000000000015E-002     1.6347884957212955E-004
   4.2800000000000005E-002     1.7424262478016317E-004
   4.3900000000000022E-002     1.8489143985789269E-004
   4.5000000000000012E-002     1.9528991833794862E-004
   4.6100000000000002E-002     2.0528840832412243E-004
   4.7200000000000020E-002     2.1472379739861935E-004
   4.8300000000000010E-002     2.2342015290632844E-004
   4.9400000000000027E-002     2.3119185061659664E-004
   5.0500000000000017E-002     2.3784386576153338E-004
   5.1600000000000007E-002     2.4317417410202324E-004
   5.2700000000000025E-002     2.4697629851289093E-004
   5.3800000000000014E-002     2.4904240854084492E-004
   5.4900000000000004E-002     2.4916641996242106E-004
   5.6000000000000022E-002     2.4714673054404557E-004
   5.7100000000000012E-002     2.4279010540340096E-004
   5.8200000000000002E-002     2.3591934586875141E-004
   5.9300000000000019E-002     2.2637637448497117E-004
   6.0400000000000009E-002     2.1401960111688823E-004
   6.1500000000000027E-002     1.9873341079801321E-004
   6.2600000000000017E-002     1.8043155432678759E-004
   6.3700000000000007E-002     1.5906384214758873E-004
   6.4800000000000024E-002     1.3461920025292784E-004
   6.5900000000000014E-002     1.0712699440773576E-004
   6.7000000000000004E-002     7.6658398029394448E-005
   6.8100000000000022E-002     4.3328163883415982E-005
   6.9200000000000012E-002     7.2991383603948634E-006
   7.0300000000000029E-002    -3.1216080969898030E-005
   7.1400000000000019E-002    -7.1954258601181209E-005
   7.2500000000000009E-002    -1.1460645328043029E-004
   7.3600000000000027E-002    -1.5881897707004100E-004
   7.4700000000000016E-002    -2.0419924112502486E-004
   7.5800000000000006E-002    -2.5031639961525798E-004
   7.6900000000000024E-002    -2.9670793446712196E-004
   7.8000000000000014E-002    -3.4287793096154928E-004
   7.9100000000000004E-002    -3.8830778794363141E-004
   8.0200000000000021E-002    -4.3246315908618271E-004
   8.1300000000000011E-002    -4.7480830107815564E-004
   8.2400000000000029E-002    -5.1481265109032393E-004
   8.3500000000000019E-002    -5.5195554159581661E-004
   8.4600000000000009E-002    -5.8572879061102867E-004
   8.5700000000000026E-002    -6.1564560746774077E-004
   8.6800000000000016E-002    -6.4125709468498826E-004
   8.7900000000000006E-002    -6.6216709092259407E-004
   8.9000000000000024E-002    -6.7803607089444995E-004
   9.0100000000000013E-002    -6.8857840960845351E-004
   9.1200000000000003E-002    -6.9356500171124935E-004
   9.2300000000000021E-002    -6.9283088669180870E-004
   9.3400000000000011E-002    -6.8628910230472684E-004
   9.4500000000000028E-002    -6.7393376957625151E-004
   9.5600000000000018E-002    -6.5583467949181795E-004
   9.6700000000000008E-002    -6.3213834073394537E-004
   9.7800000000000026E-002    -6.0306349769234657E-004
   9.8900000000000016E-002    -5.6889560073614120E-004
  0.10000000000000001         -5.2998733008280396E-004
  0.10110000000000002         -4.8675586003810167E-004
  0.10220000000000001         -4.3967989040538669E-004
  0.10330000000000003         -3.8929187576286495E-004
  0.10440000000000002         -3.3615654683671892E-004
  0.10550000000000001         -2.8086025849916041E-004
  0.10660000000000003         -2.2400706075131893E-004
  0.10770000000000002         -1.6622620751149952E-004
  0.10880000000000001         -1.0815271525643766E-004
  0.10990000000000003         -5.0413604185450822E-005
  0.11100000000000002          6.3861461967462674E-006
  0.11210000000000001          6.1673839809373021E-005
  0.11320000000000002          1.1491235636640340E-004
  0.11430000000000001          1.6560524818487465E-004
  0.11540000000000003          2.1328956063371152E-004
  0.11650000000000002          2.5755484239198267E-004
  0.11760000000000001          2.9805587837472558E-004
  0.11870000000000003          3.3451634226366878E-004
  0.11980000000000002          3.6672683199867606E-004
  0.12090000000000001          3.9453568751923740E-004
  0.12200000000000003          4.1784378117881715E-004
  0.12310000000000001          4.3660937808454037E-004
  0.12420000000000003          4.5085721649229527E-004
  0.12530000000000002          4.6067844959907234E-004
  0.12640000000000001          4.6622171066701412E-004
  0.12750000000000003          4.6767786261625588E-004
  0.12860000000000002          4.6526725054718554E-004
  0.12970000000000001          4.5924054575152695E-004
  0.13080000000000003          4.4988570152781904E-004
  0.13190000000000002          4.3752355850301683E-004
  0.13300000000000001          4.2249768739566207E-004
  0.13410000000000000          4.0515876025892794E-004
  0.13520000000000004          3.8585704169236124E-004
  0.13630000000000003          3.6493802326731384E-004
  0.13740000000000002          3.4274495556019247E-004
  0.13850000000000001          3.1961637432686985E-004
  0.13960000000000000          2.9588220058940351E-004
  0.14070000000000005          2.7185722137801349E-004
  0.14180000000000004          2.4783282424323261E-004
  0.14290000000000003          2.2407170035876334E-004
  0.14400000000000002          2.0080701506230980E-004
  0.14510000000000001          1.7824988754000515E-004
  0.14620000000000000          1.5659604105167091E-004
  0.14730000000000004          1.3602030230686069E-004
  0.14840000000000003          1.1666723730741069E-004
  0.14950000000000002          9.8646014521364123E-005
  0.15060000000000001          8.2038539403583854E-005
  0.15170000000000000          6.6911350586451590E-005
  0.15280000000000005          5.3317005949793383E-005
  0.15390000000000004          4.1287032217951491E-005
  0.15500000000000003          3.0827479349682108E-005
  0.15610000000000002          2.1927849957137369E-005
  0.15720000000000001          1.4569156519428361E-005
  0.15830000000000000          8.7231564975809306E-006
  0.15940000000000004          4.3459458538563922E-006
  0.16050000000000003          1.3780226026938180E-006
  0.16160000000000002         -2.4445736812594987E-007
  0.16270000000000001         -5.8272041769669158E-007
  0.16380000000000000          2.9762259146082215E-007
  0.16490000000000005          2.3188813429442234E-006
  0.16600000000000004          5.3931639740767423E-006
  0.16710000000000003          9.4329898274736479E-006
  0.16820000000000002          1.4353227925312240E-005
  0.16930000000000001          2.0064968339283951E-005
  0.17040000000000000          2.6469488147995435E-005
  0.17150000000000004          3.3465494198026136E-005
  0.17260000000000003          4.0956707380246371E-005
  0.17370000000000002          4.8844911361811683E-005
  0.17480000000000001          5.7016808568732813E-005
  0.17590000000000000          6.5345666371285915E-005
  0.17700000000000005          7.3708921263460070E-005
  0.17810000000000004          8.1996739027090371E-005
  0.17920000000000003          9.0096647909376770E-005
  0.18030000000000002          9.7874144557863474E-005
  0.18140000000000001          1.0517692135181278E-004
  0.18250000000000000          1.1185730545548722E-004
  0.18360000000000004          1.1778470070566982E-004
  0.18470000000000003          1.2283075193408877E-004
  0.18580000000000002          1.2685265392065048E-004
  0.18690000000000001          1.2969832459930331E-004
  0.18800000000000000          1.3122805103193969E-004
  0.18910000000000005          1.3131753075867891E-004
  0.19020000000000004          1.2984430941287428E-004
  0.19130000000000003          1.2668383715208620E-004
  0.19240000000000002          1.2172643619123846E-004
  0.19350000000000001          1.1489172902656719E-004
  0.19460000000000005          1.0612174082780257E-004
  0.19570000000000004          9.5361865533050150E-005
  0.19680000000000003          8.2568476500455290E-005
  0.19790000000000002          6.7728811700362712E-005
  0.19900000000000001          5.0876187742687762E-005
  0.20010000000000000          3.2071668101707473E-005
  0.20120000000000005          1.1387322047085036E-005
  0.20230000000000004         -1.1083610843343195E-005
  0.20340000000000003         -3.5202578146709129E-005
  0.20450000000000002         -6.0785223467973992E-005
  0.20560000000000000         -8.7624081061221659E-005
  0.20670000000000005         -1.1550293129403144E-004
  0.20780000000000004         -1.4417996862903237E-004
  0.20890000000000003         -1.7336776363663375E-004
