 -0.12000000000000000          0.0000000000000000     
 -0.11889999999999999          0.0000000000000000     
 -0.11780000000000000          0.0000000000000000     
 -0.11670000000000000          0.0000000000000000     
 -0.11559999999999999          0.0000000000000000     
 -0.11449999999999999         -4.7138114742363311E-017
 -0.11340000000000000         -2.1095400219121428E-017
 -0.11230000000000000          4.2314211153424337E-016
 -0.11119999999999999          3.8865029464733782E-016
 -0.11009999999999999         -1.5070684424465185E-015
 -0.10900000000000000         -1.5402347586500895E-015
 -0.10790000000000000          3.1518879472808726E-015
 -0.10679999999999999         -2.5962125227836598E-015
 -0.10569999999999999         -2.0980724888550531E-014
 -0.10460000000000000          1.9584152211710691E-014
 -0.10349999999999999          1.4927420194030261E-013
 -0.10239999999999999          1.0072512621065247E-013
 -0.10130000000000000         -4.4125128355852750E-013
 -0.10020000000000000         -9.2485871391878582E-013
  -9.9099999999999994E-002     1.5698740931887646E-014
  -9.7999999999999990E-002     2.2977396894885427E-012
  -9.6899999999999986E-002     2.9257685683903301E-012
  -9.5799999999999996E-002    -4.8169064223446689E-013
  -9.4699999999999993E-002    -4.9346763654478654E-012
  -9.3599999999999989E-002    -5.5102380991378652E-012
  -9.2499999999999999E-002    -3.9033806568944396E-012
  -9.1399999999999995E-002    -4.2591321094964663E-012
  -9.0299999999999991E-002     2.9482807254593846E-012
  -8.9200000000000002E-002     3.3374261687590945E-011
  -8.8099999999999984E-002     6.5272440230579321E-011
  -8.6999999999999994E-002     2.8809571048227234E-011
  -8.5899999999999990E-002    -1.0447967491167276E-010
  -8.4799999999999986E-002    -2.2184516723644521E-010
  -8.3699999999999997E-002    -1.4757392530206914E-010
  -8.2599999999999993E-002     1.2218830114374413E-010
  -8.1499999999999989E-002     3.5198699510630149E-010
  -8.0399999999999999E-002     3.4754826794269889E-010
  -7.9299999999999995E-002     2.1205118216904850E-010
  -7.8199999999999992E-002     1.0780209364069648E-010
  -7.7100000000000002E-002    -1.6975870709146079E-010
  -7.5999999999999984E-002    -9.4301777497918238E-010
  -7.4899999999999994E-002    -1.7750486636103346E-009
  -7.3799999999999991E-002    -1.3915413266119003E-009
  -7.2699999999999987E-002     7.9025463950443964E-010
  -7.1599999999999997E-002     3.2675164796103218E-009
  -7.0499999999999993E-002     3.6555243276836791E-009
  -6.9399999999999989E-002     1.6367918131976467E-009
  -6.8300000000000000E-002    -4.4790202102795718E-010
  -6.7199999999999996E-002    -9.5142360656552682E-010
  -6.6099999999999992E-002    -1.7074436309272301E-009
  -6.5000000000000002E-002    -5.3032462865587604E-009
  -6.3899999999999985E-002    -9.7709413893198871E-009
  -6.2799999999999995E-002    -9.0779774808424918E-009
  -6.1699999999999991E-002    -7.4273753813969279E-010
  -6.0599999999999994E-002     9.5780547937351912E-009
  -5.9499999999999990E-002     1.4605309850423964E-008
  -5.8399999999999994E-002     1.5140351194986579E-008
  -5.7299999999999990E-002     1.7925557926901092E-008
  -5.6199999999999986E-002     2.2477639305407138E-008
  -5.5099999999999996E-002     1.6270510272420324E-008
  -5.3999999999999992E-002    -1.0705242026176620E-008
  -5.2899999999999989E-002    -4.9048484385139091E-008
  -5.1799999999999985E-002    -7.5202819971309509E-008
  -5.0699999999999995E-002    -7.4730259314037539E-008
  -4.9599999999999991E-002    -5.3250669651561111E-008
  -4.8499999999999988E-002    -2.1132745331442493E-008
  -4.7399999999999998E-002     2.3751489663936809E-008
  -4.6299999999999994E-002     8.7723364572411811E-008
  -4.5199999999999990E-002     1.5933153463265626E-007
  -4.4099999999999986E-002     2.0890763607894769E-007
  -4.2999999999999997E-002     2.1407204542356340E-007
  -4.1899999999999993E-002     1.7594965129319462E-007
  -4.0799999999999989E-002     1.0516885140532395E-007
  -3.9699999999999985E-002     5.0349373559299693E-009
  -3.8599999999999995E-002    -1.1608766214976640E-007
  -3.7499999999999992E-002    -2.2220305595510581E-007
  -3.6399999999999988E-002    -2.6125829322154459E-007
  -3.5299999999999984E-002    -2.0626951879876287E-007
  -3.4199999999999994E-002    -7.0552665931700176E-008
  -3.3099999999999991E-002     1.2329471132943581E-007
  -3.1999999999999987E-002     3.6530511238197505E-007
  -3.0899999999999997E-002     6.2365478470383096E-007
  -2.9799999999999993E-002     8.0204017649521120E-007
  -2.8699999999999989E-002     7.7297681855270639E-007
  -2.7599999999999986E-002     4.6973224243629375E-007
  -2.6499999999999996E-002    -8.0203875540973968E-008
  -2.5399999999999992E-002    -8.3026515085293795E-007
  -2.4299999999999988E-002    -1.7901603541758959E-006
  -2.3199999999999985E-002    -2.9795760383422021E-006
  -2.2099999999999995E-002    -4.3151326281076763E-006
  -2.0999999999999991E-002    -5.6054564083751757E-006
  -1.9899999999999987E-002    -6.7008018049818929E-006
  -1.8799999999999983E-002    -7.6311152952257544E-006
  -1.7699999999999994E-002    -8.5751062215422280E-006
  -1.6599999999999990E-002    -9.7260062830173410E-006
  -1.5499999999999986E-002    -1.1238608749408741E-005
  -1.4399999999999996E-002    -1.3294908967509400E-005
  -1.3299999999999992E-002    -1.6147145288414322E-005
  -1.2199999999999989E-002    -2.0053201296832412E-005
  -1.1099999999999985E-002    -2.5202813048963435E-005
  -9.9999999999999950E-003    -3.1742729333927855E-005
  -8.8999999999999913E-003    -3.9833663322497159E-005
  -7.7999999999999875E-003    -4.9622278311289847E-005
  -6.6999999999999837E-003    -6.1190650740172714E-005
  -5.5999999999999939E-003    -7.4647832661867142E-005
  -4.4999999999999901E-003    -9.0327725047245622E-005
  -3.3999999999999864E-003    -1.0883672803174704E-004
  -2.2999999999999826E-003    -1.3084286183584481E-004
  -1.1999999999999927E-003    -1.5686874394305050E-004
  -9.9999999999988987E-005    -1.8738508515525609E-004
   1.0000000000000148E-003    -2.2309034829959273E-004
   2.1000000000000185E-003    -2.6497908402234316E-004
   3.2000000000000084E-003    -3.1406016205437481E-004
   4.3000000000000121E-003    -3.7109811091795564E-004
   5.4000000000000159E-003    -4.3675160850398242E-004
   6.5000000000000058E-003    -5.1193247782066464E-004
   7.6000000000000234E-003    -5.9788831276819110E-004
   8.7000000000000133E-003    -6.9593230728060007E-004
   9.8000000000000032E-003    -8.0719724064692855E-004
   1.0900000000000021E-002    -9.3272700905799866E-004
   1.2000000000000011E-002    -1.0737279662862420E-003
   1.3100000000000001E-002    -1.2316047213971615E-003
   1.4200000000000018E-002    -1.4077855739742517E-003
   1.5300000000000008E-002    -1.6035997541621327E-003
   1.6400000000000026E-002    -1.8203039653599262E-003
   1.7500000000000016E-002    -2.0590277854353189E-003
   1.8600000000000005E-002    -2.3205075412988663E-003
   1.9700000000000023E-002    -2.6050342712551355E-003
   2.0800000000000013E-002    -2.9127923771739006E-003
   2.1900000000000003E-002    -3.2439257483929396E-003
   2.3000000000000020E-002    -3.5982229746878147E-003
   2.4100000000000010E-002    -3.9747213013470173E-003
   2.5200000000000000E-002    -4.3716221116483212E-003
   2.6300000000000018E-002    -4.7868257388472557E-003
   2.7400000000000008E-002    -5.2181943319737911E-003
   2.8500000000000025E-002    -5.6631509214639664E-003
   2.9600000000000015E-002    -6.1180251650512218E-003
   3.0700000000000005E-002    -6.5777343697845936E-003
   3.1800000000000023E-002    -7.0360354147851467E-003
   3.2900000000000013E-002    -7.4863298796117306E-003
   3.4000000000000002E-002    -7.9213231801986694E-003
   3.5100000000000020E-002    -8.3320522680878639E-003
   3.6200000000000010E-002    -8.7087498977780342E-003
   3.7300000000000028E-002    -9.0414108708500862E-003
   3.8400000000000017E-002    -9.3197161331772804E-003
   3.9500000000000007E-002    -9.5322960987687111E-003
   4.0600000000000025E-002    -9.6664857119321823E-003
   4.1700000000000015E-002    -9.7098853439092636E-003
   4.2800000000000005E-002    -9.6501456573605537E-003
   4.3900000000000022E-002    -9.4743911176919937E-003
   4.5000000000000012E-002    -9.1702155768871307E-003
   4.6100000000000002E-002    -8.7258527055382729E-003
   4.7200000000000020E-002    -8.1298956647515297E-003
   4.8300000000000010E-002    -7.3713865131139755E-003
   4.9400000000000027E-002    -6.4408779144287109E-003
   5.0500000000000017E-002    -5.3318608552217484E-003
   5.1600000000000007E-002    -4.0406319312751293E-003
   5.2700000000000025E-002    -2.5649822782725096E-003
   5.3800000000000014E-002    -9.0438808547332883E-004
   5.4900000000000004E-002     9.3863328220322728E-004
   5.6000000000000022E-002     2.9581098351627588E-003
   5.7100000000000012E-002     5.1435516215860844E-003
   5.8200000000000002E-002     7.4803181923925877E-003
   5.9300000000000019E-002     9.9510867148637772E-003
   6.0400000000000009E-002     1.2535046786069870E-002
   6.1500000000000027E-002     1.5208167023956776E-002
   6.2600000000000017E-002     1.7942070960998535E-002
   6.3700000000000007E-002     2.0705144852399826E-002
   6.4800000000000024E-002     2.3463333025574684E-002
   6.5900000000000014E-002     2.6177223771810532E-002
   6.7000000000000004E-002     2.8805049136281013E-002
   6.8100000000000022E-002     3.1305883079767227E-002
   6.9200000000000012E-002     3.3640392124652863E-002
   7.0300000000000029E-002     3.5767920315265656E-002
   7.1400000000000019E-002     3.7643145769834518E-002
   7.2500000000000009E-002     3.9220396429300308E-002
   7.3600000000000027E-002     4.0460217744112015E-002
   7.4700000000000016E-002     4.1330970823764801E-002
   7.5800000000000006E-002     4.1803009808063507E-002
   7.6900000000000024E-002     4.1846413165330887E-002
   7.8000000000000014E-002     4.1435416787862778E-002
   7.9100000000000004E-002     4.0551658719778061E-002
   8.0200000000000021E-002     3.9186395704746246E-002
   8.1300000000000011E-002     3.7339624017477036E-002
   8.2400000000000029E-002     3.5016983747482300E-002
   8.3500000000000019E-002     3.2229445874691010E-002
   8.4600000000000009E-002     2.8993975371122360E-002
   8.5700000000000026E-002     2.5335842743515968E-002
   8.6800000000000016E-002     2.1290713921189308E-002
   8.7900000000000006E-002     1.6904702410101891E-002
   8.9000000000000024E-002     1.2230117805302143E-002
   9.0100000000000013E-002     7.3209083639085293E-003
   9.1200000000000003E-002     2.2313222289085388E-003
   9.2300000000000021E-002    -2.9797293245792389E-003
   9.3400000000000011E-002    -8.2439817488193512E-003
   9.4500000000000028E-002    -1.3487668707966805E-002
   9.5600000000000018E-002    -1.8637765198945999E-002
   9.6700000000000008E-002    -2.3628400638699532E-002
   9.7800000000000026E-002    -2.8398616239428520E-002
   9.8900000000000016E-002    -3.2887421548366547E-002
  0.10000000000000001         -3.7033956497907639E-002
  0.10110000000000002         -4.0780615061521530E-002
  0.10220000000000001         -4.4074438512325287E-002
  0.10330000000000003         -4.6872533857822418E-002
  0.10440000000000002         -4.9146872013807297E-002
  0.10550000000000001         -5.0880927592515945E-002
  0.10660000000000003         -5.2060227841138840E-002
  0.10770000000000002         -5.2669443190097809E-002
  0.10880000000000001         -5.2701909095048904E-002
  0.10990000000000003         -5.2168175578117371E-002
  0.11100000000000002         -5.1094733178615570E-002
  0.11210000000000001         -4.9513045698404312E-002
  0.11320000000000002         -4.7456279397010803E-002
  0.11430000000000001         -4.4959988445043564E-002
  0.11540000000000003         -4.2063307017087936E-002
  0.11650000000000002         -3.8814373314380646E-002
  0.11760000000000001         -3.5271953791379929E-002
  0.11870000000000003         -3.1499419361352921E-002
  0.11980000000000002         -2.7556801214814186E-002
  0.12090000000000001         -2.3497620597481728E-002
  0.12200000000000003         -1.9372342154383659E-002
  0.12310000000000001         -1.5233824029564857E-002
  0.12420000000000003         -1.1139363050460815E-002
  0.12530000000000002         -7.1459482423961163E-003
  0.12640000000000001         -3.3010321203619242E-003
  0.12750000000000003          3.5939316148869693E-004
  0.12860000000000002          3.8036641199141741E-003
  0.12970000000000001          7.0008984766900539E-003
  0.13080000000000003          9.9231647327542305E-003
  0.13190000000000002          1.2548164464533329E-002
  0.13300000000000001          1.4861381612718105E-002
  0.13410000000000000          1.6856005415320396E-002
  0.13520000000000004          1.8531663343310356E-002
  0.13630000000000003          1.9893050193786621E-002
  0.13740000000000002          2.0946534350514412E-002
  0.13850000000000001          2.1698666736483574E-002
  0.13960000000000000          2.2160409018397331E-002
  0.14070000000000005          2.2351903840899467E-002
  0.14180000000000004          2.2299507632851601E-002
  0.14290000000000003          2.2026838734745979E-002
  0.14400000000000002          2.1551521494984627E-002
  0.14510000000000001          2.0891962572932243E-002
  0.14620000000000000          2.0075114443898201E-002
  0.14730000000000004          1.9133234396576881E-002
  0.14840000000000003          1.8093505874276161E-002
  0.14950000000000002          1.6973583027720451E-002
  0.15060000000000001          1.5789445489645004E-002
  0.15170000000000000          1.4564178884029388E-002
  0.15280000000000005          1.3323700986802578E-002
  0.15390000000000004          1.2086302042007446E-002
  0.15500000000000003          1.0862526483833790E-002
  0.15610000000000002          9.6639757975935936E-003
  0.15720000000000001          8.5054486989974976E-003
  0.15830000000000000          7.3987590149044991E-003
  0.15940000000000004          6.3486285507678986E-003
  0.16050000000000003          5.3583094850182533E-003
  0.16160000000000002          4.4360239990055561E-003
  0.16270000000000001          3.5901460796594620E-003
  0.16380000000000000          2.8197648935019970E-003
  0.16490000000000005          2.1166098304092884E-003
  0.16600000000000004          1.4782291837036610E-003
  0.16710000000000003          9.1196328867226839E-004
  0.16820000000000002          4.2255761218257248E-004
  0.16930000000000001          7.4927260129697970E-007
  0.17040000000000000         -3.6924963933415711E-004
  0.17150000000000004         -6.9180061109364033E-004
  0.17260000000000003         -9.5813570078462362E-004
  0.17370000000000002         -1.1643433244898915E-003
  0.17480000000000001         -1.3232326600700617E-003
  0.17590000000000000         -1.4529679901897907E-003
  0.17700000000000005         -1.5579133760184050E-003
  0.17810000000000004         -1.6291995998471975E-003
  0.17920000000000003         -1.6637373482808471E-003
  0.18030000000000002         -1.6728139016777277E-003
  0.18140000000000001         -1.6690941993147135E-003
  0.18250000000000000         -1.6532739391550422E-003
  0.18360000000000004         -1.6202786937355995E-003
  0.18470000000000003         -1.5733878826722503E-003
  0.18580000000000002         -1.5224980888888240E-003
  0.18690000000000001         -1.4695971040055156E-003
  0.18800000000000000         -1.4065073337405920E-003
  0.18910000000000005         -1.3310367939993739E-003
  0.19020000000000004         -1.2562104966491461E-003
  0.19130000000000003         -1.1949568288400769E-003
  0.19240000000000002         -1.1411496670916677E-003
  0.19350000000000001         -1.0770621011033654E-003
  0.19460000000000005         -9.9892111029475927E-004
  0.19570000000000004         -9.2395744286477566E-004
  0.19680000000000003         -8.6766137974336743E-004
  0.19790000000000002         -8.2329462748020887E-004
  0.19900000000000001         -7.7290949411690235E-004
  0.20010000000000000         -7.1303168078884482E-004
  0.20120000000000005         -6.5759191056713462E-004
  0.20230000000000004         -6.1567255761474371E-004
  0.20340000000000003         -5.7886086869984865E-004
  0.20450000000000002         -5.3643976571038365E-004
  0.20560000000000000         -4.9317500088363886E-004
  0.20670000000000005         -4.6122257481329143E-004
  0.20780000000000004         -4.3926908983848989E-004
  0.20890000000000003         -4.1259769932366908E-004
