 -0.12000000000000000          0.0000000000000000     
 -0.11889999999999999          0.0000000000000000     
 -0.11780000000000000          0.0000000000000000     
 -0.11670000000000000          0.0000000000000000     
 -0.11559999999999999          0.0000000000000000     
 -0.11449999999999999          0.0000000000000000     
 -0.11340000000000000         -5.0400041778919658E-011
 -0.11230000000000000          6.1749230728658233E-011
 -0.11119999999999999          4.5327128161964936E-010
 -0.11009999999999999         -3.4988217878506589E-010
 -0.10900000000000000         -1.9119192895544757E-009
 -0.10790000000000000          1.7202750335343353E-009
 -0.10679999999999999          4.5018269112517828E-009
 -0.10569999999999999         -1.5300422262498614E-008
 -0.10460000000000000         -2.0413299495203319E-008
 -0.10349999999999999          8.7564664852379792E-008
 -0.10239999999999999          1.8019845526850986E-007
 -0.10130000000000000         -1.8741263829724630E-007
 -0.10020000000000000         -8.7553388539163279E-007
  -9.9099999999999994E-002    -4.2462670535314828E-007
  -9.7999999999999990E-002     1.9266897197667276E-006
  -9.6899999999999986E-002     3.2367904623242794E-006
  -9.5799999999999996E-002    -3.3880974115163554E-007
  -9.4699999999999993E-002    -5.8439982240088284E-006
  -9.3599999999999989E-002    -5.2812638386967592E-006
  -9.2499999999999999E-002    -1.9170643383858987E-007
  -9.1399999999999995E-002    -1.8451584082868067E-006
  -9.0299999999999991E-002    -2.6707300548878266E-006
  -8.9200000000000002E-002     2.8631595341721550E-005
  -8.8099999999999984E-002     7.8958364611025900E-005
  -8.6999999999999994E-002     4.2796586058102548E-005
  -8.5899999999999990E-002    -1.4914677012711763E-004
  -8.4799999999999986E-002    -3.2458433997817338E-004
  -8.3699999999999997E-002    -1.6476234304718673E-004
  -8.2599999999999993E-002     3.3557356800884008E-004
  -8.1499999999999989E-002     6.7431660136207938E-004
  -8.0399999999999999E-002     4.2978354031220078E-004
  -7.9299999999999995E-002    -8.2553939137142152E-005
  -7.8199999999999992E-002    -2.9874112806282938E-004
  -7.7100000000000002E-002    -5.4656784050166607E-004
  -7.5999999999999984E-002    -1.6551497392356396E-003
  -7.4899999999999994E-002    -2.7830703184008598E-003
  -7.3799999999999991E-002    -1.0521232616156340E-003
  -7.2699999999999987E-002     4.4935764744877815E-003
  -7.1599999999999997E-002     9.1465143486857414E-003
  -7.0499999999999993E-002     6.3053136691451073E-003
  -6.9399999999999989E-002    -3.4620615188032389E-003
  -6.8300000000000000E-002    -1.0884708724915981E-002
  -6.7199999999999996E-002    -9.4780456274747849E-003
  -6.6099999999999992E-002    -5.2102589979767799E-003
  -6.5000000000000002E-002    -7.1801538579165936E-003
  -6.3899999999999985E-002    -9.6179414540529251E-003
  -6.2799999999999995E-002     4.5374687761068344E-003
  -6.1699999999999991E-002     3.5034582018852234E-002
  -6.0599999999999994E-002     5.1643263548612595E-002
  -5.9499999999999990E-002     2.7876717969775200E-002
  -5.8399999999999994E-002    -1.7235552892088890E-002
  -5.7299999999999990E-002    -3.6459300667047501E-002
  -5.6199999999999986E-002    -2.1838732063770294E-002
  -5.5099999999999996E-002    -2.5898382067680359E-002
  -5.3999999999999992E-002    -8.5925176739692688E-002
  -5.2899999999999989E-002   -0.14581152796745300     
  -5.1799999999999985E-002   -0.10320702940225601     
  -5.0699999999999995E-002     5.5662408471107483E-002
  -4.9599999999999991E-002    0.21879301965236664     
  -4.8499999999999988E-002    0.28160616755485535     
  -4.7399999999999998E-002    0.27288851141929626     
  -4.6299999999999994E-002    0.27942353487014771     
  -4.5199999999999990E-002    0.26516053080558777     
  -4.4099999999999986E-002     6.9870159029960632E-002
  -4.2999999999999997E-002   -0.36275497078895569     
  -4.1899999999999993E-002   -0.83790081739425659     
  -4.0799999999999989E-002    -1.0858997106552124     
  -3.9699999999999985E-002    -1.0451478958129883     
  -3.8599999999999995E-002   -0.84874588251113892     
  -3.7499999999999992E-002   -0.52859348058700562     
  -3.6399999999999988E-002    0.10935279726982117     
  -3.5299999999999984E-002     1.2088259458541870     
  -3.4199999999999994E-002     2.5600702762603760     
  -3.3099999999999991E-002     3.7126305103302002     
  -3.1999999999999987E-002     4.3307952880859375     
  -3.0899999999999997E-002     4.2512531280517578     
  -2.9799999999999993E-002     3.1980779170989990     
  -2.8699999999999989E-002    0.71900027990341187     
  -2.7599999999999986E-002    -3.4012081623077393     
  -2.6499999999999996E-002    -8.8298816680908203     
  -2.5399999999999992E-002    -15.052995681762695     
  -2.4299999999999988E-002    -21.975696563720703     
  -2.3199999999999985E-002    -29.821901321411133     
  -2.2099999999999995E-002    -38.386516571044922     
  -2.0999999999999991E-002    -46.829444885253906     
  -1.9899999999999987E-002    -54.606296539306641     
  -1.8799999999999983E-002    -62.441616058349609     
  -1.7699999999999994E-002    -71.946624755859375     
  -1.6599999999999990E-002    -84.316726684570312     
  -1.5499999999999986E-002    -99.913619995117188     
  -1.4399999999999996E-002    -119.32952880859375     
  -1.3299999999999992E-002    -144.33351135253906     
  -1.2199999999999989E-002    -177.18183898925781     
  -1.1099999999999985E-002    -219.20849609375000     
  -9.9999999999999950E-003    -270.78314208984375     
  -8.8999999999999913E-003    -332.75131225585938     
  -7.7999999999999875E-003    -407.32977294921875     
  -6.6999999999999837E-003    -497.22344970703125     
  -5.5999999999999939E-003    -604.44219970703125     
  -4.4999999999999901E-003    -730.77905273437500     
  -3.3999999999999864E-003    -879.17364501953125     
  -2.2999999999999826E-003    -1053.8870849609375     
  -1.1999999999999927E-003    -1259.2768554687500     
  -9.9999999999988987E-005    -1499.2478027343750     
   1.0000000000000148E-003    -1778.5860595703125     
   2.1000000000000185E-003    -2103.9992675781250     
   3.2000000000000084E-003    -2482.9211425781250     
   4.3000000000000121E-003    -2921.6083984375000     
   5.4000000000000159E-003    -3425.7775878906250     
   6.5000000000000058E-003    -4003.3630371093750     
   7.6000000000000234E-003    -4665.0761718750000     
   8.7000000000000133E-003    -5421.6616210937500     
   9.8000000000000032E-003    -6281.0473632812500     
   1.0900000000000021E-002    -7249.3037109375000     
   1.2000000000000011E-002    -8334.9160156250000     
   1.3100000000000001E-002    -9549.9746093750000     
   1.4200000000000018E-002    -10906.516601562500     
   1.5300000000000008E-002    -12413.589843750000     
   1.6400000000000026E-002    -14077.875000000000     
   1.7500000000000016E-002    -15906.944335937500     
   1.8600000000000005E-002    -17907.876953125000     
   1.9700000000000023E-002    -20085.835937500000     
   2.0800000000000013E-002    -22442.062500000000     
   2.1900000000000003E-002    -24975.960937500000     
   2.3000000000000020E-002    -27685.445312500000     
   2.4100000000000010E-002    -30564.197265625000     
   2.5200000000000000E-002    -33598.359375000000     
   2.6300000000000018E-002    -36772.003906250000     
   2.7400000000000008E-002    -40065.781250000000     
   2.8500000000000025E-002    -43456.617187500000     
   2.9600000000000015E-002    -46913.609375000000     
   3.0700000000000005E-002    -50396.144531250000     
   3.1800000000000023E-002    -53858.453125000000     
   3.2900000000000013E-002    -57245.203125000000     
   3.4000000000000002E-002    -60495.191406250000     
   3.5100000000000020E-002    -63544.535156250000     
   3.6200000000000010E-002    -66315.789062500000     
   3.7300000000000028E-002    -68731.718750000000     
   3.8400000000000017E-002    -70698.476562500000     
   3.9500000000000007E-002    -72129.898437500000     
   4.0600000000000025E-002    -72936.531250000000     
   4.1700000000000015E-002    -73008.781250000000     
   4.2800000000000005E-002    -72244.328125000000     
   4.3900000000000022E-002    -70553.554687500000     
   4.5000000000000012E-002    -67831.398437500000     
   4.6100000000000002E-002    -63986.140625000000     
   4.7200000000000020E-002    -58934.078125000000     
   4.8300000000000010E-002    -52589.328125000000     
   4.9400000000000027E-002    -44883.652343750000     
   5.0500000000000017E-002    -35755.835937500000     
   5.1600000000000007E-002    -25189.472656250000     
   5.2700000000000025E-002    -13177.883789062500     
   5.3800000000000014E-002     292.50741577148438     
   5.4900000000000004E-002     15193.751953125000     
   5.6000000000000022E-002     31470.970703125000     
   5.7100000000000012E-002     49017.230468750000     
   5.8200000000000002E-002     67702.062500000000     
   5.9300000000000019E-002     87405.515625000000     
   6.0400000000000009E-002     107946.55468750000     
   6.1500000000000027E-002     129138.46093750000     
   6.2600000000000017E-002     150724.09375000000     
   6.3700000000000007E-002     172445.62500000000     
   6.4800000000000024E-002     193993.57812500000     
   6.5900000000000014E-002     215084.67187500000     
   6.7000000000000004E-002     235401.29687500000     
   6.8100000000000022E-002     254609.64062500000     
   6.9200000000000012E-002     272365.21875000000     
   7.0300000000000029E-002     288293.75000000000     
   7.1400000000000019E-002     302073.93750000000     
   7.2500000000000009E-002     313361.34375000000     
   7.3600000000000027E-002     321868.03125000000     
   7.4700000000000016E-002     327328.09375000000     
   7.5800000000000006E-002     329493.03125000000     
   7.6900000000000024E-002     328133.46875000000     
   7.8000000000000014E-002     323060.31250000000     
   7.9100000000000004E-002     314130.90625000000     
   8.0200000000000021E-002     301319.31250000000     
   8.1300000000000011E-002     284683.62500000000     
   8.2400000000000029E-002     264285.71875000000     
   8.3500000000000019E-002     240188.76562500000     
   8.4600000000000009E-002     212509.31250000000     
   8.5700000000000026E-002     181510.07812500000     
   8.6800000000000016E-002     147574.46875000000     
   8.7900000000000006E-002     111106.65625000000     
   8.9000000000000024E-002     72490.921875000000     
   9.0100000000000013E-002     32134.402343750000     
   9.1200000000000003E-002    -9476.7880859375000     
   9.2300000000000021E-002    -51815.343750000000     
   9.3400000000000011E-002    -94335.851562500000     
   9.4500000000000028E-002    -136437.45312500000     
   9.5600000000000018E-002    -177513.65625000000     
   9.6700000000000008E-002    -217022.62500000000     
   9.7800000000000026E-002    -254478.06250000000     
   9.8900000000000016E-002    -289451.53125000000     
  0.10000000000000001         -321477.31250000000     
  0.10110000000000002         -350020.62500000000     
  0.10220000000000001         -374666.37500000000     
  0.10330000000000003         -395085.09375000000     
  0.10440000000000002         -411187.25000000000     
  0.10550000000000001         -422823.06250000000     
  0.10660000000000003         -429867.00000000000     
  0.10770000000000002         -432218.31250000000     
  0.10880000000000001         -429869.15625000000     
  0.10990000000000003         -422936.37500000000     
  0.11100000000000002         -411677.56250000000     
  0.11210000000000001         -396350.46875000000     
  0.11320000000000002         -377265.03125000000     
  0.11430000000000001         -354778.28125000000     
  0.11540000000000003         -329240.34375000000     
  0.11650000000000002         -300980.53125000000     
  0.11760000000000001         -270457.34375000000     
  0.11870000000000003         -238250.01562500000     
  0.11980000000000002         -204940.89062500000     
  0.12090000000000001         -170936.31250000000     
  0.12200000000000003         -136592.93750000000     
  0.12310000000000001         -102316.94531250000     
  0.12420000000000003         -68593.617187500000     
  0.12530000000000002         -35893.886718750000     
  0.12640000000000001         -4611.9990234375000     
  0.12750000000000003          24958.294921875000     
  0.12860000000000002          52596.570312500000     
  0.12970000000000001          78080.132812500000     
  0.13080000000000003          101243.10156250000     
  0.13190000000000002          121938.14062500000     
  0.13300000000000001          140007.29687500000     
  0.13410000000000000          155354.65625000000     
  0.13520000000000004          168010.95312500000     
  0.13630000000000003          178103.75000000000     
  0.13740000000000002          185776.95312500000     
  0.13850000000000001          191089.95312500000     
  0.13960000000000000          194064.81250000000     
  0.14070000000000005          194821.60937500000     
  0.14180000000000004          193609.14062500000     
  0.14290000000000003          190727.29687500000     
  0.14400000000000002          186393.14062500000     
  0.14510000000000001          180747.85937500000     
  0.14620000000000000          173956.54687500000     
  0.14730000000000004          166244.64062500000     
  0.14840000000000003          157848.09375000000     
  0.14950000000000002          148946.35937500000     
  0.15060000000000001          139732.21875000000     
  0.15170000000000000          130444.53906250000     
  0.15280000000000005          121276.35156250000     
  0.15390000000000004          112294.69531250000     
  0.15500000000000003          103514.32031250000     
  0.15610000000000002          95027.359375000000     
  0.15720000000000001          87057.382812500000     
  0.15830000000000000          79797.320312500000     
  0.15940000000000004          73253.164062500000     
  0.16050000000000003          67302.804687500000     
  0.16160000000000002          61886.367187500000     
  0.16270000000000001          57084.410156250000     
  0.16380000000000000          52991.453125000000     
  0.16490000000000005          49582.617187500000     
  0.16600000000000004          46753.441406250000     
  0.16710000000000003          44428.402343750000     
  0.16820000000000002          42565.437500000000     
  0.16930000000000001          41061.078125000000     
  0.17040000000000000          39754.378906250000     
  0.17150000000000004          38563.214843750000     
  0.17260000000000003          37530.132812500000     
  0.17370000000000002          36662.968750000000     
  0.17480000000000001          35754.308593750000     
  0.17590000000000000          34486.058593750000     
  0.17700000000000005          32698.652343750000     
  0.17810000000000004          30477.123046875000     
  0.17920000000000003          27916.580078125000     
  0.18030000000000002          24890.218750000000     
  0.18140000000000001          21124.466796875000     
  0.18250000000000000          16456.287109375000     
  0.18360000000000004          10915.222656250000     
  0.18470000000000003          4552.8188476562500     
  0.18580000000000002         -2686.4289550781250     
  0.18690000000000001         -10874.712890625000     
  0.18800000000000000         -19958.398437500000     
  0.18910000000000005         -29840.339843750000     
  0.19020000000000004         -40549.054687500000     
  0.19130000000000003         -52177.835937500000     
  0.19240000000000002         -64663.660156250000     
  0.19350000000000001         -77696.195312500000     
  0.19460000000000005         -90968.453125000000     
  0.19570000000000004         -104448.87500000000     
  0.19680000000000003         -118227.23437500000     
  0.19790000000000002         -132174.26562500000     
  0.19900000000000001         -145879.28125000000     
  0.20010000000000000         -158962.70312500000     
  0.20120000000000005         -171297.23437500000     
  0.20230000000000004         -182834.54687500000     
  0.20340000000000003         -193342.73437500000     
  0.20450000000000002         -202445.57812500000     
  0.20560000000000000         -209885.39062500000     
  0.20670000000000005         -215591.85937500000     
  0.20780000000000004         -219467.70312500000     
  0.20890000000000003         -221202.96875000000     
