 -0.12000000000000000          0.0000000000000000
 -0.11889999999999999          0.0000000000000000
 -0.11780000000000000          0.0000000000000000
 -0.11670000000000000          0.0000000000000000
 -0.11559999999999999          0.0000000000000000
 -0.11449999999999999          0.0000000000000000
 -0.11340000000000000          0.0000000000000000
 -0.11230000000000000          0.0000000000000000
 -0.11119999999999999          0.0000000000000000
 -0.11009999999999999          2.4000243043723909E-024
 -0.10900000000000000         -1.4065609243422292E-023
 -0.10790000000000000         -2.0158553149739546E-023
 -0.10679999999999999          2.3609309374847976E-022
 -0.10569999999999999          1.4395345844284347E-022
 -0.10460000000000000         -2.2927548265087603E-021
 -0.10349999999999999         -1.7718398552374085E-021
 -0.10239999999999999          1.5905074054609365E-020
 -0.10130000000000000          2.0831317496513377E-020
 -0.10020000000000000         -7.9272530886592629E-020
  -9.9099999999999994E-002    -1.7510790597348767E-019
  -9.7999999999999990E-002     2.4450934164366410E-019
  -9.6899999999999986E-002     1.0396057637354736E-018
  -9.5799999999999996E-002    -4.3666153678335418E-020
  -9.4699999999999993E-002    -4.2844899297883450E-018
  -9.3599999999999989E-002    -4.3870235162076618E-018
  -9.2499999999999999E-002     1.0761626386759790E-017
  -9.1399999999999995E-002     2.7231454127180614E-017
  -9.0299999999999991E-002    -3.8410239277379472E-018
  -8.9200000000000002E-002    -8.9253820415876152E-017
  -8.8099999999999984E-002    -9.5308808969543917E-017
  -8.6999999999999994E-002     1.3636484003009468E-016
  -8.5899999999999990E-002     4.2458881733837411E-016
  -8.4799999999999986E-002     1.7978667381699610E-016
  -8.3699999999999997E-002    -8.1178134181370768E-016
  -8.2599999999999993E-002    -1.4590202867552815E-015
  -8.1499999999999989E-002    -9.5568953963469394E-017
  -8.0399999999999999E-002     2.9471615662371659E-015
  -7.9299999999999995E-002     4.1579653064257975E-015
  -7.8199999999999992E-002     1.5542355779934926E-016
  -7.7100000000000002E-002    -7.2640385121391059E-015
  -7.5999999999999984E-002    -1.1160692460271057E-014
  -7.4899999999999994E-002    -5.5982376835639076E-015
  -7.3799999999999991E-002     9.6390672272303815E-015
  -7.2699999999999987E-002     2.9311097413152812E-014
  -7.1599999999999997E-002     4.0210707214025782E-014
  -7.0499999999999993E-002     1.6085592737359947E-014
  -6.9399999999999989E-002    -6.4578320447226945E-014
  -6.8300000000000000E-002    -1.6458464094631226E-013
  -6.7199999999999996E-002    -1.5898697289240538E-013
  -6.6099999999999992E-002     6.9542082595935861E-014
  -6.5000000000000002E-002     4.3670809698505286E-013
  -6.3899999999999985E-002     5.9355802608032637E-013
  -6.2799999999999995E-002     1.9792633786271108E-013
  -6.1699999999999991E-002    -6.5364776308599049E-013
  -6.0599999999999994E-002    -1.3335565290928386E-012
  -5.9499999999999990E-002    -1.1716837352779286E-012
  -5.8399999999999994E-002    -7.9708165252618396E-014
  -5.7299999999999990E-002     1.3725822778712371E-012
  -5.6199999999999986E-002     2.4587810086573736E-012
  -5.5099999999999996E-002     2.6846101296856828E-012
  -5.3999999999999992E-002     1.6823699551526961E-012
  -5.2899999999999989E-002    -8.1627743843751266E-013
  -5.1799999999999985E-002    -4.3534754794183339E-012
  -5.0699999999999995E-002    -7.1745396082456558E-012
  -4.9599999999999991E-002    -7.0335443198843439E-012
  -4.8499999999999988E-002    -3.1000924483742809E-012
  -4.7399999999999998E-002     3.2307240650092384E-012
  -4.6299999999999994E-002     9.8256264235985213E-012
  -4.5199999999999990E-002     1.5510910264526778E-011
  -4.4099999999999986E-002     1.9168097664667982E-011
  -4.2999999999999997E-002     1.7401267926597797E-011
  -4.1899999999999993E-002     5.4186152093071982E-012
  -4.0799999999999989E-002    -1.7505807567430587E-011
  -3.9699999999999985E-002    -4.3707103908330325E-011
  -3.8599999999999995E-002    -6.0405805357710562E-011
  -3.7499999999999992E-002    -5.8461228913397889E-011
  -3.6399999999999988E-002    -3.7237418010205303E-011
  -3.5299999999999984E-002    -1.0056439188332877E-012
  -3.4199999999999994E-002     4.6556775795680849E-011
  -3.3099999999999991E-002     1.0134660471949886E-010
  -3.1999999999999987E-002     1.5312372203535318E-010
  -3.0899999999999997E-002     1.8410425961512544E-010
  -2.9799999999999993E-002     1.7434099996993524E-010
  -2.8699999999999989E-002     1.0730445698658997E-010
  -2.7599999999999986E-002    -2.7167370783565126E-011
  -2.6499999999999996E-002    -2.2586352232956131E-010
  -2.5399999999999992E-002    -4.5923601033059924E-010
  -2.4299999999999988E-002    -6.6683614186047180E-010
  -2.3199999999999985E-002    -7.7470652115607663E-010
  -2.2099999999999995E-002    -7.2147510188358410E-010
  -2.0999999999999991E-002    -4.6297954359175719E-010
  -1.9899999999999987E-002     4.8686315395896074E-011
  -1.8799999999999983E-002     8.7559598460629218E-010
  -1.7699999999999994E-002     2.0656956145614913E-009
  -1.6599999999999990E-002     3.6150298310388962E-009
  -1.5499999999999986E-002     5.4777977709363768E-009
  -1.4399999999999996E-002     7.6281594374449924E-009
  -1.3299999999999992E-002     1.0106920633745631E-008
  -1.2199999999999989E-002     1.3000418519482082E-008
  -1.1099999999999985E-002     1.6389771317903978E-008
  -9.9999999999999950E-003     2.0351539120611051E-008
  -8.8999999999999913E-003     2.5020808536169170E-008
  -7.7999999999999875E-003     3.0640421755379066E-008
  -6.6999999999999837E-003     3.7540761610443951E-008
  -5.5999999999999939E-003     4.6092228700445048E-008
  -4.4999999999999901E-003     5.6697938788374813E-008
  -3.3999999999999864E-003     6.9819961368011718E-008
  -2.2999999999999826E-003     8.5982861719458015E-008
  -1.1999999999999927E-003     1.0575467257467608E-007
  -9.9999999999988987E-005     1.2977062624486280E-007
   1.0000000000000148E-003     1.5880006287716242E-007
   2.1000000000000185E-003     1.9377658588837221E-007
   3.2000000000000084E-003     2.3574870056108921E-007
   4.3000000000000121E-003     2.8586336497937737E-007
   5.4000000000000159E-003     3.4549262295513472E-007
   6.5000000000000058E-003     4.1639924575065379E-007
   7.6000000000000234E-003     5.0070991619577399E-007
   8.7000000000000133E-003     6.0067503682148526E-007
   9.8000000000000032E-003     7.1852855398901738E-007
   1.0900000000000021E-002     8.5670558291894849E-007
   1.2000000000000011E-002     1.0182302503380924E-006
   1.3100000000000001E-002     1.2068155683664372E-006
   1.4200000000000018E-002     1.4265610843722243E-006
   1.5300000000000008E-002     1.6816612742331927E-006
   1.6400000000000026E-002     1.9764922853937605E-006
   1.7500000000000016E-002     2.3160046112025157E-006
   1.8600000000000005E-002     2.7058697469328763E-006
   1.9700000000000023E-002     3.1523013603873551E-006
   2.0800000000000013E-002     3.6617577734432416E-006
   2.1900000000000003E-002     4.2409105844853912E-006
   2.3000000000000020E-002     4.8967035581881646E-006
   2.4100000000000010E-002     5.6363919611612801E-006
   2.5200000000000000E-002     6.4675514295231551E-006
   2.6300000000000018E-002     7.3983101174235344E-006
   2.7400000000000008E-002     8.4371695265872404E-006
   2.8500000000000025E-002     9.5923987828427926E-006
   2.9600000000000015E-002     1.0871393897105008E-005
   3.0700000000000005E-002     1.2280674127396196E-005
   3.1800000000000023E-002     1.3826835129293613E-005
   3.2900000000000013E-002     1.5516658095293678E-005
   3.4000000000000002E-002     1.7356378521071747E-005
   3.5100000000000020E-002     1.9350500224390998E-005
   3.6200000000000010E-002     2.1500565708265640E-005
   3.7300000000000028E-002     2.3805874661775306E-005
   3.8400000000000017E-002     2.6264791813446209E-005
   3.9500000000000007E-002     2.8874557756353170E-005
   4.0600000000000025E-002     3.1629919249098748E-005
   4.1700000000000015E-002     3.4520886401878670E-005
   4.2800000000000005E-002     3.7533718568738550E-005
   4.3900000000000022E-002     4.0650800656294450E-005
   4.5000000000000012E-002     4.3851923692272976E-005
   4.6100000000000002E-002     4.7113557229749858E-005
   4.7200000000000020E-002     5.0408241804689169E-005
   4.8300000000000010E-002     5.3703450248576701E-005
   4.9400000000000027E-002     5.6960790971061215E-005
   5.0500000000000017E-002     6.0137062973808497E-005
   5.1600000000000007E-002     6.3184386817738414E-005
   5.2700000000000025E-002     6.6053216869477183E-005
   5.3800000000000014E-002     6.8693130742758512E-005
   5.4900000000000004E-002     7.1048583777155727E-005
   5.6000000000000022E-002     7.3058239649981260E-005
   5.7100000000000012E-002     7.4656425567809492E-005
   5.8200000000000002E-002     7.5778298196382821E-005
   5.9300000000000019E-002     7.6363350672181696E-005
   6.0400000000000009E-002     7.6350959716364741E-005
   6.1500000000000027E-002     7.5680043664760888E-005
   6.2600000000000017E-002     7.4290699558332562E-005
   6.3700000000000007E-002     7.2126291343010962E-005
   6.4800000000000024E-002     6.9134359364397824E-005
   6.5900000000000014E-002     6.5274653024971485E-005
   6.7000000000000004E-002     6.0516395024023950E-005
   6.8100000000000022E-002     5.4834639740874991E-005
   6.9200000000000012E-002     4.8213762056548148E-005
   7.0300000000000029E-002     4.0648686990607530E-005
   7.1400000000000019E-002     3.2143318094313145E-005
   7.2500000000000009E-002     2.2719379558111541E-005
   7.3600000000000027E-002     1.2419542144925799E-005
   7.4700000000000016E-002     1.2999498721910641E-006
   7.5800000000000006E-002    -1.0573607141850516E-005
   7.6900000000000024E-002    -2.3127007807488553E-005
   7.8000000000000014E-002    -3.6272365832701325E-005
   7.9100000000000004E-002    -4.9900707381311804E-005
   8.0200000000000021E-002    -6.3879197114147246E-005
   8.1300000000000011E-002    -7.8068966104183346E-005
   8.2400000000000029E-002    -9.2329479230102152E-005
   8.3500000000000019E-002    -1.0651915363268927E-004
   8.4600000000000009E-002    -1.2048178905388340E-004
   8.5700000000000026E-002    -1.3405198114924133E-004
   8.6800000000000016E-002    -1.4705614012200385E-004
   8.7900000000000006E-002    -1.5932494716253132E-004
   8.9000000000000024E-002    -1.7069785099010915E-004
   9.0100000000000013E-002    -1.8102343892678618E-004
   9.1200000000000003E-002    -1.9015996076632291E-004
   9.2300000000000021E-002    -1.9797444110736251E-004
   9.3400000000000011E-002    -2.0434112229850143E-004
   9.4500000000000028E-002    -2.0914402557536960E-004
   9.5600000000000018E-002    -2.1228661353234202E-004
   9.6700000000000008E-002    -2.1370408649090677E-004
   9.7800000000000026E-002    -2.1336275676731020E-004
   9.8900000000000016E-002    -2.1124539489392191E-004
  0.10000000000000001         -2.0734123245347291E-004
  0.10110000000000002         -2.0165446039754897E-004
  0.10220000000000001         -1.9422535842750221E-004
  0.10330000000000003         -1.8513285613153130E-004
  0.10440000000000002         -1.7448280414100736E-004
  0.10550000000000001         -1.6238655371125787E-004
  0.10660000000000003         -1.4896292123012245E-004
  0.10770000000000002         -1.3435386063065380E-004
  0.10880000000000001         -1.1872287723235786E-004
  0.10990000000000003         -1.0224476864095777E-004
  0.11100000000000002         -8.5107589256949723E-005
  0.11210000000000001         -6.7504857724998146E-005
  0.11320000000000002         -4.9638554628472775E-005
  0.11430000000000001         -3.1700627005193383E-005
  0.11540000000000003         -1.3867998859495856E-005
  0.11650000000000002          3.6796936910832301E-006
  0.11760000000000001          2.0755676814587787E-005
  0.11870000000000003          3.7172223528614268E-005
  0.11980000000000002          5.2768093155464157E-005
  0.12090000000000001          6.7419648985378444E-005
  0.12200000000000003          8.1020327343139797E-005
  0.12310000000000001          9.3462229415308684E-005
  0.12420000000000003          1.0464232764206827E-004
  0.12530000000000002          1.1448757868492976E-004
  0.12640000000000001          1.2295464694034308E-004
  0.12750000000000003          1.3002175546716899E-004
  0.12860000000000002          1.3568082067649812E-004
  0.12970000000000001          1.3993972970638424E-004
  0.13080000000000003          1.4282950724009424E-004
  0.13190000000000002          1.4439698134083301E-004
  0.13300000000000001          1.4469222514890134E-004
  0.13410000000000000          1.4377430488821119E-004
  0.13520000000000004          1.4172776718623936E-004
  0.13630000000000003          1.3865939399693161E-004
  0.13740000000000002          1.3467829558067024E-004
  0.13850000000000001          1.2987622176297009E-004
  0.13960000000000000          1.2433981464710087E-004
  0.14070000000000005          1.1817199265351519E-004
  0.14180000000000004          1.1149718920933083E-004
  0.14290000000000003          1.0443668725201860E-004
  0.14400000000000002          9.7088923212140799E-005
  0.14510000000000001          8.9537119492888451E-005
  0.14620000000000000          8.1867954577319324E-005
  0.14730000000000004          7.4173607572447509E-005
  0.14840000000000003          6.6536398662719876E-005
  0.14950000000000002          5.9022575442213565E-005
  0.15060000000000001          5.1691928092623129E-005
  0.15170000000000000          4.4604756112676114E-005
  0.15280000000000005          3.7810161302331835E-005
  0.15390000000000004          3.1335050152847543E-005
  0.15500000000000003          2.5193719920935109E-005
  0.15610000000000002          1.9407980289543048E-005
  0.15720000000000001          1.4008869584358763E-005
  0.15830000000000000          9.0142611952614971E-006
  0.15940000000000004          4.4139214878669009E-006
  0.16050000000000003          1.8248809396936849E-007
  0.16160000000000002         -3.6933522551407805E-006
  0.16270000000000001         -7.2129078034777194E-006
  0.16380000000000000         -1.0381635547673795E-005
  0.16490000000000005         -1.3224219401308801E-005
  0.16600000000000004         -1.5773013728903607E-005
  0.16710000000000003         -1.8051268853014335E-005
  0.16820000000000002         -2.0076655346201733E-005
  0.16930000000000001         -2.1873094738111831E-005
  0.17040000000000000         -2.3470351152354851E-005
  0.17150000000000004         -2.4889499400160275E-005
  0.17260000000000003         -2.6139674446312711E-005
  0.17370000000000002         -2.7233312721364200E-005
  0.17480000000000001         -2.8198055588291027E-005
  0.17590000000000000         -2.9064805858070031E-005
  0.17700000000000005         -2.9844593882444315E-005
  0.17810000000000004         -3.0527891794918105E-005
  0.17920000000000003         -3.1108109396882355E-005
  0.18030000000000002         -3.1596962799085304E-005
  0.18140000000000001         -3.2011656003305689E-005
  0.18250000000000000         -3.2352887501474470E-005
  0.18360000000000004         -3.2604792068013921E-005
  0.18470000000000003         -3.2752377592260018E-005
  0.18580000000000002         -3.2790791010484099E-005
  0.18690000000000001         -3.2715226552681997E-005
  0.18800000000000000         -3.2510160963283852E-005
  0.18910000000000005         -3.2156851375475526E-005
  0.19020000000000004         -3.1644434784539044E-005
  0.19130000000000003         -3.0966046324465424E-005
  0.19240000000000002         -3.0103425160632469E-005
  0.19350000000000001         -2.9028862627455965E-005
  0.19460000000000005         -2.7722806407837197E-005
  0.19570000000000004         -2.6186033210251480E-005
  0.19680000000000003         -2.4421535272267647E-005
  0.19790000000000002         -2.2418244043365121E-005
  0.19900000000000001         -2.0153725927229971E-005
  0.20010000000000000         -1.7619366190047003E-005
  0.20120000000000005         -1.4825733160250820E-005
  0.20230000000000004         -1.1789043128374033E-005
  0.20340000000000003         -8.5169585872790776E-006
  0.20450000000000002         -5.0127414397138637E-006
  0.20560000000000000         -1.2914111948703066E-006
  0.20670000000000005          2.6186130526184570E-006
  0.20780000000000004          6.6868137764686253E-006
  0.20890000000000003          1.0886770724027883E-005
