 -0.12000000000000000          0.0000000000000000     
 -0.11889999999999999          0.0000000000000000     
 -0.11780000000000000          0.0000000000000000     
 -0.11670000000000000          0.0000000000000000     
 -0.11559999999999999          0.0000000000000000     
 -0.11449999999999999          0.0000000000000000     
 -0.11340000000000000          2.0533333888023789E-018
 -0.11230000000000000         -9.6978272444683659E-019
 -0.11119999999999999         -2.4896556522876157E-017
 -0.11009999999999999          3.8446655903847119E-018
 -0.10900000000000000          1.6964716004277009E-016
 -0.10790000000000000          4.5645831286480896E-017
 -0.10679999999999999         -8.1148789783704327E-016
 -0.10569999999999999         -6.2107976173372327E-016
 -0.10460000000000000          2.8311582865283213E-015
 -0.10349999999999999          3.8672724927740678E-015
 -0.10239999999999999         -6.9812070112708433E-015
 -0.10130000000000000         -1.5927687161266905E-014
 -0.10020000000000000          1.0528550924702226E-014
  -9.9099999999999994E-002     4.8914997350995790E-014
  -9.7999999999999990E-002    -1.9296198014396112E-016
  -9.6899999999999986E-002    -1.2244410129910732E-013
  -9.5799999999999996E-002    -6.3902665982124712E-014
  -9.4699999999999993E-002     2.6441319294669141E-013
  -9.3599999999999989E-002     3.0360422834628531E-013
  -9.2499999999999999E-002    -4.5358909770559785E-013
  -9.1399999999999995E-002    -1.0170514604113112E-012
  -9.0299999999999991E-002     3.3441641383163967E-013
  -8.9200000000000002E-002     2.5192716836264228E-012
  -8.8099999999999984E-002     1.2114461994325310E-012
  -8.6999999999999994E-002    -4.2207617609313353E-012
  -8.5899999999999990E-002    -5.6304110679361585E-012
  -8.4799999999999986E-002     3.6200521746909686E-012
  -8.3699999999999997E-002     1.2731346359096118E-011
  -8.2599999999999993E-002     2.5865685461534671E-012
  -8.1499999999999989E-002    -1.9879710724812760E-011
  -8.0399999999999999E-002    -1.6754585566158831E-011
  -7.9299999999999995E-002     2.3728892115104649E-011
  -7.8199999999999992E-002     4.3523365467201813E-011
  -7.7100000000000002E-002    -1.4428613685779634E-011
  -7.5999999999999984E-002    -8.7705287477035654E-011
  -7.4899999999999994E-002    -3.8046114869683123E-011
  -7.3799999999999991E-002     1.2360054646443075E-010
  -7.2699999999999987E-002     1.6119595935837339E-010
  -7.1599999999999997E-002    -7.3054569338371067E-011
  -7.0499999999999993E-002    -3.0860139443866785E-010
  -6.9399999999999989E-002    -1.2512159364153064E-010
  -6.8300000000000000E-002     3.5897543271268262E-010
  -6.7199999999999996E-002     4.3188269627236764E-010
  -6.6099999999999992E-002    -2.1898780011575525E-010
  -6.5000000000000002E-002    -7.6476258659141649E-010
  -6.3899999999999985E-002    -1.9117754601616355E-010
  -6.2799999999999995E-002     9.9250596630184873E-010
  -6.1699999999999991E-002     9.8562491501752447E-010
  -6.0599999999999994E-002    -7.2366668213419416E-010
  -5.9499999999999990E-002    -1.9550783214583589E-009
  -5.8399999999999994E-002    -4.7684445281248600E-010
  -5.7299999999999990E-002     2.2874777627635012E-009
  -5.6199999999999986E-002     2.3349304711928198E-009
  -5.5099999999999996E-002    -1.2367699087079131E-009
  -5.3999999999999992E-002    -3.8300762561505053E-009
  -5.2899999999999989E-002    -1.1312184522438429E-009
  -5.1799999999999985E-002     3.9615639657597512E-009
  -5.0699999999999995E-002     4.0896361852560403E-009
  -4.9599999999999991E-002    -2.0810602130438838E-009
  -4.8499999999999988E-002    -6.4193659277123061E-009
  -4.7399999999999998E-002    -1.9149266616835803E-009
  -4.6299999999999994E-002     6.3436567110386477E-009
  -4.5199999999999990E-002     6.7491825461729604E-009
  -4.4099999999999986E-002    -2.4029531697777884E-009
  -4.2999999999999997E-002    -9.0706375743820900E-009
  -4.1899999999999993E-002    -3.7450771372959935E-009
  -4.0799999999999989E-002     6.4202163585491689E-009
  -3.9699999999999985E-002     7.1582162419758788E-009
  -3.8599999999999995E-002    -2.1859374310650992E-009
  -3.7499999999999992E-002    -7.3949233403425296E-009
  -3.6399999999999988E-002    -5.5782339858367891E-010
  -3.5299999999999984E-002     7.8189099639303095E-009
  -3.4199999999999994E-002     4.8943626929087714E-009
  -3.3099999999999991E-002    -4.5495256451033583E-009
  -3.1999999999999987E-002    -6.0348859243219977E-009
  -3.0899999999999997E-002     6.7646771517715365E-010
  -2.9799999999999993E-002     1.0920313542328586E-009
  -2.8699999999999989E-002    -7.9048918522062195E-009
  -2.7599999999999986E-002    -8.6123987941277846E-009
  -2.6499999999999996E-002     8.9776222012005746E-009
  -2.5399999999999992E-002     2.3491937284347841E-008
  -2.4299999999999988E-002     8.4769391506256397E-009
  -2.3199999999999985E-002    -2.2924863785078742E-008
  -2.2099999999999995E-002    -2.7294481341755272E-008
  -2.0999999999999991E-002     6.6336358628404923E-009
  -1.9899999999999987E-002     3.2311099573689717E-008
  -1.8799999999999983E-002     6.4897083262849264E-009
  -1.7699999999999994E-002    -4.2041389036739929E-008
  -1.6599999999999990E-002    -4.2548272460862790E-008
  -1.5499999999999986E-002     1.8262500844912211E-008
  -1.4399999999999996E-002     6.7635063771831483E-008
  -1.3299999999999992E-002     4.0074834117831415E-008
  -1.2199999999999989E-002    -3.2658142856689665E-008
  -1.1099999999999985E-002    -6.3675152262021584E-008
  -9.9999999999999950E-003    -2.7594023066512818E-008
  -8.8999999999999913E-003     1.2863289100550901E-008
  -7.7999999999999875E-003     3.0492040004048704E-009
  -6.6999999999999837E-003    -3.0385891136575083E-008
  -5.5999999999999939E-003    -3.1253453158797129E-008
  -4.4999999999999901E-003    -6.5345440170005986E-010
  -3.3999999999999864E-003     1.7209336178325430E-008
  -2.2999999999999826E-003     1.3958820765935798E-008
  -1.1999999999999927E-003     1.9847220755764283E-008
  -9.9999999999988987E-005     2.7095438781543635E-008
   1.0000000000000148E-003    -2.1017847018356406E-008
   2.1000000000000185E-003    -1.2724080988846254E-007
   3.2000000000000084E-003    -1.8503178011997079E-007
   4.3000000000000121E-003    -1.0012693252292593E-007
   5.4000000000000159E-003     5.1084796837130853E-008
   6.5000000000000058E-003     8.9381138934641058E-008
   7.6000000000000234E-003    -2.8437932897418250E-008
   8.7000000000000133E-003    -1.3312919122654421E-007
   9.8000000000000032E-003    -7.1118897437827400E-008
   1.0900000000000021E-002     7.0415396180578682E-008
   1.2000000000000011E-002     6.9725949458643299E-008
   1.3100000000000001E-002    -1.2723158704375237E-007
   1.4200000000000018E-002    -3.2007503136810556E-007
   1.5300000000000008E-002    -3.2110406777974276E-007
   1.6400000000000026E-002    -1.7085086767565372E-007
   1.7500000000000016E-002    -4.2699191737938236E-008
   1.8600000000000005E-002    -6.1057896516558685E-009
   1.9700000000000023E-002    -1.4537476999976207E-008
   2.0800000000000013E-002    -3.0750463508866233E-008
   2.1900000000000003E-002    -6.1410176499521185E-008
   2.3000000000000020E-002    -1.3567122891799954E-007
   2.4100000000000010E-002    -1.7325562851056020E-007
   2.5200000000000000E-002    -1.3841889767718385E-007
   2.6300000000000018E-002    -1.6799722857285815E-007
   2.7400000000000008E-002    -3.1057288651936688E-007
   2.8500000000000025E-002    -4.2512940012784384E-007
   2.9600000000000015E-002    -2.9887016239626973E-007
   3.0700000000000005E-002     8.5751246103882295E-008
   3.1800000000000023E-002     3.5422519317762635E-007
   3.2900000000000013E-002     1.7332178003925947E-007
   3.4000000000000002E-002    -1.8677162927360769E-007
   3.5100000000000020E-002    -1.9079966762092226E-007
   3.6200000000000010E-002     1.4114765178874222E-007
   3.7300000000000028E-002     3.3741980587365106E-007
   3.8400000000000017E-002     2.0269264666694653E-007
   3.9500000000000007E-002    -1.0332566091619810E-007
   4.0600000000000025E-002    -1.8791666889228509E-007
   4.1700000000000015E-002     2.1001800121212000E-007
   4.2800000000000005E-002     6.2978779169498011E-007
   4.3900000000000022E-002     6.0105190868853242E-007
   4.5000000000000012E-002     3.6240544432075694E-007
   4.6100000000000002E-002     3.7696267440878728E-007
   4.7200000000000020E-002     6.4864144633247633E-007
   4.8300000000000010E-002     1.0196787343375036E-006
   4.9400000000000027E-002     1.2129731885579531E-006
   5.0500000000000017E-002     8.4065698047197657E-007
   5.1600000000000007E-002     1.5111562845504523E-007
   5.2700000000000025E-002     1.7351818826227827E-007
   5.3800000000000014E-002     9.6560540896462044E-007
   5.4900000000000004E-002     1.8345300532018882E-006
   5.6000000000000022E-002     1.6898375179152936E-006
   5.7100000000000012E-002     1.6077402165137755E-007
   5.8200000000000002E-002    -3.8939498381296289E-007
   5.9300000000000019E-002     7.5938180543744238E-007
   6.0400000000000009E-002     1.7566474070918048E-006
   6.1500000000000027E-002     1.8014086435869103E-006
   6.2600000000000017E-002     1.0435395552121918E-006
   6.3700000000000007E-002    -1.0235392267077259E-007
   6.4800000000000024E-002    -5.9858774648091639E-007
   6.5900000000000014E-002    -4.5522747882387193E-007
   6.7000000000000004E-002    -5.6643710166781602E-008
   6.8100000000000022E-002     7.8418344173769583E-007
   6.9200000000000012E-002     9.7147164979105582E-007
   7.0300000000000029E-002    -1.3501323792297626E-007
   7.1400000000000019E-002    -1.7423097915525432E-006
   7.2500000000000009E-002    -2.5623171495681163E-006
   7.3600000000000027E-002    -1.6728967011658824E-006
   7.4700000000000016E-002     7.7155135613793391E-007
   7.5800000000000006E-002     2.1258022115944186E-006
   7.6900000000000024E-002    -2.7761153376104630E-008
   7.8000000000000014E-002    -4.1893008528859355E-006
   7.9100000000000004E-002    -6.0880829551024362E-006
   8.0200000000000021E-002    -3.5119462609145558E-006
   8.1300000000000011E-002     9.5831478574837092E-007
   8.2400000000000029E-002     2.7035205221181968E-006
   8.3500000000000019E-002    -3.6594056496142002E-007
   8.4600000000000009E-002    -5.0599128371686675E-006
   8.5700000000000026E-002    -6.7029131969320588E-006
   8.6800000000000016E-002    -4.0408535824099090E-006
   8.7900000000000006E-002     2.3222347067530791E-007
   8.9000000000000024E-002     2.7519199647940695E-006
   9.0100000000000013E-002     1.9253764094173675E-006
   9.1200000000000003E-002    -1.5130433439480839E-006
   9.2300000000000021E-002    -5.1959486881969497E-006
   9.3400000000000011E-002    -6.1367818489088677E-006
   9.4500000000000028E-002    -1.8568211999081541E-006
   9.5600000000000018E-002     5.1881816034438089E-006
   9.6700000000000008E-002     7.4474537541391328E-006
   9.7800000000000026E-002     1.5207656360871624E-006
   9.8900000000000016E-002    -6.5734107010939624E-006
  0.10000000000000001         -8.0209629231831059E-006
  0.10110000000000002         -1.1068584626627853E-006
  0.10220000000000001          7.1840731834527105E-006
  0.10330000000000003          9.0568100858945400E-006
  0.10440000000000002          3.6926044231222477E-006
  0.10550000000000001         -2.9662362521776231E-006
  0.10660000000000003         -6.1953710428497288E-006
  0.10770000000000002         -2.7868161396327196E-006
  0.10880000000000001          6.4031364672700875E-006
  0.10990000000000003          1.2668777344515547E-005
  0.11100000000000002          8.8353508544969372E-006
  0.11210000000000001         -2.6542945761320880E-006
  0.11320000000000002         -1.0714793461374938E-005
  0.11430000000000001         -7.5117063715879340E-006
  0.11540000000000003          3.4075569601554889E-006
  0.11650000000000002          1.1888637345691677E-005
  0.11760000000000001          1.0737579032138456E-005
  0.11870000000000003          1.8913175381385372E-006
  0.11980000000000002         -6.2739054556004703E-006
  0.12090000000000001         -6.9191692091408186E-006
  0.12200000000000003         -9.8477255505713401E-007
  0.12310000000000001          5.6485255299776327E-006
  0.12420000000000003          7.3272176450700499E-006
  0.12530000000000002          2.7682378913596040E-006
  0.12640000000000001         -3.8135437989694765E-006
  0.12750000000000003         -7.1716108323016670E-006
  0.12860000000000002         -4.8032666200015228E-006
  0.12970000000000001          2.0657873847085284E-006
  0.13080000000000003          7.8726852734689601E-006
  0.13190000000000002          6.6917036747327074E-006
  0.13300000000000001         -1.5796846355442540E-006
  0.13410000000000000         -1.0202632438449655E-005
  0.13520000000000004         -1.0626271432556678E-005
  0.13630000000000003         -1.7877489426609827E-006
  0.13740000000000002          7.9682258729008026E-006
  0.13850000000000001          9.0913972599082626E-006
  0.13960000000000000          9.0756930148927495E-007
  0.14070000000000005         -7.8976981967571191E-006
  0.14180000000000004         -8.8590941231814213E-006
  0.14290000000000003         -2.2433775939134648E-006
  0.14400000000000002          4.4337434701446909E-006
  0.14510000000000001          5.4095585255709011E-006
  0.14620000000000000          1.4999662880654796E-006
  0.14730000000000004         -3.1251461223291699E-006
  0.14840000000000003         -5.7156721595674753E-006
  0.14950000000000002         -5.1451766012178268E-006
  0.15060000000000001         -9.1727747530967463E-007
  0.15170000000000000          5.2096911531407386E-006
  0.15280000000000005          7.9653564171167091E-006
  0.15390000000000004          2.8993085834372323E-006
  0.15500000000000003         -6.3761053752386943E-006
  0.15610000000000002         -9.9072658485965803E-006
  0.15720000000000001         -2.7632895580609329E-006
  0.15830000000000000          7.8398015830316581E-006
  0.15940000000000004          9.8906602943316102E-006
  0.16050000000000003          9.6539019978081342E-007
  0.16160000000000002         -8.4591783888754435E-006
  0.16270000000000001         -8.3188579083071090E-006
  0.16380000000000000         -4.3834219809468777E-007
  0.16490000000000005          5.8292953326599672E-006
  0.16600000000000004          5.6554317779955454E-006
  0.16710000000000003          2.4926016521931160E-006
  0.16820000000000002          3.4953589533870399E-007
  0.16930000000000001         -1.7773849094737670E-006
  0.17040000000000000         -5.0143385124101769E-006
  0.17150000000000004         -5.2210762078175321E-006
  0.17260000000000003          1.0967509069814696E-006
  0.17370000000000002          8.3182167145423591E-006
  0.17480000000000001          6.5574035943427589E-006
  0.17590000000000000         -4.0164313759305514E-006
  0.17700000000000005         -1.0662982276699040E-005
  0.17810000000000004         -4.1296048038930167E-006
  0.17920000000000003          8.0785430327523500E-006
  0.18030000000000002          1.0823442607943434E-005
  0.18140000000000001          1.2142089644839871E-006
  0.18250000000000000         -8.1029002103605308E-006
  0.18360000000000004         -6.5904546318051871E-006
  0.18470000000000003          9.1100980625924421E-007
  0.18580000000000002          3.2664167974871816E-006
  0.18690000000000001         -1.4285348015619093E-007
  0.18800000000000000         -7.7908691764605464E-007
  0.18910000000000005          3.3414492008887464E-006
  0.19020000000000004          4.0828081182553433E-006
  0.19130000000000003         -2.6631098535290221E-006
  0.19240000000000002         -7.8683524407097138E-006
  0.19350000000000001         -2.0511738512141164E-006
  0.19460000000000005          8.1771850091172382E-006
  0.19570000000000004          8.3881704995292239E-006
  0.19680000000000003         -3.1020429105410585E-006
  0.19790000000000002         -1.1486828043416608E-005
  0.19900000000000001         -5.2549671636370476E-006
  0.20010000000000000          6.9192524279060308E-006
  0.20120000000000005          8.8472424977226183E-006
  0.20230000000000004         -2.1674166816865181E-007
  0.20340000000000003         -6.3118245634541381E-006
  0.20450000000000002         -2.0715724531328306E-006
  0.20560000000000000          3.6482995255937567E-006
  0.20670000000000005          1.1562940471776528E-006
  0.20780000000000004         -4.3046825339843053E-006
  0.20890000000000003         -2.2312767669063760E-006
