 -0.12000000000000000          0.0000000000000000     
 -0.11889999999999999          0.0000000000000000     
 -0.11780000000000000          0.0000000000000000     
 -0.11670000000000000          0.0000000000000000     
 -0.11559999999999999          0.0000000000000000     
 -0.11449999999999999          0.0000000000000000     
 -0.11340000000000000          0.0000000000000000     
 -0.11230000000000000         -6.2610237604676322E-021
 -0.11119999999999999          3.3993552728363535E-020
 -0.11009999999999999          6.6132611759822930E-020
 -0.10900000000000000         -5.4153059011403205E-019
 -0.10790000000000000         -6.1443637644928938E-019
 -0.10679999999999999          4.7189384223909960E-018
 -0.10569999999999999          6.3246411615539258E-018
 -0.10460000000000000         -2.7583629581697516E-017
 -0.10349999999999999         -5.4655591706249330E-017
 -0.10239999999999999          1.0399251133545620E-016
 -0.10130000000000000          3.4698270579886946E-016
 -0.10020000000000000         -1.4753875308648560E-016
  -9.9099999999999994E-002    -1.5457923535752618E-015
  -9.7999999999999990E-002    -9.7597073770507329E-016
  -9.6899999999999986E-002     4.4037437745328943E-015
  -9.5799999999999996E-002     7.8493399727577219E-015
  -9.4699999999999993E-002    -4.8829111598275993E-015
  -9.3599999999999989E-002    -2.7708587309912928E-014
  -9.2499999999999999E-002    -1.8216561614194104E-014
  -9.1399999999999995E-002     4.7607642654490245E-014
  -9.0299999999999991E-002     9.6576690871916226E-014
  -8.9200000000000002E-002     1.2177732543335821E-014
  -8.8099999999999984E-002    -1.7227948126245785E-013
  -8.6999999999999994E-002    -2.3096270989481082E-013
  -8.5899999999999990E-002    -2.4176143129540223E-014
  -8.4799999999999986E-002     2.9305095676501747E-013
  -8.3699999999999997E-002     5.2691011276362332E-013
  -8.2599999999999993E-002     6.3044215030741424E-013
  -8.1499999999999989E-002     1.6605397883551892E-013
  -8.0399999999999999E-002    -1.7508367802440694E-012
  -7.9299999999999995E-002    -4.2292181041958532E-012
  -7.8199999999999992E-002    -2.6307530372887689E-012
  -7.7100000000000002E-002     6.7765294244070962E-012
  -7.5999999999999984E-002     1.6768978566839010E-011
  -7.4899999999999994E-002     9.4722181487316703E-012
  -7.3799999999999991E-002    -2.1455797208358440E-011
  -7.2699999999999987E-002    -4.7976862066478887E-011
  -7.1599999999999997E-002    -2.5492191690901223E-011
  -7.0499999999999993E-002     4.8791470863562836E-011
  -6.9399999999999989E-002     1.0636778957628934E-010
  -6.8300000000000000E-002     6.7245285728656512E-011
  -6.7199999999999996E-002    -6.2492719332674085E-011
  -6.6099999999999992E-002    -1.7933655949153859E-010
  -6.5000000000000002E-002    -1.8214096897395393E-010
  -6.3899999999999985E-002    -5.3834523644491483E-011
  -6.2799999999999995E-002     1.6733647800748486E-010
  -6.1699999999999991E-002     4.2062867078307420E-010
  -6.0599999999999994E-002     5.4232984769697623E-010
  -5.9499999999999990E-002     2.4110641261287924E-010
  -5.8399999999999994E-002    -5.9657090378806288E-010
  -5.7299999999999990E-002    -1.4758189115227083E-009
  -5.6199999999999986E-002    -1.4452158358935208E-009
  -5.5099999999999996E-002    -6.1618689317644026E-011
  -5.3999999999999992E-002     1.8243615507174127E-009
  -5.2899999999999989E-002     2.6890758508812951E-009
  -5.1799999999999985E-002     1.9513255455905210E-009
  -5.0699999999999995E-002     5.6001797643645546E-010
  -4.9599999999999991E-002    -4.4649889341386029E-010
  -4.8499999999999988E-002    -1.5386935059424900E-009
  -4.7399999999999998E-002    -3.8974610205855242E-009
  -4.6299999999999994E-002    -6.8687482368545716E-009
  -4.5199999999999990E-002    -7.3373165321299894E-009
  -4.4099999999999986E-002    -2.7024305015999062E-009
  -4.2999999999999997E-002     5.8674229919120080E-009
  -4.1899999999999993E-002     1.4143274107425441E-008
  -4.0799999999999989E-002     1.8593002693023664E-008
  -3.9699999999999985E-002     1.8176214311438343E-008
  -3.8599999999999995E-002     1.2447225472556056E-008
  -3.7499999999999992E-002     1.8125816125813543E-010
  -3.6399999999999988E-002    -1.8150178249243254E-008
  -3.5299999999999984E-002    -3.7640244698877723E-008
  -3.4199999999999994E-002    -5.1196611394743741E-008
  -3.3099999999999991E-002    -5.4442018893041677E-008
  -3.1999999999999987E-002    -4.5790706337811571E-008
  -3.0899999999999997E-002    -2.1594480870135158E-008
  -2.9799999999999993E-002     2.3919096037161580E-008
  -2.8699999999999989E-002     8.9255181023872865E-008
  -2.7599999999999986E-002     1.5776092254782270E-007
  -2.6499999999999996E-002     2.0408906209468114E-007
  -2.5399999999999992E-002     2.0895853936053754E-007
  -2.4299999999999988E-002     1.6317748929850495E-007
  -2.3199999999999985E-002     5.7765031868939332E-008
  -2.2099999999999995E-002    -1.1934363897125877E-007
  -2.0999999999999991E-002    -3.6735693242917478E-007
  -1.9899999999999987E-002    -6.5828862716443837E-007
  -1.8799999999999983E-002    -9.5249799869634444E-007
  -1.7699999999999994E-002    -1.2331397556408774E-006
  -1.6599999999999990E-002    -1.5156784911596333E-006
  -1.5499999999999986E-002    -1.8179899825554457E-006
  -1.4399999999999996E-002    -2.1342257241485640E-006
  -1.3299999999999992E-002    -2.4554797164455522E-006
  -1.2199999999999989E-002    -2.8128310987085570E-006
  -1.1099999999999985E-002    -3.2786551855679136E-006
  -9.9999999999999950E-003    -3.9164569898275658E-006
  -8.8999999999999913E-003    -4.7460521273023915E-006
  -7.7999999999999875E-003    -5.7738966461329255E-006
  -6.6999999999999837E-003    -7.0468727244588081E-006
  -5.5999999999999939E-003    -8.6552090579061769E-006
  -4.4999999999999901E-003    -1.0685330380511004E-005
  -3.3999999999999864E-003    -1.3193864106142428E-005
  -2.2999999999999826E-003    -1.6232277630479075E-005
  -1.1999999999999927E-003    -1.9867367882397957E-005
  -9.9999999999988987E-005    -2.4159875465556979E-005
   1.0000000000000148E-003    -2.9159136829548515E-005
   2.1000000000000185E-003    -3.4966607927344739E-005
   3.2000000000000084E-003    -4.1794479329837486E-005
   4.3000000000000121E-003    -4.9908048822544515E-005
   5.4000000000000159E-003    -5.9492904256330803E-005
   6.5000000000000058E-003    -7.0635280280839652E-005
   7.6000000000000234E-003    -8.3490594988688827E-005
   8.7000000000000133E-003    -9.8421442089602351E-005
   9.8000000000000032E-003    -1.1589031055336818E-004
   1.0900000000000021E-002    -1.3620454410556704E-004
   1.2000000000000011E-002    -1.5946163330227137E-004
   1.3100000000000001E-002    -1.8580016330815852E-004
   1.4200000000000018E-002    -2.1563786140177399E-004
   1.5300000000000008E-002    -2.4959549773484468E-004
   1.6400000000000026E-002    -2.8818240389227867E-004
   1.7500000000000016E-002    -3.3164946944452822E-004
   1.8600000000000005E-002    -3.8019099156372249E-004
   1.9700000000000023E-002    -4.3416593689471483E-004
   2.0800000000000013E-002    -4.9409136408939958E-004
   2.1900000000000003E-002    -5.6045816745609045E-004
   2.3000000000000020E-002    -6.3363852677866817E-004
   2.4100000000000010E-002    -7.1391486562788486E-004
   2.5200000000000000E-002    -8.0139504279941320E-004
   2.6300000000000018E-002    -8.9594401651993394E-004
   2.7400000000000008E-002    -9.9730689544230700E-004
   2.8500000000000025E-002    -1.1055137729272246E-003
   2.9600000000000015E-002    -1.2208726257085800E-003
   3.0700000000000005E-002    -1.3433343265205622E-003
   3.1800000000000023E-002    -1.4719418250024319E-003
   3.2900000000000013E-002    -1.6051133861765265E-003
   3.4000000000000002E-002    -1.7418166389688849E-003
   3.5100000000000020E-002    -1.8816899973899126E-003
   3.6200000000000010E-002    -2.0240340381860733E-003
   3.7300000000000028E-002    -2.1668011322617531E-003
   3.8400000000000017E-002    -2.3066902067512274E-003
   3.9500000000000007E-002    -2.4406628217548132E-003
   4.0600000000000025E-002    -2.5666169822216034E-003
   4.1700000000000015E-002    -2.6825799141079187E-003
   4.2800000000000005E-002    -2.7860079426318407E-003
   4.3900000000000022E-002    -2.8734521474689245E-003
   4.5000000000000012E-002    -2.9405930545181036E-003
   4.6100000000000002E-002    -2.9829405248165131E-003
   4.7200000000000020E-002    -2.9964447021484375E-003
   4.8300000000000010E-002    -2.9776641167700291E-003
   4.9400000000000027E-002    -2.9234657995402813E-003
   5.0500000000000017E-002    -2.8305684681981802E-003
   5.1600000000000007E-002    -2.6945413555949926E-003
   5.2700000000000025E-002    -2.5100281927734613E-003
   5.3800000000000014E-002    -2.2729921620339155E-003
   5.4900000000000004E-002    -1.9819894805550575E-003
   5.6000000000000022E-002    -1.6375775448977947E-003
   5.7100000000000012E-002    -1.2389760231599212E-003
   5.8200000000000002E-002    -7.8263168688863516E-004
   5.9300000000000019E-002    -2.6605828315950930E-004
   6.0400000000000009E-002     3.0978277209214866E-004
   6.1500000000000027E-002     9.4034778885543346E-004
   6.2600000000000017E-002     1.6192655311897397E-003
   6.3700000000000007E-002     2.3426029365509748E-003
   6.4800000000000024E-002     3.1084427610039711E-003
   6.5900000000000014E-002     3.9126160554587841E-003
   6.7000000000000004E-002     4.7463565133512020E-003
   6.8100000000000022E-002     5.5983718484640121E-003
   6.9200000000000012E-002     6.4564463682472706E-003
   7.0300000000000029E-002     7.3092021048069000E-003
   7.1400000000000019E-002     8.1470347940921783E-003
   7.2500000000000009E-002     8.9598121121525764E-003
   7.3600000000000027E-002     9.7363013774156570E-003
   7.4700000000000016E-002     1.0461952537298203E-002
   7.5800000000000006E-002     1.1119253933429718E-002
   7.6900000000000024E-002     1.1692530475556850E-002
   7.8000000000000014E-002     1.2169541791081429E-002
   7.9100000000000004E-002     1.2542326934635639E-002
   8.0200000000000021E-002     1.2804729864001274E-002
   8.1300000000000011E-002     1.2946132570505142E-002
   8.2400000000000029E-002     1.2951401062309742E-002
   8.3500000000000019E-002     1.2807855382561684E-002
   8.4600000000000009E-002     1.2512275949120522E-002
   8.5700000000000026E-002     1.2069839984178543E-002
   8.6800000000000016E-002     1.1485288850963116E-002
   8.7900000000000006E-002     1.0756996460258961E-002
   8.9000000000000024E-002     9.8808985203504562E-003
   9.0100000000000013E-002     8.8590821251273155E-003
   9.1200000000000003E-002     7.7037313021719456E-003
   9.2300000000000021E-002     6.4324694685637951E-003
   9.3400000000000011E-002     5.0627966411411762E-003
   9.4500000000000028E-002     3.6097036208957434E-003
   9.5600000000000018E-002     2.0853602327406406E-003
   9.6700000000000008E-002     5.0210044719278812E-004
   9.7800000000000026E-002    -1.1221462627872825E-003
   9.8900000000000016E-002    -2.7612056583166122E-003
  0.10000000000000001         -4.3848771601915359E-003
  0.10110000000000002         -5.9688426554203033E-003
  0.10220000000000001         -7.4990112334489822E-003
  0.10330000000000003         -8.9647853747010231E-003
  0.10440000000000002         -1.0348555631935596E-002
  0.10550000000000001         -1.1624462902545929E-002
  0.10660000000000003         -1.2766249477863312E-002
  0.10770000000000002         -1.3756968080997467E-002
  0.10880000000000001         -1.4592433348298073E-002
  0.10990000000000003         -1.5271651558578014E-002
  0.11100000000000002         -1.5789858996868134E-002
  0.11210000000000001         -1.6136147081851959E-002
  0.11320000000000002         -1.6299765557050705E-002
  0.11430000000000001         -1.6278428956866264E-002
  0.11540000000000003         -1.6080338507890701E-002
  0.11650000000000002         -1.5720121562480927E-002
  0.11760000000000001         -1.5209822915494442E-002
  0.11870000000000003         -1.4557717368006706E-002
  0.11980000000000002         -1.3769546523690224E-002
  0.12090000000000001         -1.2854223139584064E-002
  0.12200000000000003         -1.1828187853097916E-002
  0.12310000000000001         -1.0715528391301632E-002
  0.12420000000000003         -9.5411157235503197E-003
  0.12530000000000002         -8.3213206380605698E-003
  0.12640000000000001         -7.0666251704096794E-003
  0.12750000000000003         -5.7890783064067364E-003
  0.12860000000000002         -4.5067346654832363E-003
  0.12970000000000001         -3.2402493525296450E-003
  0.13080000000000003         -2.0082616247236729E-003
  0.13190000000000002         -8.2754134200513363E-004
  0.13300000000000001          2.8958404436707497E-004
  0.13410000000000000          1.3373353285714984E-003
  0.13520000000000004          2.3130902554839849E-003
  0.13630000000000003          3.2106623984873295E-003
  0.13740000000000002          4.0174401365220547E-003
  0.13850000000000001          4.7213407233357430E-003
  0.13960000000000000          5.3202258422970772E-003
  0.14070000000000005          5.8214557357132435E-003
  0.14180000000000004          6.2324330210685730E-003
  0.14290000000000003          6.5547265112400055E-003
  0.14400000000000002          6.7861070856451988E-003
  0.14510000000000001          6.9272792898118496E-003
  0.14620000000000000          6.9845234975218773E-003
  0.14730000000000004          6.9660982117056847E-003
  0.14840000000000003          6.8802759051322937E-003
  0.14950000000000002          6.7366589792072773E-003
  0.15060000000000001          6.5460242331027985E-003
  0.15170000000000000          6.3158264383673668E-003
  0.15280000000000005          6.0471333563327789E-003
  0.15390000000000004          5.7403403334319592E-003
  0.15500000000000003          5.4052192717790604E-003
  0.15610000000000002          5.0597940571606159E-003
  0.15720000000000001          4.7173053026199341E-003
  0.15830000000000000          4.3770605698227882E-003
  0.15940000000000004          4.0317280218005180E-003
  0.16050000000000003          3.6825709976255894E-003
  0.16160000000000002          3.3429600298404694E-003
  0.16270000000000001          3.0259750783443451E-003
  0.16380000000000000          2.7326841372996569E-003
  0.16490000000000005          2.4569611996412277E-003
  0.16600000000000004          2.1968751680105925E-003
  0.16710000000000003          1.9566975533962250E-003
  0.16820000000000002          1.7388616688549519E-003
  0.16930000000000001          1.5404754085466266E-003
  0.17040000000000000          1.3602891704067588E-003
  0.17150000000000004          1.2027636403217912E-003
  0.17260000000000003          1.0699867270886898E-003
  0.17370000000000002          9.5379061531275511E-004
  0.17480000000000001          8.4302021423354745E-004
  0.17590000000000000          7.3713442543521523E-004
  0.17700000000000005          6.4557255245745182E-004
  0.17810000000000004          5.7123322039842606E-004
  0.17920000000000003          5.0202285638079047E-004
  0.18030000000000002          4.2404164560139179E-004
  0.18140000000000001          3.3825685386545956E-004
  0.18250000000000000          2.5595386978238821E-004
  0.18360000000000004          1.7914288036990911E-004
  0.18470000000000003          9.4407274445984513E-005
  0.18580000000000002         -1.0647468116076197E-005
  0.18690000000000001         -1.3210199540480971E-004
  0.18800000000000000         -2.5818924768827856E-004
  0.18910000000000005         -3.8851168937981129E-004
  0.19020000000000004         -5.3529063006862998E-004
  0.19130000000000003         -7.0515723200514913E-004
  0.19240000000000002         -8.9012505486607552E-004
  0.19350000000000001         -1.0810390813276172E-003
  0.19460000000000005         -1.2803027639165521E-003
  0.19570000000000004         -1.4951657503843307E-003
  0.19680000000000003         -1.7226012423634529E-003
  0.19790000000000002         -1.9509923877194524E-003
  0.19900000000000001         -2.1768601145595312E-003
  0.20010000000000000         -2.4081435985863209E-003
  0.20120000000000005         -2.6471959426999092E-003
  0.20230000000000004         -2.8800980653613806E-003
  0.20340000000000003         -3.0900170095264912E-003
  0.20450000000000002         -3.2769402023404837E-003
  0.20560000000000000         -3.4540526103228331E-003
  0.20670000000000005         -3.6241875495761633E-003
  0.20780000000000004         -3.7700165994465351E-003
  0.20890000000000003         -3.8736464921385050E-003
