 -0.12000000000000000          0.0000000000000000     
 -0.11889999999999999          0.0000000000000000     
 -0.11780000000000000          5.7030726807738574E-009
 -0.11670000000000000          8.2583655469647965E-009
 -0.11559999999999999         -1.8503472531961052E-008
 -0.11449999999999999         -4.2331798510986118E-008
 -0.11340000000000000          9.5338297256830629E-009
 -0.11230000000000000          7.8906559508595819E-008
 -0.11119999999999999          1.9130149908619387E-008
 -0.11009999999999999         -6.3409835604488762E-008
 -0.10900000000000000          1.2427011597537785E-007
 -0.10790000000000000          3.5611469684226904E-007
 -0.10679999999999999         -1.5840153366752929E-007
 -0.10569999999999999         -1.3460042964652530E-006
 -0.10460000000000000         -1.4365760989676346E-006
 -0.10349999999999999          8.8288072674913565E-007
 -0.10239999999999999          3.5998518796986900E-006
 -0.10130000000000000          2.9310426725714933E-006
 -0.10020000000000000         -1.2493960639403667E-006
  -9.9099999999999994E-002    -4.0318263927474618E-006
  -9.7999999999999990E-002    -1.9913502455892740E-006
  -9.6899999999999986E-002     1.0668976528904750E-006
  -9.5799999999999996E-002    -7.9752464898774633E-007
  -9.4699999999999993E-002    -5.5093532864702865E-006
  -9.3599999999999989E-002    -4.0031914068094920E-006
  -9.2499999999999999E-002     6.0873658185300883E-006
  -9.1399999999999995E-002     1.3960720934846904E-005
  -9.0299999999999991E-002     9.4116785476217046E-006
  -8.9200000000000002E-002    -6.6615768901101546E-007
  -8.8099999999999984E-002     8.1195440770898131E-007
  -8.6999999999999994E-002     1.6846805010573007E-005
  -8.5899999999999990E-002     2.9433842428261414E-005
  -8.4799999999999986E-002     2.3248945581144653E-005
  -8.3699999999999997E-002     7.9552219176548533E-006
  -8.2599999999999993E-002     5.9520525610423647E-006
  -8.1499999999999989E-002     2.1798556190333329E-005
  -8.0399999999999999E-002     3.7580262869596481E-005
  -7.9299999999999995E-002     4.0596627513878047E-005
  -7.8199999999999992E-002     4.1178449464496225E-005
  -7.7100000000000002E-002     5.4146486945683137E-005
  -7.5999999999999984E-002     7.4648625741247088E-005
  -7.4899999999999994E-002     8.8054941443260759E-005
  -7.3799999999999991E-002     9.7880954854190350E-005
  -7.2699999999999987E-002     1.2366540613584220E-004
  -7.1599999999999997E-002     1.6798928845673800E-004
  -7.0499999999999993E-002     2.0639873400796205E-004
  -6.9399999999999989E-002     2.2364486358128488E-004
  -6.8300000000000000E-002     2.4387105077039450E-004
  -6.7199999999999996E-002     3.0237014289014041E-004
  -6.6099999999999992E-002     3.9393841871060431E-004
  -6.5000000000000002E-002     4.7664868179708719E-004
  -6.3899999999999985E-002     5.3292879601940513E-004
  -6.2799999999999995E-002     6.0029223095625639E-004
  -6.1699999999999991E-002     7.2204729076474905E-004
  -6.0599999999999994E-002     8.8647718075662851E-004
  -5.9499999999999990E-002     1.0447071399539709E-003
  -5.8399999999999994E-002     1.1833306634798646E-003
  -5.7299999999999990E-002     1.3455119915306568E-003
  -5.6199999999999986E-002     1.5700323274359107E-003
  -5.5099999999999996E-002     1.8399655818939209E-003
  -5.3999999999999992E-002     2.1162137854844332E-003
  -5.2899999999999989E-002     2.4010436609387398E-003
  -5.1799999999999985E-002     2.7331889141350985E-003
  -5.0699999999999995E-002     3.1259921379387379E-003
  -4.9599999999999991E-002     3.5501283127814531E-003
  -4.8499999999999988E-002     3.9894580841064453E-003
  -4.7399999999999998E-002     4.4772480614483356E-003
  -4.6299999999999994E-002     5.0469394773244858E-003
  -4.5199999999999990E-002     5.6714415550231934E-003
  -4.4099999999999986E-002     6.2948334962129593E-003
  -4.2999999999999997E-002     6.9195544347167015E-003
  -4.1899999999999993E-002     7.6144565828144550E-003
  -4.0799999999999989E-002     8.4184417501091957E-003
  -3.9699999999999985E-002     9.2757232487201691E-003
  -3.8599999999999995E-002     1.0103343985974789E-002
  -3.7499999999999992E-002     1.0899175889790058E-002
  -3.6399999999999988E-002     1.1734827421605587E-002
  -3.5299999999999984E-002     1.2644041329622269E-002
  -3.4199999999999994E-002     1.3568626716732979E-002
  -3.3099999999999991E-002     1.4434857293963432E-002
  -3.1999999999999987E-002     1.5240038745105267E-002
  -3.0899999999999997E-002     1.6021979972720146E-002
  -2.9799999999999993E-002     1.6768980771303177E-002
  -2.8699999999999989E-002     1.7415884882211685E-002
  -2.7599999999999986E-002     1.7928658053278923E-002
  -2.6499999999999996E-002     1.8335040658712387E-002
  -2.5399999999999992E-002     1.8645603209733963E-002
  -2.4299999999999988E-002     1.8789758905768394E-002
  -2.3199999999999985E-002     1.8677406013011932E-002
  -2.2099999999999995E-002     1.8301704898476601E-002
  -2.0999999999999991E-002     1.7723878845572472E-002
  -1.9899999999999987E-002     1.6954300925135612E-002
  -1.8799999999999983E-002     1.5903100371360779E-002
  -1.7699999999999994E-002     1.4478726312518120E-002
  -1.6599999999999990E-002     1.2692095711827278E-002
  -1.5499999999999986E-002     1.0612161830067635E-002
  -1.4399999999999996E-002     8.2441382110118866E-003
  -1.3299999999999992E-002     5.5155605077743530E-003
  -1.2199999999999989E-002     2.3867958225309849E-003
  -1.1099999999999985E-002    -1.0863537900149822E-003
  -9.9999999999999950E-003    -4.8334398306906223E-003
  -8.8999999999999913E-003    -8.8635673746466637E-003
  -7.7999999999999875E-003    -1.3223538175225258E-002
  -6.6999999999999837E-003    -1.7883954569697380E-002
  -5.5999999999999939E-003    -2.2730166092514992E-002
  -4.4999999999999901E-003    -2.7675101533532143E-002
  -3.3999999999999864E-003    -3.2719850540161133E-002
  -2.2999999999999826E-003    -3.7871878594160080E-002
  -1.1999999999999927E-003    -4.3045546859502792E-002
  -9.9999999999988987E-005    -4.8099864274263382E-002
   1.0000000000000148E-003    -5.2951153367757797E-002
   2.1000000000000185E-003    -5.7583149522542953E-002
   3.2000000000000084E-003    -6.1950307339429855E-002
   4.3000000000000121E-003    -6.5927535295486450E-002
   5.4000000000000159E-003    -6.9386221468448639E-002
   6.5000000000000058E-003    -7.2278030216693878E-002
   7.6000000000000234E-003    -7.4597358703613281E-002
   8.7000000000000133E-003    -7.6283261179924011E-002
   9.8000000000000032E-003    -7.7212363481521606E-002
   1.0900000000000021E-002    -7.7297098934650421E-002
   1.2000000000000011E-002    -7.6543010771274567E-002
   1.3100000000000001E-002    -7.4979312717914581E-002
   1.4200000000000018E-002    -7.2575896978378296E-002
   1.5300000000000008E-002    -6.9272473454475403E-002
   1.6400000000000026E-002    -6.5066777169704437E-002
   1.7500000000000016E-002    -6.0029458254575729E-002
   1.8600000000000005E-002    -5.4227631539106369E-002
   1.9700000000000023E-002    -4.7678187489509583E-002
   2.0800000000000013E-002    -4.0402945131063461E-002
   2.1900000000000003E-002    -3.2498173415660858E-002
   2.3000000000000020E-002    -2.4108590558171272E-002
   2.4100000000000010E-002    -1.5341892838478088E-002
   2.5200000000000000E-002    -6.2535610049962997E-003
   2.6300000000000018E-002     3.0795086640864611E-003
   2.7400000000000008E-002     1.2510565109550953E-002
   2.8500000000000025E-002     2.1870059892535210E-002
   2.9600000000000015E-002     3.1033648177981377E-002
   3.0700000000000005E-002     3.9917014539241791E-002
   3.1800000000000023E-002     4.8419546335935593E-002
   3.2900000000000013E-002     5.6408479809761047E-002
   3.4000000000000002E-002     6.3764788210391998E-002
   3.5100000000000020E-002     7.0412337779998779E-002
   3.6200000000000010E-002     7.6286569237709045E-002
   3.7300000000000028E-002     8.1301756203174591E-002
   3.8400000000000017E-002     8.5371531546115875E-002
   3.9500000000000007E-002     8.8457718491554260E-002
   4.0600000000000025E-002     9.0572394430637360E-002
   4.1700000000000015E-002     9.1727733612060547E-002
   4.2800000000000005E-002     9.1905556619167328E-002
   4.3900000000000022E-002     9.1087736189365387E-002
   4.5000000000000012E-002     8.9306585490703583E-002
   4.6100000000000002E-002     8.6637973785400391E-002
   4.7200000000000020E-002     8.3157122135162354E-002
   4.8300000000000010E-002     7.8925088047981262E-002
   4.9400000000000027E-002     7.4014671146869659E-002
   5.0500000000000017E-002     6.8519100546836853E-002
   5.1600000000000007E-002     6.2530249357223511E-002
   5.2700000000000025E-002     5.6129671633243561E-002
   5.3800000000000014E-002     4.9410082399845123E-002
   5.4900000000000004E-002     4.2490303516387939E-002
   5.6000000000000022E-002     3.5487409681081772E-002
   5.7100000000000012E-002     2.8488211333751678E-002
   5.8200000000000002E-002     2.1561868488788605E-002
   5.9300000000000019E-002     1.4786484651267529E-002
   6.0400000000000009E-002     8.2499776035547256E-003
   6.1500000000000027E-002     2.0252107642591000E-003
   6.2600000000000017E-002    -3.8345183711498976E-003
   6.3700000000000007E-002    -9.2737022787332535E-003
   6.4800000000000024E-002    -1.4234441332519054E-002
   6.5900000000000014E-002    -1.8684918060898781E-002
   6.7000000000000004E-002    -2.2628825157880783E-002
   6.8100000000000022E-002    -2.6071790605783463E-002
   6.9200000000000012E-002    -2.8992144390940666E-002
   7.0300000000000029E-002    -3.1362414360046387E-002
   7.1400000000000019E-002    -3.3193882554769516E-002
   7.2500000000000009E-002    -3.4535586833953857E-002
   7.3600000000000027E-002    -3.5425119102001190E-002
   7.4700000000000016E-002    -3.5867780447006226E-002
   7.5800000000000006E-002    -3.5878814756870270E-002
   7.6900000000000024E-002    -3.5516455769538879E-002
   7.8000000000000014E-002    -3.4846235066652298E-002
   7.9100000000000004E-002    -3.3889804035425186E-002
   8.0200000000000021E-002    -3.2644800841808319E-002
   8.1300000000000011E-002    -3.1153462827205658E-002
   8.2400000000000029E-002    -2.9509253799915314E-002
   8.3500000000000019E-002    -2.7778860181570053E-002
   8.4600000000000009E-002    -2.5955840945243835E-002
   8.5700000000000026E-002    -2.4021003395318985E-002
   8.6800000000000016E-002    -2.2020816802978516E-002
   8.7900000000000006E-002    -2.0043615251779556E-002
   8.9000000000000024E-002    -1.8126340582966805E-002
   9.0100000000000013E-002    -1.6236739233136177E-002
   9.1200000000000003E-002    -1.4362259767949581E-002
   9.2300000000000021E-002    -1.2563737109303474E-002
   9.3400000000000011E-002    -1.0904804803431034E-002
   9.4500000000000028E-002    -9.3666706234216690E-003
   9.5600000000000018E-002    -7.8858928754925728E-003
   9.6700000000000008E-002    -6.4650713466107845E-003
   9.7800000000000026E-002    -5.1843440160155296E-003
   9.8900000000000016E-002    -4.0884679183363914E-003
  0.10000000000000001         -3.1182533130049706E-003
  0.10110000000000002         -2.1954325493425131E-003
  0.10220000000000001         -1.3356383424252272E-003
  0.10330000000000003         -6.1575433937832713E-004
  0.10440000000000002         -4.7107201680773869E-005
  0.10550000000000001          4.4800853356719017E-004
  0.10660000000000003          9.1933802468702197E-004
  0.10770000000000002          1.3170334277674556E-003
  0.10880000000000001          1.5809419564902782E-003
  0.10990000000000003          1.7527933232486248E-003
  0.11100000000000002          1.9303680164739490E-003
  0.11210000000000001          2.1245083771646023E-003
  0.11320000000000002          2.2425397764891386E-003
  0.11430000000000001          2.2338395938277245E-003
  0.11540000000000003          2.1786086726933718E-003
  0.11650000000000002          2.1803590934723616E-003
  0.11760000000000001          2.2201405372470617E-003
  0.11870000000000003          2.1934851538389921E-003
  0.11980000000000002          2.0737238228321075E-003
  0.12090000000000001          1.9531799480319023E-003
  0.12200000000000003          1.9019148312509060E-003
  0.12310000000000001          1.8643357325345278E-003
  0.12420000000000003          1.7540272092446685E-003
  0.12530000000000002          1.5971838729456067E-003
  0.12640000000000001          1.4969323528930545E-003
  0.12750000000000003          1.4713846612721682E-003
  0.12860000000000002          1.4205233892425895E-003
  0.12970000000000001          1.2792678317055106E-003
  0.13080000000000003          1.1228336952626705E-003
  0.13190000000000002          1.0575078194960952E-003
  0.13300000000000001          1.0602924739941955E-003
  0.13410000000000000          1.0131645249202847E-003
  0.13520000000000004          8.8134279940277338E-004
  0.13630000000000003          7.6400616671890020E-004
  0.13740000000000002          7.4067641980946064E-004
  0.13850000000000001          7.5019453652203083E-004
  0.13960000000000000          6.8836228456348181E-004
  0.14070000000000005          5.7116517564281821E-004
  0.14180000000000004          5.0950911827385426E-004
  0.14290000000000003          5.3464132361114025E-004
  0.14400000000000002          5.4625311167910695E-004
  0.14510000000000001          4.6602898510172963E-004
  0.14620000000000000          3.6004840512759984E-004
  0.14730000000000004          3.3974164398387074E-004
  0.14840000000000003          3.9155731792561710E-004
  0.14950000000000002          3.9706297684460878E-004
  0.15060000000000001          3.1293413485400379E-004
  0.15170000000000000          2.3465557023882866E-004
  0.15280000000000005          2.4826364824548364E-004
  0.15390000000000004          2.9960891697555780E-004
  0.15500000000000003          2.8072961140424013E-004
  0.15610000000000002          1.9713569781742990E-004
  0.15720000000000001          1.5733076725155115E-004
  0.15830000000000000          2.0312497508712113E-004
  0.15940000000000004          2.4434886290691793E-004
  0.16050000000000003          1.9841831817757338E-004
  0.16160000000000002          1.1805257963715121E-004
  0.16270000000000001          1.0996880155289546E-004
  0.16380000000000000          1.7109386681113392E-004
  0.16490000000000005          1.9435996364336461E-004
  0.16600000000000004          1.3337263953872025E-004
  0.16710000000000003          7.1866459620650858E-005
  0.16820000000000002          9.3088085122872144E-005
  0.16930000000000001          1.5243263624142855E-004
  0.17040000000000000          1.4834741887170821E-004
  0.17150000000000004          7.9377226938959211E-005
  0.17260000000000003          4.4910419092047960E-005
  0.17370000000000002          9.0920679213013500E-005
  0.17480000000000001          1.3958600175101310E-004
  0.17590000000000000          1.0960524377878755E-004
  0.17700000000000005          4.0442206227453426E-005
  0.17810000000000004          3.0751649319427088E-005
  0.17920000000000003          8.8351029262412339E-005
  0.18030000000000002          1.2108808004995808E-004
  0.18140000000000001          7.8397133620455861E-005
  0.18250000000000000          2.5112887669820338E-005
  0.18360000000000004          3.8582893466809765E-005
  0.18470000000000003          9.1607987997122109E-005
  0.18580000000000002          9.8825948953162879E-005
  0.18690000000000001          4.9332618800690398E-005
  0.18800000000000000          2.0493302145041525E-005
  0.18910000000000005          5.6246637541335076E-005
  0.19020000000000004          1.0082466906169429E-004
  0.19130000000000003          8.7651387730147690E-005
  0.19240000000000002          4.2292173020541668E-005
  0.19350000000000001          4.1251892980653793E-005
  0.19460000000000005          9.3514347099699080E-005
  0.19570000000000004          1.2817214883398265E-004
  0.19680000000000003          1.0456586460350081E-004
  0.19790000000000002          7.3900839197449386E-005
  0.19900000000000001          1.0001429473049939E-004
  0.20010000000000000          1.6334280371665955E-004
  0.20120000000000005          1.9339699065312743E-004
  0.20230000000000004          1.7629236390348524E-004
  0.20340000000000003          1.7348653636872768E-004
  0.20450000000000002          2.2798610734753311E-004
  0.20560000000000000          3.0329063883982599E-004
  0.20670000000000005          3.4349472844041884E-004
  0.20780000000000004          3.5746724461205304E-004
  0.20890000000000003          4.0071809780783951E-004
