 -0.12000000000000000          0.0000000000000000
 -0.11889999999999999          0.0000000000000000
 -0.11780000000000000          0.0000000000000000
 -0.11670000000000000          0.0000000000000000
 -0.11559999999999999          0.0000000000000000
 -0.11449999999999999          0.0000000000000000
 -0.11340000000000000         -1.0370384665327475E-019
 -0.11230000000000000         -4.6409876227256865E-020
 -0.11119999999999999          8.2720842650112477E-019
 -0.11009999999999999          8.0862028226977456E-019
 -0.10900000000000000         -2.4883402283185032E-018
 -0.10790000000000000         -2.5798934056964849E-018
 -0.10679999999999999          4.4458095879805804E-018
 -0.10569999999999999         -8.2915699519060062E-018
 -0.10460000000000000         -4.1711803306570549E-017
 -0.10349999999999999          3.4793552522030194E-017
 -0.10239999999999999          2.8669153588801880E-016
 -0.10130000000000000          2.5638893219999620E-016
 -0.10020000000000000         -6.8406153180152721E-016
  -9.9099999999999994E-002    -1.7783005682559623E-015
  -9.7999999999999990E-002    -6.4952386925635152E-016
  -9.6899999999999986E-002     3.2767259923878163E-015
  -9.5799999999999996E-002     5.7871662648666111E-015
  -9.4699999999999993E-002     2.2170111188909601E-015
  -9.3599999999999989E-002    -5.0691186477872484E-015
  -9.2499999999999999E-002    -9.9055200755140613E-015
  -9.1399999999999995E-002    -1.3656571601111840E-014
  -9.0299999999999991E-002    -1.9275620460673312E-014
  -8.9200000000000002E-002    -7.1703193987231011E-015
  -8.8099999999999984E-002     5.4147827985729508E-014
  -8.6999999999999994E-002     1.3642907604419913E-013
  -8.5899999999999990E-002     1.1752887075014429E-013
  -8.4799999999999986E-002    -9.3426372053170142E-014
  -8.3699999999999997E-002    -3.7053083583142576E-013
  -8.2599999999999993E-002    -4.1808898465674205E-013
  -8.1499999999999989E-002    -1.0171621574531220E-013
  -8.0399999999999999E-002     3.5628268456149026E-013
  -7.9299999999999995E-002     6.6289031555588629E-013
  -7.8199999999999992E-002     8.2279587873893001E-013
  -7.7100000000000002E-002     9.0005504134807457E-013
  -7.5999999999999984E-002     4.4932571660778742E-013
  -7.4899999999999994E-002    -1.1745863613341068E-012
  -7.3799999999999991E-002    -3.4557834024950829E-012
  -7.2699999999999987E-002    -4.2359778879008658E-012
  -7.1599999999999997E-002    -1.7172206582052874E-012
  -7.0499999999999993E-002     2.9525650587641783E-012
  -6.9399999999999989E-002     6.3249388365660408E-012
  -6.8300000000000000E-002     6.5535099048885659E-012
  -6.7199999999999996E-002     5.3395517174426033E-012
  -6.6099999999999992E-002     4.4603648031993348E-012
  -6.5000000000000002E-002     1.5831603606200617E-012
  -6.3899999999999985E-002    -7.2067816124510298E-012
  -6.2799999999999995E-002    -1.9912894250184721E-011
  -6.1699999999999991E-002    -2.7178292602569876E-011
  -6.0599999999999994E-002    -2.1546889272805458E-011
  -5.9499999999999990E-002    -6.1066100093265518E-012
  -5.8399999999999994E-002     1.0584709324301667E-011
  -5.7299999999999990E-002     2.7202143315641081E-011
  -5.6199999999999986E-002     5.0021015107759581E-011
  -5.5099999999999996E-002     7.6653031144680028E-011
  -5.3999999999999992E-002     8.5816131978333487E-011
  -5.2899999999999989E-002     5.3101415625755877E-011
  -5.1799999999999985E-002    -2.2090562018517446E-011
  -5.0699999999999995E-002    -1.1234462665710154E-010
  -4.9599999999999991E-002    -1.8649702615558539E-010
  -4.8499999999999988E-002    -2.2949642186631536E-010
  -4.7399999999999998E-002    -2.3298971085772280E-010
  -4.6299999999999994E-002    -1.7724323397860786E-010
  -4.5199999999999990E-002    -3.9997276324310604E-011
  -4.4099999999999986E-002     1.7328681545247804E-010
  -4.2999999999999997E-002     4.1959866137197821E-010
  -4.1899999999999993E-002     6.4424421353237449E-010
  -4.0799999999999989E-002     8.0668854929299982E-010
  -3.9699999999999985E-002     8.7561802253333099E-010
  -3.8599999999999995E-002     8.1776585503234855E-010
  -3.7499999999999992E-002     6.2022087465862796E-010
  -3.6399999999999988E-002     3.2891583900962473E-010
  -3.5299999999999984E-002     4.5457800718073926E-011
  -3.4199999999999994E-002    -1.2486589540117166E-010
  -3.3099999999999991E-002    -1.0975954173320090E-010
  -3.1999999999999987E-002     1.4636124257005889E-010
  -3.0899999999999997E-002     6.9390482249076513E-010
  -2.9799999999999993E-002     1.5184248303157233E-009
  -2.8699999999999989E-002     2.4584141389283332E-009
  -2.7599999999999986E-002     3.2189626519851799E-009
  -2.6499999999999996E-002     3.4918201663458603E-009
  -2.5399999999999992E-002     3.0425169050829481E-009
  -2.4299999999999988E-002     1.6652218493007354E-009
  -2.3199999999999985E-002    -8.9587054441508940E-010
  -2.2099999999999995E-002    -4.8898445292877568E-009
  -2.0999999999999991E-002    -1.0389025639767624E-008
  -1.9899999999999987E-002    -1.7221694292857137E-008
  -1.8799999999999983E-002    -2.5130820091590067E-008
  -1.7699999999999994E-002    -3.4010387395255748E-008
  -1.6599999999999990E-002    -4.3996305265636693E-008
  -1.5499999999999986E-002    -5.5407667787221726E-008
  -1.4399999999999996E-002    -6.8721000445748359E-008
  -1.3299999999999992E-002    -8.4656051058118464E-008
  -1.2199999999999989E-002    -1.0424405161302275E-007
  -1.1099999999999985E-002    -1.2877202948402555E-007
  -9.9999999999999950E-003    -1.5969033029250568E-007
  -8.8999999999999913E-003    -1.9860826228068618E-007
  -7.7999999999999875E-003    -2.4732642600611143E-007
  -6.6999999999999837E-003    -3.0777567872064537E-007
  -5.5999999999999939E-003    -3.8194249896150723E-007
  -4.4999999999999901E-003    -4.7200003905345511E-007
  -3.3999999999999864E-003    -5.8066518704436021E-007
  -2.2999999999999826E-003    -7.1144114599519526E-007
  -1.1999999999999927E-003    -8.6851883907002048E-007
  -9.9999999999988987E-005    -1.0565526054051588E-006
   1.0000000000000148E-003    -1.2807661278202431E-006
   2.1000000000000185E-003    -1.5473508483410114E-006
   3.2000000000000084E-003    -1.8637243783814483E-006
   4.3000000000000121E-003    -2.2382898805517470E-006
   5.4000000000000159E-003    -2.6801333206094569E-006
   6.5000000000000058E-003    -3.1991337436920730E-006
   7.6000000000000234E-003    -3.8063838019297691E-006
   8.7000000000000133E-003    -4.5144893192627933E-006
   9.8000000000000032E-003    -5.3374424169305712E-006
   1.0900000000000021E-002    -6.2903268371883314E-006
   1.2000000000000011E-002    -7.3894270826713182E-006
   1.3100000000000001E-002    -8.6525242295465432E-006
   1.4200000000000018E-002    -1.0098967322846875E-005
   1.5300000000000008E-002    -1.1749658369808458E-005
   1.6400000000000026E-002    -1.3626855434267782E-005
   1.7500000000000016E-002    -1.5754298146930523E-005
   1.8600000000000005E-002    -1.8156728401663713E-005
   1.9700000000000023E-002    -2.0859428332187235E-005
   2.0800000000000013E-002    -2.3887847419246100E-005
   2.1900000000000003E-002    -2.7267620680504479E-005
   2.3000000000000020E-002    -3.1024494091980159E-005
   2.4100000000000010E-002    -3.5183697036700323E-005
   2.5200000000000000E-002    -3.9768776332493871E-005
   2.6300000000000018E-002    -4.4801206968259066E-005
   2.7400000000000008E-002    -5.0299957365496084E-005
   2.8500000000000025E-002    -5.6281442084582523E-005
   2.9600000000000015E-002    -6.2758954300079495E-005
   3.0700000000000005E-002    -6.9740730396006256E-005
   3.1800000000000023E-002    -7.7229553426150233E-005
   3.2900000000000013E-002    -8.5220541222952306E-005
   3.4000000000000002E-002    -9.3700393335893750E-005
   3.5100000000000020E-002    -1.0264724551234394E-004
   3.6200000000000010E-002    -1.1202982568647712E-004
   3.7300000000000028E-002    -1.2180591875221580E-004
   3.8400000000000017E-002    -1.3192137703299522E-004
   3.9500000000000007E-002    -1.4230978558771312E-004
   4.0600000000000025E-002    -1.5289241855498403E-004
   4.1700000000000015E-002    -1.6357604181393981E-004
   4.2800000000000005E-002    -1.7425388796254992E-004
   4.3900000000000022E-002    -1.8480610742699355E-004
   4.5000000000000012E-002    -1.9509754201862961E-004
   4.6100000000000002E-002    -2.0498072262853384E-004
   4.7200000000000020E-002    -2.1429501066450030E-004
   4.8300000000000010E-002    -2.2286694729700685E-004
   4.9400000000000027E-002    -2.3051150492392480E-004
   5.0500000000000017E-002    -2.3703540500719100E-004
   5.1600000000000007E-002    -2.4224138178396970E-004
   5.2700000000000025E-002    -2.4592588306404650E-004
   5.3800000000000014E-002    -2.4788471637293696E-004
   5.4900000000000004E-002    -2.4791498435661197E-004
   5.6000000000000022E-002    -2.4581875186413527E-004
   5.7100000000000012E-002    -2.4140738241840154E-004
   5.8200000000000002E-002    -2.3450489970855415E-004
   5.9300000000000019E-002    -2.2495102894026786E-004
   6.0400000000000009E-002    -2.1261091751512140E-004
   6.1500000000000027E-002    -1.9737271941266954E-004
   6.2600000000000017E-002    -1.7915354692377150E-004
   6.3700000000000007E-002    -1.5790047473274171E-004
   6.4800000000000024E-002    -1.3360023149289191E-004
   6.5900000000000014E-002    -1.0628020390868187E-004
   6.7000000000000004E-002    -7.6012685894966125E-005
   6.8100000000000022E-002    -4.2913143261102960E-005
   6.9200000000000012E-002    -7.1412368924939074E-006
   7.0300000000000029E-002     3.1097963073989376E-005
   7.1400000000000019E-002     7.1551046858076006E-005
   7.2500000000000009E-002     1.1391363659640774E-004
   7.3600000000000027E-002     1.5783440903760493E-004
   7.4700000000000016E-002     2.0292439148761332E-004
   7.5800000000000006E-002     2.4876117822714150E-004
   7.6900000000000024E-002     2.9489022563211620E-004
   7.8000000000000014E-002     3.4082462661899626E-004
   7.9100000000000004E-002     3.8604982546530664E-004
   8.0200000000000021E-002     4.3003723840229213E-004
   8.1300000000000011E-002     4.7225778689607978E-004
   8.2400000000000029E-002     5.1218474982306361E-004
   8.3500000000000019E-002     5.4929760517552495E-004
   8.4600000000000009E-002     5.8309023734182119E-004
   8.5700000000000026E-002     6.1308208387345076E-004
   8.6800000000000016E-002     6.3882756512612104E-004
   8.7900000000000006E-002     6.5992400050163269E-004
   8.9000000000000024E-002     6.7602150375023484E-004
   9.0100000000000013E-002     6.8682990968227386E-004
   9.1200000000000003E-002     6.9212331436574459E-004
   9.2300000000000021E-002     6.9173786323517561E-004
   9.3400000000000011E-002     6.8557233316823840E-004
   9.4500000000000028E-002     6.7360361572355032E-004
   9.5600000000000018E-002     6.5589562291279435E-004
   9.6700000000000008E-002     6.3259399030357599E-004
   9.7800000000000026E-002     6.0391367878764868E-004
   9.8900000000000016E-002     5.7012430625036359E-004
  0.10000000000000001          5.3156388457864523E-004
  0.10110000000000002          4.8864574637264013E-004
  0.10220000000000001          4.4184370199218392E-004
  0.10330000000000003          3.9168682997114956E-004
  0.10440000000000002          3.3873080974444747E-004
  0.10550000000000001          2.8356243274174631E-004
  0.10660000000000003          2.2678702953271568E-004
  0.10770000000000002          1.6902793140616268E-004
  0.10880000000000001          1.1091571650467813E-004
  0.10990000000000003          5.3081195801496506E-005
  0.11100000000000002         -3.8650528040307108E-006
  0.11210000000000001         -5.9338435676181689E-005
  0.11320000000000002         -1.1279732279945165E-004
  0.11430000000000001         -1.6374442202504724E-004
  0.11540000000000003         -2.1172010747250170E-004
  0.11650000000000002         -2.5630177697166800E-004
  0.11760000000000001         -2.9712752439081669E-004
  0.11870000000000003         -3.3391281613148749E-004
  0.11980000000000002         -3.6644432111643255E-004
  0.12090000000000001         -3.9456528611481190E-004
  0.12200000000000003         -4.1817175224423409E-004
  0.12310000000000001         -4.3721741531044245E-004
  0.12420000000000003         -4.5172317186370492E-004
  0.12530000000000002         -4.6177522744983435E-004
  0.12640000000000001         -4.6751319314353168E-004
  0.12750000000000003         -4.6912208199501038E-004
  0.12860000000000002         -4.6682433458045125E-004
  0.12970000000000001         -4.6087958617135882E-004
  0.13080000000000003         -4.5157683780416846E-004
  0.13190000000000002         -4.3923169141635299E-004
  0.13300000000000001         -4.2418375960551202E-004
  0.13410000000000000         -4.0678764344193041E-004
  0.13520000000000004         -3.8740111631341279E-004
  0.13630000000000003         -3.6637668381445110E-004
  0.13740000000000002         -3.4405960468575358E-004
  0.13850000000000001         -3.2079222728498280E-004
  0.13960000000000000         -2.9691102099604905E-004
  0.14070000000000005         -2.7273423620499671E-004
  0.14180000000000004         -2.4855078663676977E-004
  0.14290000000000003         -2.2462040942627937E-004
  0.14400000000000002         -2.0118454995099455E-004
  0.14510000000000001         -1.7847017443273216E-004
  0.14620000000000000         -1.5667887055315077E-004
  0.14730000000000004         -1.3597759243566543E-004
  0.14840000000000003         -1.1650011583697051E-004
  0.14950000000000002         -9.8358868854120374E-005
  0.15060000000000001         -8.1647878687363118E-005
  0.15170000000000000         -6.6437874920666218E-005
  0.15280000000000005         -5.2775631047552451E-005
  0.15390000000000004         -4.0687853470444679E-005
  0.15500000000000003         -3.0184231945895590E-005
  0.15610000000000002         -2.1258185370243154E-005
  0.15720000000000001         -1.3884582585887983E-005
  0.15830000000000000         -8.0253857959178276E-006
  0.15940000000000004         -3.6387659747560974E-006
  0.16050000000000003         -6.7869626718675136E-007
  0.16160000000000002          9.1335749630161445E-007
  0.16270000000000001          1.2125337889301591E-006
  0.16380000000000000          3.0018330221537326E-007
  0.16490000000000005         -1.7479309235568508E-006
  0.16600000000000004         -4.8596189117233735E-006
  0.16710000000000003         -8.9531195044401102E-006
  0.16820000000000002         -1.3932445654063486E-005
  0.16930000000000001         -1.9698591131600551E-005
  0.17040000000000000         -2.6160425477428362E-005
  0.17150000000000004         -3.3228192478418350E-005
  0.17260000000000003         -4.0799743146635592E-005
  0.17370000000000002         -4.8759349738247693E-005
  0.17480000000000001         -5.6992586905835196E-005
  0.17590000000000000         -6.5393141994718462E-005
  0.17700000000000005         -7.3852126661222428E-005
  0.17810000000000004         -8.2244201621506363E-005
  0.17920000000000003         -9.0430941781960428E-005
  0.18030000000000002         -9.8276075732428581E-005
  0.18140000000000001         -1.0564994590822607E-004
  0.18250000000000000         -1.1241899483138695E-004
  0.18360000000000004         -1.1843831453006715E-004
  0.18470000000000003         -1.2355933722574264E-004
  0.18580000000000002         -1.2764064013026655E-004
  0.18690000000000001         -1.3054489681962878E-004
  0.18800000000000000         -1.3212875637691468E-004
  0.18910000000000005         -1.3224828580860049E-004
  0.19020000000000004         -1.3077651965431869E-004
  0.19130000000000003         -1.2760926620103419E-004
  0.19240000000000002         -1.2265269469935447E-004
  0.19350000000000001         -1.1580789578147233E-004
  0.19460000000000005         -1.0698391997721046E-004
  0.19570000000000004         -9.6126568678300828E-005
  0.19680000000000003         -8.3223152614664286E-005
  0.19790000000000002         -6.8281515268608928E-005
  0.19900000000000001         -5.1316572353243828E-005
  0.20010000000000000         -3.2364230719394982E-005
  0.20120000000000005         -1.1502123925311025E-005
  0.20230000000000004          1.1147305485792458E-005
  0.20340000000000003          3.5438089980743825E-005
  0.20450000000000002          6.1204787925817072E-005
  0.20560000000000000          8.8250097178388387E-005
  0.20670000000000005          1.1633378744591027E-004
  0.20780000000000004          1.4518556417897344E-004
  0.20890000000000003          1.7452445172239095E-004
