 -0.12000000000000000          0.0000000000000000
 -0.11889999999999999          0.0000000000000000
 -0.11780000000000000          0.0000000000000000
 -0.11670000000000000          0.0000000000000000
 -0.11559999999999999          0.0000000000000000
 -0.11449999999999999          0.0000000000000000
 -0.11340000000000000          0.0000000000000000
 -0.11230000000000000          0.0000000000000000
 -0.11119999999999999          0.0000000000000000
 -0.11009999999999999          0.0000000000000000
 -0.10900000000000000         -3.7337474201100635E-029
 -0.10790000000000000          1.3453097630132632E-029
 -0.10679999999999999          4.7176838434681140E-028
 -0.10569999999999999         -9.6304313786597021E-030
 -0.10460000000000000         -2.2791832444147649E-027
 -0.10349999999999999          2.2450969807010330E-027
 -0.10239999999999999          5.9567414658043364E-027
 -0.10130000000000000         -4.9226211629225854E-026
 -0.10020000000000000         -7.7164820678812221E-026
  -9.9099999999999994E-002     3.5427785161711230E-025
  -9.7999999999999990E-002     9.8178176997346787E-025
  -9.6899999999999986E-002    -6.6351066086236015E-025
  -9.5799999999999996E-002    -5.6465551301843663E-024
  -9.4699999999999993E-002    -5.2667548919220893E-024
  -9.3599999999999989E-002     1.2807500739617803E-023
  -9.2499999999999999E-002     3.4929132674278027E-023
  -9.1399999999999995E-002     1.6565129221111362E-023
  -9.0299999999999991E-002    -5.5165560594859181E-023
  -8.9200000000000002E-002    -1.2455057250915504E-022
  -8.8099999999999984E-002    -1.5215372435060106E-022
  -8.6999999999999994E-002    -1.0031463242087784E-022
  -8.5899999999999990E-002     3.5796283922265517E-022
  -8.4799999999999986E-002     1.5967284862528994E-021
  -8.3699999999999997E-002     2.3731367487684544E-021
  -8.2599999999999993E-002    -9.7030305336387512E-022
  -8.1499999999999989E-002    -9.7754863854195680E-021
  -8.0399999999999999E-002    -1.5159535522280468E-020
  -7.9299999999999995E-002    -9.7618641586033688E-022
  -7.8199999999999992E-002     3.4926250567805358E-020
  -7.7100000000000002E-002     6.3323428851410422E-020
  -7.5999999999999984E-002     4.1270719403738545E-020
  -7.4899999999999994E-002    -4.8335468682749351E-020
  -7.3799999999999991E-002    -1.8226379375389563E-019
  -7.2699999999999987E-002    -2.9687607827286490E-019
  -7.1599999999999997E-002    -2.4095342143726934E-019
  -7.0499999999999993E-002     2.3417061796251694E-019
  -6.9399999999999989E-002     1.1815504738374560E-018
  -6.8300000000000000E-002     1.9091241683759561E-018
  -6.7199999999999996E-002     9.8054734274587198E-019
  -6.6099999999999992E-002    -2.4318731573928771E-018
  -6.5000000000000002E-002    -6.6677221788261133E-018
  -6.3899999999999985E-002    -7.5772539980327764E-018
  -6.2799999999999995E-002    -1.5040610602390983E-018
  -6.1699999999999991E-002     1.1101705979179329E-017
  -6.0599999999999994E-002     2.4575501257364725E-017
  -5.9499999999999990E-002     2.9130320015189994E-017
  -5.8399999999999994E-002     1.2619667602817228E-017
  -5.7299999999999990E-002    -3.3211242036999957E-017
  -5.6199999999999986E-002    -9.6724518661761073E-017
  -5.5099999999999996E-002    -1.3118860845453385E-016
  -5.3999999999999992E-002    -7.0001813698525073E-017
  -5.2899999999999989E-002     1.1374956326421729E-016
  -5.1799999999999985E-002     3.4495165314025165E-016
  -5.0699999999999995E-002     4.5484292839016640E-016
  -4.9599999999999991E-002     2.8070587168712788E-016
  -4.8499999999999988E-002    -2.1407289992573527E-016
  -4.7399999999999998E-002    -8.8235130947904848E-016
  -4.6299999999999994E-002    -1.4008282762459638E-015
  -4.5199999999999990E-002    -1.3201901043926440E-015
  -4.4099999999999986E-002    -2.3408480769333676E-016
  -4.2999999999999997E-002     1.8395967427587302E-015
  -4.1899999999999993E-002     4.0546166989489322E-015
  -4.0799999999999989E-002     4.8309257832392875E-015
  -3.9699999999999985E-002     2.7573723994600520E-015
  -3.8599999999999995E-002    -2.2062770938668800E-015
  -3.7499999999999992E-002    -8.2677734016683990E-015
  -3.6399999999999988E-002    -1.2530703877950897E-014
  -3.5299999999999984E-002    -1.2231585204056355E-014
  -3.4199999999999994E-002    -5.6350781110553125E-015
  -3.3099999999999991E-002     7.2450869969772382E-015
  -3.1999999999999987E-002     2.3495121863684187E-014
  -3.0899999999999997E-002     3.6482823733601302E-014
  -2.9799999999999993E-002     3.7469938989672519E-014
  -2.8699999999999989E-002     2.0199853684806264E-014
  -2.7599999999999986E-002    -1.4547136959657328E-014
  -2.6499999999999996E-002    -5.8218783526714502E-014
  -2.5399999999999992E-002    -9.7321198951234866E-014
  -2.4299999999999988E-002    -1.1583328697259421E-013
  -2.3199999999999985E-002    -9.5981965322726459E-014
  -2.2099999999999995E-002    -2.2458428075144282E-014
  -2.0999999999999991E-002     1.0538197105312147E-013
  -1.9899999999999987E-002     2.5925285139158372E-013
  -1.8799999999999983E-002     3.7992073137656235E-013
  -1.7699999999999994E-002     3.9509267710756413E-013
  -1.6599999999999990E-002     2.4860200161479218E-013
  -1.5499999999999986E-002    -7.4176233731682029E-014
  -1.4399999999999996E-002    -5.2987930883319212E-013
  -1.3299999999999992E-002    -1.0064088234659763E-012
  -1.2199999999999989E-002    -1.3242393293033672E-012
  -1.1099999999999985E-002    -1.2707116175264543E-012
  -9.9999999999999950E-003    -6.7844780357942391E-013
  -8.8999999999999913E-003     4.7666834672097091E-013
  -7.7999999999999875E-003     2.0073497985356736E-012
  -6.6999999999999837E-003     3.5112169248507907E-012
  -5.5999999999999939E-003     4.4323282023805977E-012
  -4.4999999999999901E-003     4.1779210299686120E-012
  -3.3999999999999864E-003     2.2929182424274996E-012
  -2.2999999999999826E-003    -1.3153498472709413E-012
  -1.1999999999999927E-003    -6.1643997198435052E-012
  -9.9999999999988987E-005    -1.1109014749766111E-011
   1.0000000000000148E-003    -1.4475204888897419E-011
   2.1000000000000185E-003    -1.4431201893205792E-011
   3.2000000000000084E-003    -9.5314060463702610E-012
   4.3000000000000121E-003     6.7371883896369389E-013
   5.4000000000000159E-003     1.5105307629714737E-011
   6.5000000000000058E-003     3.0896351449483106E-011
   7.6000000000000234E-003     4.3611513705910099E-011
   8.7000000000000133E-003     4.8054067669500711E-011
   9.8000000000000032E-003     3.9579627769681380E-011
   1.0900000000000021E-002     1.5664670949266934E-011
   1.2000000000000011E-002    -2.2618878992020086E-011
   1.3100000000000001E-002    -6.9631224397515012E-011
   1.4200000000000018E-002    -1.1514261766265577E-010
   1.5300000000000008E-002    -1.4563521222310527E-010
   1.6400000000000026E-002    -1.4700302086723127E-010
   1.7500000000000016E-002    -1.0827105878519205E-010
   1.8600000000000005E-002    -2.5562846978077758E-011
   1.9700000000000023E-002     9.4652417848006820E-011
   2.0800000000000013E-002     2.3404922444569820E-010
   2.1900000000000003E-002     3.6363598243660533E-010
   2.3000000000000020E-002     4.4830314460675424E-010
   2.4100000000000010E-002     4.5464187969912473E-010
   2.5200000000000000E-002     3.6086111876443283E-010
   2.6300000000000018E-002     1.6667728308661367E-010
   2.7400000000000008E-002    -9.9403665854147505E-011
   2.8500000000000025E-002    -3.7786057616173707E-010
   2.9600000000000015E-002    -5.8291976801072565E-010
   3.0700000000000005E-002    -6.1527227757096625E-010
   3.1800000000000023E-002    -3.8215694497800712E-010
   3.2900000000000013E-002     1.7778942207336002E-010
   3.4000000000000002E-002     1.0693136376360712E-009
   3.5100000000000020E-002     2.2203188176916910E-009
   3.6200000000000010E-002     3.4717495545066868E-009
   3.7300000000000028E-002     4.5813508542380532E-009
   3.8400000000000017E-002     5.2426911700820256E-009
   3.9500000000000007E-002     5.1177071469510338E-009
   4.0600000000000025E-002     3.8776324373657189E-009
   4.1700000000000015E-002     1.2444231201058642E-009
   4.2800000000000005E-002    -2.9762174946768027E-009
   4.3900000000000022E-002    -8.8783922436164175E-009
   4.5000000000000012E-002    -1.6462426088992288E-008
   4.6100000000000002E-002    -2.5666587077921577E-008
   4.7200000000000020E-002    -3.6422221683096723E-008
   4.8300000000000010E-002    -4.8726580104130335E-008
   4.9400000000000027E-002    -6.2723671589992591E-008
   5.0500000000000017E-002    -7.8780580281545554E-008
   5.1600000000000007E-002    -9.7548856103912840E-008
   5.2700000000000025E-002    -1.2000279525636870E-007
   5.3800000000000014E-002    -1.4745157272955112E-007
   5.4900000000000004E-002    -1.8152678649130394E-007
   5.6000000000000022E-002    -2.2415443368117849E-007
   5.7100000000000012E-002    -2.7752247433454613E-007
   5.8200000000000002E-002    -3.4406184568069875E-007
   5.9300000000000019E-002    -4.2645544340302877E-007
   6.0400000000000009E-002    -5.2768280056625372E-007
   6.1500000000000027E-002    -6.5110435798487742E-007
   6.2600000000000017E-002    -8.0059055562742287E-007
   6.3700000000000007E-002    -9.8067960152548039E-007
   6.4800000000000024E-002    -1.1967558748438023E-006
   6.5900000000000014E-002    -1.4552116454069619E-006
   6.7000000000000004E-002    -1.7635892390899244E-006
   6.8100000000000022E-002    -2.1306948383426061E-006
   6.9200000000000012E-002    -2.5666831788839772E-006
   7.0300000000000029E-002    -3.0831167805445148E-006
   7.1400000000000019E-002    -3.6930036912963260E-006
   7.2500000000000009E-002    -4.4108483052696101E-006
   7.3600000000000027E-002    -5.2527411753544584E-006
   7.4700000000000016E-002    -6.2364670156966895E-006
   7.5800000000000006E-002    -7.3816486292344052E-006
   7.6900000000000024E-002    -8.7099215306807309E-006
   7.8000000000000014E-002    -1.0245098565064836E-005
   7.9100000000000004E-002    -1.2013264495180920E-005
   8.0200000000000021E-002    -1.4042814655113034E-005
   8.1300000000000011E-002    -1.6364452676498331E-005
   8.2400000000000029E-002    -1.9011116819456220E-005
   8.3500000000000019E-002    -2.2017717128619552E-005
   8.4600000000000009E-002    -2.5420933525310829E-005
   8.5700000000000026E-002    -2.9258739232318476E-005
   8.6800000000000016E-002    -3.3570140658412129E-005
   8.7900000000000006E-002    -3.8394653529394418E-005
   8.9000000000000024E-002    -4.3771873606601730E-005
   9.0100000000000013E-002    -4.9740716349333525E-005
   9.1200000000000003E-002    -5.6338791182497516E-005
   9.2300000000000021E-002    -6.3601619331166148E-005
   9.3400000000000011E-002    -7.1561822551302612E-005
   9.4500000000000028E-002    -8.0247984442394227E-005
   9.5600000000000018E-002    -8.9683242549654096E-005
   9.6700000000000008E-002    -9.9884098744951189E-005
   9.7800000000000026E-002    -1.1085900769103318E-004
   9.8900000000000016E-002    -1.2260684161446989E-004
  0.10000000000000001         -1.3511546421796083E-004
  0.10110000000000002         -1.4835981710348278E-004
  0.10220000000000001         -1.6230021719820797E-004
  0.10330000000000003         -1.7688127991277725E-004
  0.10440000000000002         -1.9203020201530308E-004
  0.10550000000000001         -2.0765524823218584E-004
  0.10660000000000003         -2.2364493634086102E-004
  0.10770000000000002         -2.3986723681446165E-004
  0.10880000000000001         -2.5616909260861576E-004
  0.10990000000000003         -2.7237590984441340E-004
  0.11100000000000002         -2.8829096117988229E-004
  0.11210000000000001         -3.0369588057510555E-004
  0.11320000000000002         -3.1835245317779481E-004
  0.11430000000000001         -3.3200325560756028E-004
  0.11540000000000003         -3.4437267458997667E-004
  0.11650000000000002         -3.5516958450898528E-004
  0.11760000000000001         -3.6409063613973558E-004
  0.11870000000000003         -3.7082380731590092E-004
  0.11980000000000002         -3.7505294312722981E-004
  0.12090000000000001         -3.7646130658686161E-004
  0.12200000000000003         -3.7473818520084023E-004
  0.12310000000000001         -3.6958430428057909E-004
  0.12420000000000003         -3.6071770591661334E-004
  0.12530000000000002         -3.4787997719831765E-004
  0.12640000000000001         -3.3084169263020158E-004
  0.12750000000000003         -3.0940986471250653E-004
  0.12860000000000002         -2.8343487065285444E-004
  0.12970000000000001         -2.5281534180976450E-004
  0.13080000000000003         -2.1750401356257498E-004
  0.13190000000000002         -1.7751303676050156E-004
  0.13300000000000001         -1.3291886716615409E-004
  0.13410000000000000         -8.3867220382671803E-005
  0.13520000000000004         -3.0575658456655219E-005
  0.13630000000000003          2.6665169571060687E-005
  0.13740000000000002          8.7491243903059512E-005
  0.13850000000000001          1.5146618534345180E-004
  0.13960000000000000          2.1808328165207058E-004
  0.14070000000000005          2.8676853980869055E-004
  0.14180000000000004          3.5688703064806759E-004
  0.14290000000000003          4.2774766916409135E-004
  0.14400000000000002          4.9861113075166941E-004
  0.14510000000000001          5.6870194384828210E-004
  0.14620000000000000          6.3721672631800175E-004
  0.14730000000000004          7.0333736948668957E-004
  0.14840000000000003          7.6623912900686264E-004
  0.14950000000000002          8.2510436186566949E-004
  0.15060000000000001          8.7913678726181388E-004
  0.15170000000000000          9.2757947277277708E-004
  0.15280000000000005          9.6972496248781681E-004
  0.15390000000000004          1.0049261618405581E-003
  0.15500000000000003          1.0326051851734519E-003
  0.15610000000000002          1.0522673837840557E-003
  0.15720000000000001          1.0635147336870432E-003
  0.15830000000000000          1.0660543339326978E-003
  0.15940000000000004          1.0597023647278547E-003
  0.16050000000000003          1.0443887440487742E-003
  0.16160000000000002          1.0201568948104978E-003
  0.16270000000000001          9.8716851789504290E-004
  0.16380000000000000          9.4570196233689785E-004
  0.16490000000000005          8.9615175966173410E-004
  0.16600000000000004          8.3902128972113132E-004
  0.16710000000000003          7.7491177944466472E-004
  0.16820000000000002          7.0451450301334262E-004
  0.16930000000000001          6.2860082834959030E-004
  0.17040000000000000          5.4801197256892920E-004
  0.17150000000000004          4.6364602167159319E-004
  0.17260000000000003          3.7644332041963935E-004
  0.17370000000000002          2.8736930107697845E-004
  0.17480000000000001          1.9739721028599888E-004
  0.17590000000000000          1.0749484499683604E-004
  0.17700000000000005          1.8612458006828092E-005
  0.17810000000000004         -6.8330431531649083E-005
  0.17920000000000003         -1.5246066323015839E-004
  0.18030000000000002         -2.3296583094634116E-004
  0.18140000000000001         -3.0910453642718494E-004
  0.18250000000000000         -3.8021337240934372E-004
  0.18360000000000004         -4.4571227044798434E-004
  0.18470000000000003         -5.0511240260675550E-004
  0.18580000000000002         -5.5802171118557453E-004
  0.18690000000000001         -6.0414988547563553E-004
  0.18800000000000000         -6.4330559689551592E-004
  0.18910000000000005         -6.7539553856477141E-004
  0.19020000000000004         -7.0041912840679288E-004
  0.19130000000000003         -7.1846455102786422E-004
  0.19240000000000002         -7.2970479959622025E-004
  0.19350000000000001         -7.3439080733805895E-004
  0.19460000000000005         -7.3284591780975461E-004
  0.19570000000000004         -7.2545366128906608E-004
  0.19680000000000003         -7.1264646248891950E-004
  0.19790000000000002         -6.9489615270867944E-004
  0.19900000000000001         -6.7270582076162100E-004
  0.20010000000000000         -6.4660492353141308E-004
  0.20120000000000005         -6.1713904142379761E-004
  0.20230000000000004         -5.8485724730417132E-004
  0.20340000000000003         -5.5030023213475943E-004
  0.20450000000000002         -5.1399529911577702E-004
  0.20560000000000000         -4.7645118320360780E-004
  0.20670000000000005         -4.3815464596264064E-004
  0.20780000000000004         -3.9956442196853459E-004
  0.20890000000000003         -3.6110341898165643E-004
