 -0.12000000000000000          0.0000000000000000     
 -0.11889999999999999          0.0000000000000000     
 -0.11780000000000000        -0.13998451828956604     
 -0.11670000000000000          5.2324008196592331E-002
 -0.11559999999999999         0.56046336889266968     
 -0.11449999999999999          9.9298387765884399E-002
 -0.11340000000000000         -1.1527036428451538     
 -0.11230000000000000        -0.55342328548431396     
 -0.11119999999999999          1.6516824960708618     
 -0.11009999999999999         0.39463508129119873     
 -0.10900000000000000         -4.3418312072753906     
 -0.10790000000000000         -2.0974111557006836     
 -0.10679999999999999          11.097187995910645     
 -0.10569999999999999          16.248786926269531     
 -0.10460000000000000         -6.1147117614746094     
 -0.10349999999999999         -35.920642852783203     
 -0.10239999999999999         -27.007154464721680     
 -0.10130000000000000          23.177309036254883     
 -0.10020000000000000          51.184902191162109     
  -9.9099999999999994E-002     11.960802078247070     
  -9.7999999999999990E-002    -41.176055908203125     
  -9.6899999999999986E-002    -21.417095184326172     
  -9.5799999999999996E-002     52.184204101562500     
  -9.4699999999999993E-002     60.060821533203125     
  -9.3599999999999989E-002    -39.851131439208984     
  -9.2499999999999999E-002    -121.23011779785156     
  -9.1399999999999995E-002    -59.311553955078125     
  -9.0299999999999991E-002     63.293334960937500     
  -8.9200000000000002E-002     46.401245117187500     
  -8.8099999999999984E-002    -131.76856994628906     
  -8.6999999999999994E-002    -251.61811828613281     
  -8.5899999999999990E-002    -156.15898132324219     
  -8.4799999999999986E-002     7.4950165748596191     
  -8.3699999999999997E-002    -11.777790069580078     
  -8.2599999999999993E-002    -203.33843994140625     
  -8.1499999999999989E-002    -316.56814575195312     
  -8.0399999999999999E-002    -248.55296325683594     
  -7.9299999999999995E-002    -199.41146850585938     
  -7.8199999999999992E-002    -342.74047851562500     
  -7.7100000000000002E-002    -533.17309570312500     
  -7.5999999999999984E-002    -544.72082519531250     
  -7.4899999999999994E-002    -482.41558837890625     
  -7.3799999999999991E-002    -672.42272949218750     
  -7.2699999999999987E-002    -1133.3579101562500     
  -7.1599999999999997E-002    -1465.3007812500000     
  -7.0499999999999993E-002    -1426.3923339843750     
  -6.9399999999999989E-002    -1365.6361083984375     
  -6.8300000000000000E-002    -1785.9899902343750     
  -6.7199999999999996E-002    -2607.5205078125000     
  -6.6099999999999992E-002    -3242.5722656250000     
  -6.5000000000000002E-002    -3441.0690917968750     
  -6.3899999999999985E-002    -3677.5322265625000     
  -6.2799999999999995E-002    -4480.3691406250000     
  -6.1699999999999991E-002    -5683.8466796875000     
  -6.0599999999999994E-002    -6721.8037109375000     
  -5.9499999999999990E-002    -7509.2973632812500     
  -5.8399999999999994E-002    -8558.7246093750000     
  -5.7299999999999990E-002    -10166.128906250000     
  -5.6199999999999986E-002    -11959.749023437500     
  -5.5099999999999996E-002    -13540.309570312500     
  -5.3999999999999992E-002    -15197.578125000000     
  -5.2899999999999989E-002    -17512.744140625000     
  -5.1799999999999985E-002    -20418.779296875000     
  -5.0699999999999995E-002    -23236.359375000000     
  -4.9599999999999991E-002    -25736.531250000000     
  -4.8499999999999988E-002    -28606.759765625000     
  -4.7399999999999998E-002    -32494.746093750000     
  -4.6299999999999994E-002    -37002.273437500000     
  -4.5199999999999990E-002    -41207.859375000000     
  -4.4099999999999986E-002    -45017.488281250000     
  -4.2999999999999997E-002    -49330.500000000000     
  -4.1899999999999993E-002    -54721.804687500000     
  -4.0799999999999989E-002    -60584.398437500000     
  -3.9699999999999985E-002    -66014.601562500000     
  -3.8599999999999995E-002    -71089.148437500000     
  -3.7499999999999992E-002    -76622.234375000000     
  -3.6399999999999988E-002    -82815.867187500000     
  -3.5299999999999984E-002    -88903.359375000000     
  -3.4199999999999994E-002    -94296.414062500000     
  -3.3099999999999991E-002    -99407.429687500000     
  -3.1999999999999987E-002    -104818.96093750000     
  -3.0899999999999997E-002    -110096.48437500000     
  -2.9799999999999993E-002    -114201.00781250000     
  -2.8699999999999989E-002    -116949.21875000000     
  -2.7599999999999986E-002    -119198.41406250000     
  -2.6499999999999996E-002    -121377.67968750000     
  -2.5399999999999992E-002    -122523.04687500000     
  -2.4299999999999988E-002    -121373.15625000000     
  -2.3199999999999985E-002    -117991.72656250000     
  -2.2099999999999995E-002    -113433.70312500000     
  -2.0999999999999991E-002    -107980.27343750000     
  -1.9899999999999987E-002    -100534.91406250000     
  -1.8799999999999983E-002    -90100.210937500000     
  -1.7699999999999994E-002    -77022.125000000000     
  -1.6599999999999990E-002    -62185.156250000000     
  -1.5499999999999986E-002    -45448.300781250000     
  -1.4399999999999996E-002    -25828.689453125000     
  -1.3299999999999992E-002    -3096.1657714843750     
  -1.2199999999999989E-002     21829.314453125000     
  -1.1099999999999985E-002     48251.164062500000     
  -9.9999999999999950E-003     76717.515625000000     
  -8.8999999999999913E-003     108070.23437500000     
  -7.7999999999999875E-003     141855.57812500000     
  -6.6999999999999837E-003     176618.81250000000     
  -5.5999999999999939E-003     211548.15625000000     
  -4.4999999999999901E-003     247250.59375000000     
  -3.3999999999999864E-003     284178.21875000000     
  -2.2999999999999826E-003     321460.56250000000     
  -1.1999999999999927E-003     357521.68750000000     
  -9.9999999999988987E-005     391725.68750000000     
   1.0000000000000148E-003     424439.18750000000     
   2.1000000000000185E-003     455520.56250000000     
   3.2000000000000084E-003     483628.62500000000     
   4.3000000000000121E-003     507475.09375000000     
   5.4000000000000159E-003     527023.75000000000     
   6.5000000000000058E-003     542674.68750000000     
   7.6000000000000234E-003     553848.18750000000     
   8.7000000000000133E-003     559014.75000000000     
   9.8000000000000032E-003     557372.62500000000     
   1.0900000000000021E-002     549460.87500000000     
   1.2000000000000011E-002     535921.56250000000     
   1.3100000000000001E-002     516223.00000000000     
   1.4200000000000018E-002     489385.62500000000     
   1.5300000000000008E-002     455353.37500000000     
   1.6400000000000026E-002     415145.09375000000     
   1.7500000000000016E-002     369465.50000000000     
   1.8600000000000005E-002     318112.28125000000     
   1.9700000000000023E-002     260947.40625000000     
   2.0800000000000013E-002     198924.51562500000     
   2.1900000000000003E-002     133505.14062500000     
   2.3000000000000020E-002     65447.886718750000     
   2.4100000000000010E-002    -5218.7397460937500     
   2.5200000000000000E-002    -78026.273437500000     
   2.6300000000000018E-002    -151414.96875000000     
   2.7400000000000008E-002    -223726.87500000000     
   2.8500000000000025E-002    -294231.00000000000     
   2.9600000000000015E-002    -362657.15625000000     
   3.0700000000000005E-002    -428251.68750000000     
   3.1800000000000023E-002    -489562.59375000000     
   3.2900000000000013E-002    -545452.00000000000     
   3.4000000000000002E-002    -595534.25000000000     
   3.5100000000000020E-002    -639526.93750000000     
   3.6200000000000010E-002    -676644.56250000000     
   3.7300000000000028E-002    -705966.06250000000     
   3.8400000000000017E-002    -727203.00000000000     
   3.9500000000000007E-002    -740622.56250000000     
   4.0600000000000025E-002    -746402.43750000000     
   4.1700000000000015E-002    -744184.75000000000     
   4.2800000000000005E-002    -733741.37500000000     
   4.3900000000000022E-002    -715471.12500000000     
   4.5000000000000012E-002    -690045.87500000000     
   4.6100000000000002E-002    -658141.93750000000     
   4.7200000000000020E-002    -620180.00000000000     
   4.8300000000000010E-002    -576699.43750000000     
   4.9400000000000027E-002    -528435.75000000000     
   5.0500000000000017E-002    -476176.96875000000     
   5.1600000000000007E-002    -420721.40625000000     
   5.2700000000000025E-002    -362915.37500000000     
   5.3800000000000014E-002    -303649.40625000000     
   5.4900000000000004E-002    -243809.75000000000     
   5.6000000000000022E-002    -184093.20312500000     
   5.7100000000000012E-002    -125248.62500000000     
   5.8200000000000002E-002    -67963.789062500000     
   5.9300000000000019E-002    -12924.868164062500     
   6.0400000000000009E-002     39347.398437500000     
   6.1500000000000027E-002     88351.843750000000     
   6.2600000000000017E-002     133502.65625000000     
   6.3700000000000007E-002     174359.43750000000     
   6.4800000000000024E-002     210796.68750000000     
   6.5900000000000014E-002     242918.42187500000     
   6.7000000000000004E-002     270582.37500000000     
   6.8100000000000022E-002     293412.90625000000     
   6.9200000000000012E-002     311285.37500000000     
   7.0300000000000029E-002     324614.21875000000     
   7.1400000000000019E-002     333904.96875000000     
   7.2500000000000009E-002     339220.12500000000     
   7.3600000000000027E-002     340369.12500000000     
   7.4700000000000016E-002     337626.65625000000     
   7.5800000000000006E-002     331842.59375000000     
   7.6900000000000024E-002     323641.59375000000     
   7.8000000000000014E-002     312935.81250000000     
   7.9100000000000004E-002     299516.90625000000     
   8.0200000000000021E-002     283963.93750000000     
   8.1300000000000011E-002     267379.62500000000     
   8.2400000000000029E-002     250268.50000000000     
   8.3500000000000019E-002     232251.20312500000     
   8.4600000000000009E-002     213121.53125000000     
   8.5700000000000026E-002     193656.78125000000     
   8.6800000000000016E-002     174823.92187500000     
   8.7900000000000006E-002     156674.03125000000     
   8.9000000000000024E-002     138568.37500000000     
   9.0100000000000013E-002     120490.51562500000     
   9.1200000000000003E-002     103462.59375000000     
   9.2300000000000021E-002     88178.835937500000     
   9.3400000000000011E-002     74012.609375000000     
   9.4500000000000028E-002     60049.738281250000     
   9.5600000000000018E-002     46574.917968750000     
   9.6700000000000008E-002     34788.113281250000     
   9.7800000000000026E-002     25058.960937500000     
   9.8900000000000016E-002     16345.620117187500     
  0.10000000000000001          7723.2993164062500     
  0.10110000000000002         -258.67388916015625     
  0.10220000000000001         -6483.3676757812500     
  0.10330000000000003         -11099.638671875000     
  0.10440000000000002         -15354.348632812500     
  0.10550000000000001         -19730.277343750000     
  0.10660000000000003         -23221.412109375000     
  0.10770000000000002         -25003.699218750000     
  0.10880000000000001         -25901.503906250000     
  0.10990000000000003         -27293.460937500000     
  0.11100000000000002         -29085.421875000000     
  0.11210000000000001         -29836.437500000000     
  0.11320000000000002         -29033.398437500000     
  0.11430000000000001         -27957.664062500000     
  0.11540000000000003         -27872.691406250000     
  0.11650000000000002         -28184.929687500000     
  0.11760000000000001         -27432.500000000000     
  0.11870000000000003         -25590.806640625000     
  0.11980000000000002         -24132.980468750000     
  0.12090000000000001         -23766.128906250000     
  0.12200000000000003         -23359.263671875000     
  0.12310000000000001         -21747.447265625000     
  0.12420000000000003         -19618.621093750000     
  0.12530000000000002         -18529.765625000000     
  0.12640000000000001         -18496.816406250000     
  0.12750000000000003         -17916.486328125000     
  0.12860000000000002         -16011.626953125000     
  0.12970000000000001         -14059.915039062500     
  0.13080000000000003         -13477.746093750000     
  0.13190000000000002         -13678.958984375000     
  0.13300000000000001         -12979.139648437500     
  0.13410000000000000         -11177.772460937500     
  0.13520000000000004         -9838.9423828125000     
  0.13630000000000003         -9864.3251953125000     
  0.13740000000000002         -10092.517578125000     
  0.13850000000000001         -9105.8261718750000     
  0.13960000000000000         -7436.1508789062500     
  0.14070000000000005         -6768.7338867187500     
  0.14180000000000004         -7337.3041992187500     
  0.14290000000000003         -7539.7255859375000     
  0.14400000000000002         -6373.0478515625000     
  0.14510000000000001         -4957.0039062500000     
  0.14620000000000000         -4814.6645507812500     
  0.14730000000000004         -5557.4892578125000     
  0.14840000000000003         -5520.3847656250000     
  0.14950000000000002         -4330.2377929687500     
  0.15060000000000001         -3439.1440429687500     
  0.15170000000000000         -3837.6350097656250     
  0.15280000000000005         -4511.8422851562500     
  0.15390000000000004         -4025.6042480468750     
  0.15500000000000003         -2771.7324218750000     
  0.15610000000000002         -2392.9047851562500     
  0.15720000000000001         -3249.6525878906250     
  0.15830000000000000         -3835.8024902343750     
  0.15940000000000004         -3048.0073242187500     
  0.16050000000000003         -1851.4178466796875     
  0.16160000000000002         -1804.5520019531250     
  0.16270000000000001         -2730.4641113281250     
  0.16380000000000000         -3045.0988769531250     
  0.16490000000000005         -2178.9929199218750     
  0.16600000000000004         -1371.8093261718750     
  0.16710000000000003         -1700.0721435546875     
  0.16820000000000002         -2439.5002441406250     
  0.16930000000000001         -2251.6025390625000     
  0.17040000000000000         -1288.1933593750000     
  0.17150000000000004         -945.25836181640625     
  0.17260000000000003         -1673.6789550781250     
  0.17370000000000002         -2260.1057128906250     
  0.17480000000000001         -1684.2895507812500     
  0.17590000000000000         -683.53454589843750     
  0.17700000000000005         -636.33184814453125     
  0.17810000000000004         -1489.3382568359375     
  0.17920000000000003         -1873.4760742187500     
  0.18030000000000002         -1181.3347167968750     
  0.18140000000000001         -428.23590087890625     
  0.18250000000000000         -653.78521728515625     
  0.18360000000000004         -1370.7413330078125     
  0.18470000000000003         -1385.1951904296875     
  0.18580000000000002         -643.62774658203125     
  0.18690000000000001         -260.47994995117188     
  0.18800000000000000         -763.15789794921875     
  0.18910000000000005         -1292.4714355468750     
  0.19020000000000004         -951.62976074218750     
  0.19130000000000003         -178.37181091308594     
  0.19240000000000002         -53.662311553955078     
  0.19350000000000001         -648.41564941406250     
  0.19460000000000005         -946.50988769531250     
  0.19570000000000004         -400.16842651367188     
  0.19680000000000003          278.86862182617188     
  0.19790000000000002          243.71954345703125     
  0.19900000000000001         -218.35752868652344     
  0.20010000000000000         -175.04652404785156     
  0.20120000000000005          526.14062500000000     
  0.20230000000000004          1081.6146240234375     
  0.20340000000000003          994.30102539062500     
  0.20450000000000002          808.17950439453125     
  0.20560000000000000          1238.6611328125000     
  0.20670000000000005          2097.1464843750000     
  0.20780000000000004          2631.6933593750000     
  0.20890000000000003          2691.3266601562500     
