 -0.12000000000000000          0.0000000000000000     
 -0.11889999999999999          0.0000000000000000     
 -0.11780000000000000          5.7030744571306968E-009
 -0.11670000000000000          6.2262333067053532E-009
 -0.11559999999999999         -2.3212114896864477E-008
 -0.11449999999999999         -3.3697602930260473E-008
 -0.11340000000000000          5.4658219283965082E-008
 -0.11230000000000000          1.2594780685049045E-007
 -0.11119999999999999         -5.2622198154494981E-008
 -0.11009999999999999         -3.1760399110680737E-007
 -0.10900000000000000         -1.0819387341598485E-007
 -0.10790000000000000          5.4488822343046195E-007
 -0.10679999999999999          5.8939741620633868E-007
 -0.10569999999999999         -5.1740352091655950E-007
 -0.10460000000000000         -1.3211160876380745E-006
 -0.10349999999999999         -8.3326980870879197E-008
 -0.10239999999999999          1.9580515981942881E-006
 -0.10130000000000000          1.4124536846793490E-006
 -0.10020000000000000         -1.9452750166237820E-006
  -9.9099999999999994E-002    -3.3329824873362668E-006
  -9.7999999999999990E-002     5.4442188002212788E-007
  -9.6899999999999986E-002     5.1065931074845139E-006
  -9.5799999999999996E-002     2.9420914415823063E-006
  -9.4699999999999993E-002    -4.6294449020933826E-006
  -9.3599999999999989E-002    -7.1327826844935771E-006
  -9.2499999999999999E-002     5.5259852160816081E-007
  -9.1399999999999995E-002     8.8268352556042373E-006
  -9.0299999999999991E-002     5.4045422075432725E-006
  -8.9200000000000002E-002    -6.2548401729145553E-006
  -8.8099999999999984E-002    -1.0008990102505777E-005
  -8.6999999999999994E-002     1.3866683445939998E-007
  -8.5899999999999990E-002     1.0309046956535894E-005
  -8.4799999999999986E-002     6.2049061853031162E-006
  -8.3699999999999997E-002    -5.8799737416848075E-006
  -8.2599999999999993E-002    -8.4262637756182812E-006
  -8.1499999999999989E-002     9.7220561201538658E-007
  -8.0399999999999999E-002     6.6568959482538048E-006
  -7.9299999999999995E-002     2.2712009695169399E-007
  -7.8199999999999992E-002    -5.9926337598881219E-006
  -7.7100000000000002E-002     1.4317589602796943E-007
  -7.5999999999999984E-002     8.6115069279912859E-006
  -7.4899999999999994E-002     2.1689763798349304E-006
  -7.3799999999999991E-002    -1.2870734281023033E-005
  -7.2699999999999987E-002    -1.1679642739181872E-005
  -7.1599999999999997E-002     9.8755390354199335E-006
  -7.0499999999999993E-002     2.2380248992703855E-005
  -6.9399999999999989E-002     3.4236998089909321E-006
  -6.8300000000000000E-002    -2.5093066142289899E-005
  -6.7199999999999996E-002    -2.3286149371415377E-005
  -6.6099999999999992E-002     9.1063311629113741E-006
  -6.5000000000000002E-002     2.8763199225068092E-005
  -6.3899999999999985E-002     8.8667638920014724E-006
  -6.2799999999999995E-002    -2.2660888134851120E-005
  -6.1699999999999991E-002    -2.3612274162587710E-005
  -6.0599999999999994E-002     2.6590973902784754E-006
  -5.9499999999999990E-002     1.6138992577907629E-005
  -5.8399999999999994E-002     1.5823723060748307E-006
  -5.7299999999999990E-002    -1.2537865586637054E-005
  -5.6199999999999986E-002    -4.1016428440343589E-006
  -5.5099999999999996E-002     6.2197659644880332E-006
  -5.3999999999999992E-002    -7.8852190199540928E-006
  -5.2899999999999989E-002    -2.8491554985521361E-005
  -5.1799999999999985E-002    -1.7085834770114161E-005
  -5.0699999999999995E-002     1.9338274796609767E-005
  -4.9599999999999991E-002     2.7518388378666714E-005
  -4.8499999999999988E-002    -1.4171545444696676E-005
  -4.7399999999999998E-002    -5.4590993386227638E-005
  -4.6299999999999994E-002    -3.6883815482724458E-005
  -4.5199999999999990E-002     1.7801043213694356E-005
  -4.4099999999999986E-002     3.5672823287313804E-005
  -4.2999999999999997E-002    -6.5790677581389900E-006
  -4.1899999999999993E-002    -5.0315127737121657E-005
  -4.0799999999999989E-002    -4.0484315832145512E-005
  -3.9699999999999985E-002    -1.0028878705270472E-006
  -3.8599999999999995E-002     8.4143430285621434E-006
  -3.7499999999999992E-002    -1.7035294149536639E-005
  -3.6399999999999988E-002    -2.8461108740884811E-005
  -3.5299999999999984E-002    -7.7335052992566489E-006
  -3.4199999999999994E-002     3.1578083508065902E-006
  -3.3099999999999991E-002    -2.4511906303814612E-005
  -3.1999999999999987E-002    -5.0448332331143320E-005
  -3.0899999999999997E-002    -2.4376884539378807E-005
  -2.9799999999999993E-002     2.7967467758571729E-005
  -2.8699999999999989E-002     3.2297575671691447E-005
  -2.7599999999999986E-002    -2.3697473807260394E-005
  -2.6499999999999996E-002    -6.3480103563051671E-005
  -2.5399999999999992E-002    -2.8490960175986402E-005
  -2.4299999999999988E-002     3.6128851206740364E-005
  -2.3199999999999985E-002     4.6466022467939183E-005
  -2.2099999999999995E-002    -6.1615793356395443E-007
  -2.0999999999999991E-002    -2.8609023502212949E-005
  -1.9899999999999987E-002     2.0734412373712985E-006
  -1.8799999999999983E-002     4.0804654418025166E-005
  -1.7699999999999994E-002     3.3744709071470425E-005
  -1.6599999999999990E-002     7.4063696047232952E-006
  -1.5499999999999986E-002     1.9893710486940108E-005
  -1.4399999999999996E-002     6.3146209868136793E-005
  -1.3299999999999992E-002     7.2236114647239447E-005
  -1.2199999999999989E-002     3.0458872060989961E-005
  -1.1099999999999985E-002     3.9711781028017867E-006
  -9.9999999999999950E-003     4.4311436795396730E-005
  -8.8999999999999913E-003     1.0469658445799723E-004
  -7.7999999999999875E-003     1.0453541472088546E-004
  -6.6999999999999837E-003     4.9144477088702843E-005
  -5.5999999999999939E-003     2.0980249246349558E-005
  -4.4999999999999901E-003     5.7449618907412514E-005
  -3.3999999999999864E-003     1.0280248534400016E-004
  -2.2999999999999826E-003     9.3864298833068460E-005
  -1.1999999999999927E-003     5.0621427362784743E-005
  -9.9999999999988987E-005     4.1103634430328384E-005
   1.0000000000000148E-003     7.2657625423744321E-005
   2.1000000000000185E-003     8.5093357483856380E-005
   3.2000000000000084E-003     4.8157853598240763E-005
   4.3000000000000121E-003     1.0479933735041413E-005
   5.4000000000000159E-003     2.5776313123060390E-005
   6.5000000000000058E-003     6.2976614572107792E-005
   7.6000000000000234E-003     5.1891311159124598E-005
   8.7000000000000133E-003    -6.8799809014308266E-006
   9.8000000000000032E-003    -4.1611139749875292E-005
   1.0900000000000021E-002    -1.6587491700192913E-005
   1.2000000000000011E-002     1.4720342733198777E-005
   1.3100000000000001E-002    -7.5260672929289285E-006
   1.4200000000000018E-002    -6.2105267716106027E-005
   1.5300000000000008E-002    -8.2547754573170096E-005
   1.6400000000000026E-002    -5.6939032219815999E-005
   1.7500000000000016E-002    -4.2388121073599905E-005
   1.8600000000000005E-002    -7.3394541686866432E-005
   1.9700000000000023E-002    -1.1021426325896755E-004
   2.0800000000000013E-002    -1.0445271618664265E-004
   2.1900000000000003E-002    -7.5212308729533106E-005
   2.3000000000000020E-002    -7.7545184467453510E-005
   2.4100000000000010E-002    -1.1442622781032696E-004
   2.5200000000000000E-002    -1.3138998474460095E-004
   2.6300000000000018E-002    -1.0157574433833361E-004
   2.7400000000000008E-002    -6.7812834458891302E-005
   2.8500000000000025E-002    -7.7974029409233481E-005
   2.9600000000000015E-002    -1.1066397564718500E-004
   3.0700000000000005E-002    -1.0979632497765124E-004
   3.1800000000000023E-002    -6.9109810283407569E-005
   3.2900000000000013E-002    -3.8192545616766438E-005
   3.4000000000000002E-002    -4.8634585255058482E-005
   3.5100000000000020E-002    -6.7894354288000613E-005
   3.6200000000000010E-002    -5.4049909522291273E-005
   3.7300000000000028E-002    -1.8490283764549531E-005
   3.8400000000000017E-002    -2.1065518467366928E-006
   3.9500000000000007E-002    -1.0762272722786292E-005
   4.0600000000000025E-002    -8.9230543380836025E-006
   4.1700000000000015E-002     1.8233633454656228E-005
   4.2800000000000005E-002     3.9133319660322741E-005
   4.3900000000000022E-002     3.2131552870851010E-005
   4.5000000000000012E-002     2.1174106223043054E-005
   4.6100000000000002E-002     3.4522276109782979E-005
   4.7200000000000020E-002     6.4034349634312093E-005
   4.8300000000000010E-002     7.6548851211555302E-005
   4.9400000000000027E-002     5.9363126638345420E-005
   5.0500000000000017E-002     4.0144339436665177E-005
   5.1600000000000007E-002     4.5965796743985265E-005
   5.2700000000000025E-002     6.7097775172442198E-005
   5.3800000000000014E-002     7.6225558586884290E-005
   5.4900000000000004E-002     6.7130516981706023E-005
   5.6000000000000022E-002     5.6414788559777662E-005
   5.7100000000000012E-002     5.2152827265672386E-005
   5.8200000000000002E-002     4.5940138079458848E-005
   5.9300000000000019E-002     3.5912344173993915E-005
   6.0400000000000009E-002     3.4399537980789319E-005
   6.1500000000000027E-002     4.3680189264705405E-005
   6.2600000000000017E-002     4.5670069084735587E-005
   6.3700000000000007E-002     2.7839434551424347E-005
   6.4800000000000024E-002     5.2524183047353290E-006
   6.5900000000000014E-002     1.4573151929653250E-006
   6.7000000000000004E-002     1.3101262993586715E-005
   6.8100000000000022E-002     1.6471685739816166E-005
   6.9200000000000012E-002     4.8330730351153761E-006
   7.0300000000000029E-002    -4.3406262193457223E-006
   7.1400000000000019E-002    -1.6257380366369034E-006
   7.2500000000000009E-002    -2.5750725853868062E-006
   7.3600000000000027E-002    -1.8128175724996254E-005
   7.4700000000000016E-002    -3.0349285225383937E-005
   7.5800000000000006E-002    -1.8627308236318640E-005
   7.6900000000000024E-002     2.9585969514300814E-006
   7.8000000000000014E-002     1.6466324268549215E-006
   7.9100000000000004E-002    -2.3858530767029151E-005
   8.0200000000000021E-002    -3.8492635212605819E-005
   8.1300000000000011E-002    -2.2241956685320474E-005
   8.2400000000000029E-002    -8.0273827052224078E-007
   8.3500000000000019E-002    -5.2219006647646893E-006
   8.4600000000000009E-002    -2.2624315533903427E-005
   8.5700000000000026E-002    -1.8849379557650536E-005
   8.6800000000000016E-002     2.5452270620007766E-006
   8.7900000000000006E-002     2.7683634016284486E-006
   8.9000000000000024E-002    -2.6458388674654998E-005
   9.0100000000000013E-002    -4.0301922126673162E-005
   9.1200000000000003E-002    -7.2166217250924092E-006
   9.2300000000000021E-002     3.4561991924419999E-005
   9.3400000000000011E-002     2.5737195755937137E-005
   9.4500000000000028E-002    -2.4474944439134561E-005
   9.5600000000000018E-002    -4.6393310185521841E-005
   9.6700000000000008E-002    -1.0269852282362990E-005
   9.7800000000000026E-002     3.1614683393854648E-005
   9.8900000000000016E-002     2.3526132281403989E-005
  0.10000000000000001         -1.3201396541262511E-005
  0.10110000000000002         -1.8898381313192658E-005
  0.10220000000000001          9.5782115749898367E-006
  0.10330000000000003          1.8415705199004151E-005
  0.10440000000000002         -1.0966437912429683E-005
  0.10550000000000001         -2.7491914806887507E-005
  0.10660000000000003          6.5578501562413294E-006
  0.10770000000000002          4.5957207476021722E-005
  0.10880000000000001          2.5577459382475354E-005
  0.10990000000000003         -3.4295324439881369E-005
  0.11100000000000002         -4.8422109102830291E-005
  0.11210000000000001          7.6474007073557004E-006
  0.11320000000000002          5.5617019825149328E-005
  0.11430000000000001          2.7154310373589396E-005
  0.11540000000000003         -3.4458997106412426E-005
  0.11650000000000002         -3.9090977224987000E-005
  0.11760000000000001          1.5299683582270518E-005
  0.11870000000000003          4.2571071389829740E-005
  0.11980000000000002          2.4626874619571026E-006
  0.12090000000000001         -3.8679201679769903E-005
  0.12200000000000003         -1.3894605217501521E-005
  0.12310000000000001          3.8057460187701508E-005
  0.12420000000000003          3.2765139621915296E-005
  0.12530000000000002         -2.5837769499048591E-005
  0.12640000000000001         -4.8125009925570339E-005
  0.12750000000000003          2.7463424885354470E-006
  0.12860000000000002          5.1311046263435856E-005
  0.12970000000000001          2.4069482606137171E-005
  0.13080000000000003         -3.7211335438769311E-005
  0.13190000000000002         -3.9143549656728283E-005
  0.13300000000000001          1.9340946892043576E-005
  0.13410000000000000          4.5611923269461840E-005
  0.13520000000000004         -2.2237027224036865E-006
  0.13630000000000003         -4.9020040023606271E-005
  0.13740000000000002         -1.8969039956573397E-005
  0.13850000000000001          4.4577936932910234E-005
  0.13960000000000000          4.3224517867201939E-005
  0.14070000000000005         -2.4669878257554956E-005
  0.14180000000000004         -5.8407720644026995E-005
  0.14290000000000003         -7.0102873905852903E-006
  0.14400000000000002          5.3012343414593488E-005
  0.14510000000000001          3.3559030271135271E-005
  0.14620000000000000         -3.2913954782998189E-005
  0.14730000000000004         -4.5604359911521897E-005
  0.14840000000000003          1.0597020263958257E-005
  0.14950000000000002          4.5561642764369026E-005
  0.15060000000000001          5.9716217037930619E-006
  0.15170000000000000         -4.2959676648024470E-005
  0.15280000000000005         -2.1647612811648287E-005
  0.15390000000000004          3.7941354094073176E-005
  0.15500000000000003          4.1209867049474269E-005
  0.15610000000000002         -2.0973968275939114E-005
  0.15720000000000001         -5.5305717978626490E-005
  0.15830000000000000         -8.1274447438772768E-006
  0.15940000000000004          5.1528266340028495E-005
  0.16050000000000003          3.5774879506789148E-005
  0.16160000000000002         -3.0037668693694286E-005
  0.16270000000000001         -4.7784451453480870E-005
  0.16380000000000000          4.7488019845332019E-006
  0.16490000000000005          4.4386317313183099E-005
  0.16600000000000004          1.2842955584346782E-005
  0.16710000000000003         -3.6156838177703321E-005
  0.16820000000000002         -2.4318951545865275E-005
  0.16930000000000001          2.8526550522656180E-005
  0.17040000000000000          3.6944507883163169E-005
  0.17150000000000004         -1.5191002603387460E-005
  0.17260000000000003         -4.8072950448840857E-005
  0.17370000000000002         -8.9735021902015433E-006
  0.17480000000000001          4.5391512685455382E-005
  0.17590000000000000          3.4047778171952814E-005
  0.17700000000000005         -2.6049174266518094E-005
  0.17810000000000004         -4.6463246690109372E-005
  0.17920000000000003         -5.8323841756191541E-008
  0.18030000000000002          4.1702995076775551E-005
  0.18140000000000001          1.9179246010025963E-005
  0.18250000000000000         -2.8452070182538591E-005
  0.18360000000000004         -2.8231488613528199E-005
  0.18470000000000003          1.5126384823815897E-005
  0.18580000000000002          3.1554580345982686E-005
  0.18690000000000001         -3.3851265470730141E-006
  0.18800000000000000         -3.2699481380404904E-005
  0.18910000000000005         -9.3268699856707826E-006
  0.19020000000000004          3.0449262339971028E-005
  0.19130000000000003          2.4336177375516854E-005
  0.19240000000000002         -1.9272500139777549E-005
  0.19350000000000001         -3.4563407098175958E-005
  0.19460000000000005          9.7281429134454811E-007
  0.19570000000000004          3.3497133699711412E-005
  0.19680000000000003          1.5644915038137697E-005
  0.19790000000000002         -2.3297547159017995E-005
  0.19900000000000001         -2.4682669391040690E-005
  0.20010000000000000          1.0825639037648216E-005
  0.20120000000000005          2.7846319426316768E-005
  0.20230000000000004          2.2420317691285163E-006
  0.20340000000000003         -2.4690529244253412E-005
  0.20450000000000002         -1.2109890121791977E-005
  0.20560000000000000          1.8843400539481081E-005
  0.20670000000000005          2.0004055841127411E-005
  0.20780000000000004         -9.9919416243210435E-006
  0.20890000000000003         -2.5803736207308248E-005
