 -0.12000000000000000          0.0000000000000000
 -0.11914999999999999          0.0000000000000000
 -0.11830000000000000          0.0000000000000000
 -0.11745000000000000          0.0000000000000000
 -0.11660000000000000          0.0000000000000000
 -0.11574999999999999          0.0000000000000000
 -0.11490000000000000          0.0000000000000000
 -0.11405000000000000          0.0000000000000000
 -0.11320000000000000          0.0000000000000000
 -0.11234999999999999          0.0000000000000000
 -0.11150000000000000          0.0000000000000000
 -0.11065000000000000          0.0000000000000000
 -0.10979999999999999          0.0000000000000000
 -0.10894999999999999          0.0000000000000000
 -0.10810000000000000          6.9608523745710192E-037
 -0.10725000000000000          7.7049047572834744E-036
 -0.10639999999999999          1.3012684441866303E-035
 -0.10554999999999999         -2.8372185865283766E-034
 -0.10470000000000000         -2.5509422011128057E-033
 -0.10385000000000000         -1.0099185652602453E-032
 -0.10299999999999999         -1.4498074503285807E-032
 -0.10214999999999999          5.8951590834898100E-032
 -0.10130000000000000          4.1808131403806387E-031
 -0.10045000000000000          1.1704973943470119E-030
  -9.9599999999999994E-002     1.0713595773443387E-030
  -9.8750000000000004E-002    -4.7417622962442794E-030
  -9.7900000000000001E-002    -2.3673496117970470E-029
  -9.7049999999999997E-002    -4.9630248236198500E-029
  -9.6199999999999994E-002    -2.4332683024845970E-029
  -9.5349999999999990E-002     1.8702392978938039E-028
  -9.4500000000000001E-002     6.7875264405572382E-028
  -9.3649999999999997E-002     1.0975977276575201E-027
  -9.2799999999999994E-002     1.1265109576009939E-028
  -9.1950000000000004E-002    -4.2652999717144651E-027
  -9.1100000000000000E-002    -1.1901433351094501E-026
  -9.0249999999999997E-002    -1.5115601958365668E-026
  -8.9399999999999993E-002     4.2336477624419356E-027
  -8.8549999999999990E-002     6.3275883448122836E-026
  -8.7700000000000000E-002     1.4286338057221104E-025
  -8.6849999999999997E-002     1.4484551796739494E-025
  -8.5999999999999993E-002    -9.5794649589711620E-026
  -8.5150000000000003E-002    -6.6083650773685522E-025
  -8.4300000000000000E-002    -1.2625359474220287E-024
  -8.3449999999999996E-002    -1.0482306277927967E-024
  -8.2600000000000007E-002     1.0523281741000032E-024
  -8.1749999999999989E-002     5.1140046746936833E-024
  -8.0900000000000000E-002     8.6144368377077062E-024
  -8.0049999999999996E-002     6.1400114723581320E-024
  -7.9199999999999993E-002    -7.4535110968393862E-024
  -7.8350000000000003E-002    -3.0188666429770686E-023
  -7.7499999999999999E-002    -4.6691889419325306E-023
  -7.6649999999999996E-002    -3.0892199461120713E-023
  -7.5800000000000006E-002     3.5865261469279684E-023
  -7.4949999999999989E-002     1.3665341179779337E-022
  -7.4099999999999999E-002     2.0287606607638049E-022
  -7.3249999999999996E-002     1.3861031653418231E-022
  -7.2399999999999992E-002    -1.0700976549674647E-022
  -7.1550000000000002E-002    -4.5744869604681438E-022
  -7.0699999999999999E-002    -6.9225240871812719E-022
  -6.9849999999999995E-002    -5.5359316954509424E-022
  -6.9000000000000006E-002     5.8791915915024404E-023
  -6.8149999999999988E-002     9.4707861818715378E-022
  -6.7299999999999999E-002     1.6822893050628436E-021
  -6.6449999999999995E-002     1.8736918111640867E-021
  -6.5599999999999992E-002     1.4016877865392981E-021
  -6.4750000000000002E-002     3.1838891915142310E-022
  -6.3899999999999998E-002    -1.5572313692986907E-021
  -6.3049999999999995E-002    -4.7774010708270232E-021
  -6.2199999999999998E-002    -9.3935304269069934E-021
  -6.1350000000000002E-002    -1.3139808404513703E-020
  -6.0499999999999998E-002    -1.0346053633587179E-020
  -5.9650000000000002E-002     5.7500808663875698E-021
  -5.8799999999999998E-002     3.6134799152983045E-020
  -5.7950000000000002E-002     6.7909625095414577E-020
  -5.7099999999999998E-002     7.2976308376338602E-020
  -5.6249999999999994E-002     2.1309516927688371E-020
  -5.5400000000000005E-002    -9.2262055473482224E-020
  -5.4550000000000001E-002    -2.2337892013572980E-019
  -5.3699999999999998E-002    -2.8039417958847557E-019
  -5.2849999999999994E-002    -1.6951083471189645E-019
  -5.2000000000000005E-002     1.3060111638595634E-019
  -5.1150000000000001E-002     5.1190090085178528E-019
  -5.0299999999999997E-002     7.5401774256703198E-019
  -4.9449999999999994E-002     6.3522146372531124E-019
  -4.8600000000000004E-002     8.7731253047913709E-020
  -4.7750000000000001E-002    -7.0705765988548242E-019
  -4.6899999999999997E-002    -1.3734565543322025E-018
  -4.6049999999999994E-002    -1.5408357931874496E-018
  -4.5200000000000004E-002    -1.0634243480482379E-018
  -4.4350000000000001E-002    -9.5809850162645544E-020
  -4.3499999999999997E-002     1.0424084365861520E-018
  -4.2649999999999993E-002     2.0942983807331648E-018
  -4.1800000000000004E-002     2.9516248203702107E-018
  -4.0950000000000000E-002     3.4636830786643325E-018
  -4.0099999999999997E-002     3.1264666080379997E-018
  -3.9249999999999993E-002     1.0660036425255637E-018
  -3.8400000000000004E-002    -3.3492510148894230E-018
  -3.7550000000000000E-002    -9.4380145363042078E-018
  -3.6699999999999997E-002    -1.4481168998375616E-017
  -3.5850000000000007E-002    -1.4333317769216904E-017
  -3.5000000000000003E-002    -5.6978375679696115E-018
  -3.4150000000000000E-002     1.0911860077011410E-017
  -3.3299999999999996E-002     2.9559164050520539E-017
  -3.2450000000000007E-002     4.0444491429997963E-017
  -3.1600000000000003E-002     3.4694011889341770E-017
  -3.0750000000000000E-002     1.0032855428759606E-017
  -2.9899999999999996E-002    -2.6286217473581370E-017
  -2.9050000000000006E-002    -5.9785981502190280E-017
  -2.8200000000000003E-002    -7.5556038027757350E-017
  -2.7349999999999999E-002    -6.5580112618965416E-017
  -2.6499999999999996E-002    -3.1989204409224076E-017
  -2.5650000000000006E-002     1.5568388928426732E-017
  -2.4800000000000003E-002     6.5802496730949831E-017
  -2.3949999999999999E-002     1.0969997652461275E-016
  -2.3099999999999996E-002     1.3914118007110618E-016
  -2.2250000000000006E-002     1.4224831749910864E-016
  -2.1400000000000002E-002     1.0211594638236180E-016
  -2.0549999999999999E-002     4.7820227480587109E-018
  -1.9699999999999995E-002    -1.4483694049723763E-016
  -1.8850000000000006E-002    -3.0926348824709411E-016
  -1.8000000000000002E-002    -4.2054931405662336E-016
  -1.7149999999999999E-002    -4.0465081823435705E-016
  -1.6299999999999995E-002    -2.2001939490678892E-016
  -1.5450000000000005E-002     1.1026385954451833E-016
  -1.4600000000000002E-002     4.9399529196632643E-016
  -1.3749999999999998E-002     7.9995262833673513E-016
  -1.2899999999999995E-002     9.0876132055658432E-016
  -1.2050000000000005E-002     7.5764057694515716E-016
  -1.1200000000000002E-002     3.5694353960870132E-016
  -1.0349999999999998E-002    -2.2352213217450449E-016
  -9.5000000000000084E-003    -8.7982044965987718E-016
  -8.6500000000000049E-003    -1.4877627923274450E-015
  -7.8000000000000014E-003    -1.8988979286064880E-015
  -6.9499999999999978E-003    -1.9377926596615651E-015
  -6.1000000000000082E-003    -1.4321886961038648E-015
  -5.2500000000000047E-003    -2.9140846232906471E-016
  -4.4000000000000011E-003     1.3909520394765757E-015
  -3.5499999999999976E-003     3.2703007467124500E-015
  -2.7000000000000079E-003     4.7835926499064518E-015
  -1.8500000000000044E-003     5.3026740379826538E-015
  -1.0000000000000009E-003     4.3626285655346851E-015
  -1.4999999999999736E-004     1.8675366345861026E-015
   6.9999999999999230E-004    -1.8237773844599016E-015
   1.5499999999999958E-003    -5.9720428681024189E-015
   2.3999999999999994E-003    -9.6501384979367206E-015
   3.2500000000000029E-003    -1.1957674604818807E-014
   4.0999999999999925E-003    -1.2169350353507216E-014
   4.9499999999999961E-003    -9.7932839466855131E-015
   5.7999999999999996E-003    -4.5902584424342473E-015
   6.6499999999999893E-003     3.3645683974475416E-015
   7.5000000000000067E-003     1.3533602474258426E-014
   8.3499999999999963E-003     2.4719940866506054E-014
   9.1999999999999860E-003     3.4928154724616193E-014
   1.0050000000000003E-002     4.1399582380348413E-014
   1.0899999999999993E-002     4.0890105862859526E-014
   1.1750000000000010E-002     3.0194371680529058E-014
   1.2600000000000000E-002     6.8912350208343005E-015
   1.3449999999999990E-002    -2.9704124352341478E-014
   1.4300000000000007E-002    -7.7402258690720425E-014
   1.5149999999999997E-002    -1.2994155369413983E-013
   1.5999999999999986E-002    -1.7609088480826572E-013
   1.6850000000000004E-002    -1.9969453770212169E-013
   1.7699999999999994E-002    -1.8144218330216604E-013
   1.8549999999999983E-002    -1.0294378613867645E-013
   1.9400000000000001E-002     4.6943964881962578E-014
   2.0249999999999990E-002     2.6454053204840368E-013
   2.1100000000000008E-002     5.2447210865374545E-013
   2.1949999999999997E-002     7.7605868887707071E-013
   2.2799999999999987E-002     9.4544463104284387E-013
   2.3650000000000004E-002     9.4516373147289763E-013
   2.4499999999999994E-002     6.9141689171690872E-013
   2.5349999999999984E-002     1.2755776310210543E-013
   2.6200000000000001E-002    -7.4959145348354732E-013
   2.7049999999999991E-002    -1.8656698245614004E-012
   2.7900000000000008E-002    -3.0532429061655964E-012
   2.8749999999999998E-002    -4.0514378922374257E-012
   2.9599999999999987E-002    -4.5264413494890999E-012
   3.0450000000000005E-002    -4.1159773157294828E-012
   3.1299999999999994E-002    -2.4966910202052772E-012
   3.2149999999999984E-002     5.3196296650940015E-013
   3.3000000000000002E-002     4.9592478055641486E-012
   3.3849999999999991E-002     1.0486439604601580E-011
   3.4700000000000009E-002     1.6480449886641992E-011
   3.5549999999999998E-002     2.1975464297578532E-011
   3.6399999999999988E-002     2.5736121811934268E-011
   3.7250000000000005E-002     2.6388286042905369E-011
   3.8099999999999995E-002     2.2613634707145963E-011
   3.8949999999999985E-002     1.3392612665542012E-011
   3.9800000000000002E-002    -1.7314850783588367E-012
   4.0649999999999992E-002    -2.2404798174666969E-011
   4.1500000000000009E-002    -4.7275888535459933E-011
   4.2349999999999999E-002    -7.3914267506530065E-011
   4.3199999999999988E-002    -9.8873067351675718E-011
   4.4050000000000006E-002    -1.1791983074117374E-010
   4.4899999999999995E-002    -1.2643834804657361E-010
   4.5749999999999985E-002    -1.1997911252693110E-010
   4.6600000000000003E-002    -9.4910649283869301E-011
   4.7449999999999992E-002    -4.9101209864821354E-011
   4.8299999999999982E-002     1.7454337574660858E-011
   4.9149999999999999E-002     1.0215282862866496E-010
   4.9999999999999989E-002     1.9953132514740396E-010
   5.0850000000000006E-002     3.0131099480469258E-010
   5.1699999999999996E-002     3.9677414064456137E-010
   5.2549999999999986E-002     4.7347241506422708E-010
   5.3400000000000003E-002     5.1822355306006802E-010
   5.4249999999999993E-002     5.1831222385778592E-010
   5.5099999999999982E-002     4.6277682448535123E-010
   5.5950000000000000E-002     3.4364282477025414E-010
   5.6799999999999989E-002     1.5696014554603993E-010
   5.7650000000000007E-002    -9.6489288879405330E-011
   5.8499999999999996E-002    -4.1091284967296164E-010
   5.9349999999999986E-002    -7.7571629009063811E-010
   6.0200000000000004E-002    -1.1762055809382141E-009
   6.1049999999999993E-002    -1.5947313494686152E-009
   6.1899999999999983E-002    -2.0121801216163499E-009
   6.2750000000000000E-002    -2.4096634986156045E-009
   6.3599999999999990E-002    -2.7702519239286884E-009
   6.4450000000000007E-002    -3.0805889111190053E-009
   6.5299999999999997E-002    -3.3322409977019983E-009
   6.6149999999999987E-002    -3.5226905043777940E-009
   6.7000000000000004E-002    -3.6559295015851147E-009
   6.7849999999999994E-002    -3.7426771812077259E-009
   6.8699999999999983E-002    -3.8002867632961778E-009
   6.9550000000000001E-002    -3.8524728246923832E-009
   7.0399999999999990E-002    -3.9289978859780604E-009
   7.1249999999999980E-002    -4.0654401511833141E-009
   7.2099999999999997E-002    -4.3031953490843582E-009
   7.2949999999999987E-002    -4.6897814858625378E-009
   7.3800000000000004E-002    -5.2795058166733071E-009
   7.4649999999999994E-002    -6.1344202241088478E-009
   7.5499999999999984E-002    -7.3255890082398623E-009
   7.6350000000000001E-002    -8.9345284235415524E-009
   7.7199999999999991E-002    -1.1054651233039854E-008
   7.8049999999999981E-002    -1.3792773059491449E-008
   7.8899999999999998E-002    -1.7270471679552990E-008
   7.9749999999999988E-002    -2.1625362669893784E-008
   8.0600000000000005E-002    -2.7012293383897230E-008
   8.1449999999999995E-002    -3.3604518869766770E-008
   8.2299999999999984E-002    -4.1595271908050276E-008
   8.3150000000000002E-002    -5.1199659377162075E-008
   8.3999999999999991E-002    -6.2656991779021453E-008
   8.4849999999999981E-002    -7.6234429446453782E-008
   8.5699999999999998E-002    -9.2231099566574014E-008
   8.6549999999999988E-002    -1.1098408928438759E-007
   8.7400000000000005E-002    -1.3287523129707502E-007
   8.8249999999999995E-002    -1.5833966489658946E-007
   8.9099999999999985E-002    -1.8787570849843583E-007
   8.9950000000000002E-002    -2.2205622146157178E-007
   9.0799999999999992E-002    -2.6154105833052816E-007
   9.1649999999999981E-002    -3.0709076557010135E-007
   9.2499999999999999E-002    -3.5958250242135926E-007
   9.3349999999999989E-002    -4.2002622987070875E-007
   9.4200000000000006E-002    -4.8958229726006367E-007
   9.5049999999999996E-002    -5.6958195153993150E-007
   9.5899999999999985E-002    -6.6154896509521137E-007
   9.6750000000000003E-002    -7.6722322109129670E-007
   9.7599999999999992E-002    -8.8858712113698559E-007
   9.8449999999999982E-002    -1.0278973031245098E-006
   9.9299999999999999E-002    -1.1877149783093593E-006
  0.10014999999999999         -1.3709440246381431E-006
  0.10099999999999998         -1.5808726143261542E-006
  0.10185000000000000         -1.8212196829266139E-006
  0.10269999999999999         -2.0961847441425329E-006
  0.10355000000000000         -2.4105058200129892E-006
  0.10439999999999999         -2.7695152682122218E-006
  0.10524999999999998         -3.1792161267811531E-006
  0.10610000000000000         -3.6463489918300746E-006
  0.10694999999999999         -4.1784728531855362E-006
  0.10779999999999998         -4.7840476741187610E-006
  0.10865000000000000         -5.4725355156241742E-006
  0.10949999999999999         -6.2544899457345023E-006
  0.11035000000000000         -7.1416704326962823E-006
  0.11119999999999999         -8.1471408461521259E-006
  0.11204999999999998         -9.2854049678156665E-006
  0.11290000000000000         -1.0572510473245790E-005
  0.11374999999999999         -1.2026214880700954E-005
  0.11459999999999998         -1.3666066275506526E-005
  0.11545000000000000         -1.5513612181475223E-005
  0.11629999999999999         -1.7592485915250576E-005
  0.11715000000000000         -1.9928609012902767E-005
  0.11799999999999999         -2.2550307048615116E-005
  0.11884999999999998         -2.5488457150574046E-005
  0.11970000000000000         -2.8776671990113183E-005
  0.12054999999999999         -3.2451408836781356E-005
  0.12139999999999998         -3.6552122712737980E-005
  0.12225000000000000         -4.1121447898641998E-005
  0.12309999999999999         -4.6205186215444454E-005
  0.12395000000000000         -5.1852535425113037E-005
  0.12479999999999999         -5.8116101584129913E-005
  0.12564999999999998         -6.5052015712049635E-005
  0.12650000000000000         -7.2719891833172205E-005
  0.12734999999999999         -8.1182881016223987E-005
  0.12819999999999998         -9.0507673833220361E-005
  0.12905000000000000         -1.0076433066178232E-004
  0.12989999999999999         -1.1202622555471979E-004
  0.13074999999999998         -1.2436988896130571E-004
  0.13159999999999999         -1.3787474801708031E-004
  0.13245000000000001         -1.5262287345525638E-004
  0.13329999999999997         -1.6869863403563991E-004
  0.13414999999999999         -1.8618823550479882E-004
  0.13500000000000001         -2.0517924078764153E-004
  0.13584999999999997         -2.2576021152549095E-004
  0.13669999999999999         -2.4801978759424117E-004
  0.13755000000000001         -2.7204604820189838E-004
  0.13839999999999997         -2.9792581940930960E-004
  0.13924999999999998         -3.2574333616365689E-004
  0.14010000000000000         -3.5557994563656717E-004
  0.14094999999999996         -3.8751264085601535E-004
  0.14179999999999998         -4.2161300162567522E-004
  0.14265000000000000         -4.5794579413951030E-004
  0.14350000000000002         -4.9656777320998384E-004
  0.14434999999999998         -5.3752672852052069E-004
  0.14520000000000000         -5.8085940509520725E-004
  0.14605000000000001         -6.2659068691523162E-004
  0.14689999999999998         -6.7473168691902950E-004
  0.14774999999999999         -7.2527792033061302E-004
  0.14860000000000001         -7.7820874007912533E-004
  0.14944999999999997         -8.3348519493839314E-004
  0.15029999999999999         -8.9104874978513228E-004
  0.15115000000000001         -9.5081954766458143E-004
  0.15199999999999997         -1.0126956032858723E-003
  0.15284999999999999         -1.0765515374226869E-003
  0.15370000000000000         -1.1422364555058093E-003
  0.15454999999999997         -1.2095744962216434E-003
  0.15539999999999998         -1.2783626207594498E-003
  0.15625000000000000         -1.3483715054156244E-003
  0.15709999999999996         -1.4193431389394812E-003
  0.15794999999999998         -1.4909926060208288E-003
  0.15880000000000000         -1.5630068165803910E-003
  0.15965000000000001         -1.6350449411719839E-003
  0.16049999999999998         -1.7067409786453321E-003
  0.16134999999999999         -1.7777018545147762E-003
  0.16220000000000001         -1.8475097417562302E-003
  0.16304999999999997         -1.9157260205026698E-003
  0.16389999999999999         -1.9818901124074874E-003
  0.16475000000000001         -2.0455220114799005E-003
  0.16559999999999997         -2.1061271222278756E-003
  0.16644999999999999         -2.1631981714638412E-003
  0.16730000000000000         -2.2162182551441374E-003
  0.16814999999999997         -2.2646630261715676E-003
  0.16899999999999998         -2.3080077214612887E-003
  0.16985000000000000         -2.3457295918757151E-003
  0.17069999999999996         -2.3773134859237152E-003
  0.17154999999999998         -2.4022526003856753E-003
  0.17240000000000000         -2.4200590392207981E-003
  0.17325000000000002         -2.4302640132609081E-003
  0.17409999999999998         -2.4324246623276874E-003
  0.17494999999999999         -2.4261308882178689E-003
  0.17580000000000001         -2.4110051079827143E-003
  0.17664999999999997         -2.3867119215692594E-003
  0.17749999999999999         -2.3529609532999228E-003
  0.17835000000000001         -2.3095103435374180E-003
  0.17919999999999997         -2.2561736511332317E-003
  0.18004999999999999         -2.1928201307979400E-003
  0.18090000000000001         -2.1193809849354281E-003
  0.18174999999999997         -2.0358509598114739E-003
  0.18259999999999998         -1.9422920967857873E-003
  0.18345000000000000         -1.8388328159999294E-003
  0.18429999999999996         -1.7256725208595102E-003
  0.18514999999999998         -1.6030811355720303E-003
  0.18600000000000000         -1.4713986999620747E-003
  0.18684999999999996         -1.3310356907783260E-003
  0.18769999999999998         -1.1824694244031817E-003
  0.18855000000000000         -1.0262462283089865E-003
  0.18940000000000001         -8.6297609063051264E-004
  0.19024999999999997         -6.9332891960408223E-004
  0.19109999999999999         -5.1803228514267117E-004
  0.19195000000000001         -3.3786571949772287E-004
  0.19279999999999997         -1.5365560484626646E-004
  0.19364999999999999          3.3729909822273295E-005
  0.19450000000000001          2.2338799400749027E-004
  0.19534999999999997          4.1438811280431815E-004
  0.19619999999999999          6.0577729978663990E-004
  0.19705000000000000          7.9658870873288953E-004
  0.19789999999999996          9.8584986416370133E-004
  0.19874999999999998          1.1725889685104260E-003
  0.19960000000000000          1.3558442150908333E-003
  0.20044999999999996          1.5346688240631015E-003
  0.20129999999999998          1.7081418726042938E-003
  0.20215000000000000          1.8753742604214569E-003
  0.20300000000000001          2.0355154660026643E-003
  0.20384999999999998          2.1877607363797852E-003
  0.20469999999999999          2.3313577681903438E-003
  0.20555000000000001          2.4656129992448152E-003
  0.20639999999999997          2.5898950314466734E-003
  0.20724999999999999          2.7036427804646595E-003
  0.20810000000000001          2.8063655308460445E-003
  0.20894999999999997          2.8976486826364873E-003
  0.20979999999999999          2.9771558528557352E-003
  0.21065000000000000          3.0446312999857202E-003
  0.21149999999999997          3.0999000731055850E-003
  0.21234999999999998          3.1428689953370823E-003
  0.21320000000000000          3.1735250392209862E-003
  0.21404999999999996          3.1919353349794729E-003
  0.21489999999999998          3.1982452368678493E-003
  0.21575000000000000          3.1926746726354538E-003
  0.21659999999999996          3.1755147628683392E-003
  0.21744999999999998          3.1471266225709628E-003
  0.21829999999999999          3.1079324249074121E-003
  0.21915000000000001          3.0584144723257677E-003
  0.21999999999999997          2.9991077921906429E-003
  0.22084999999999999          2.9305951084380873E-003
  0.22170000000000001          2.8535005006608077E-003
  0.22254999999999997          2.7684831944419942E-003
  0.22339999999999999          2.6762321977815162E-003
  0.22425000000000000          2.5774583140731095E-003
  0.22509999999999997          2.4728898405954295E-003
  0.22594999999999998          2.3632639519875886E-003
  0.22680000000000000          2.2493218715772065E-003
  0.22764999999999996          2.1318034470182478E-003
  0.22849999999999998          2.0114397274816668E-003
  0.22935000000000000          1.8889489893775557E-003
  0.23019999999999996          1.7650317045013058E-003
  0.23104999999999998          1.6403649563438857E-003
  0.23190000000000000          1.5155990846033355E-003
  0.23275000000000001          1.3913536978667985E-003
  0.23359999999999997          1.2682145304668455E-003
  0.23444999999999999          1.1467299123944347E-003
  0.23530000000000001          1.0274096673634880E-003
  0.23614999999999997          9.1072229621789894E-004
  0.23699999999999999          7.9709455378520870E-004
  0.23785000000000001          6.8690910408905582E-004
  0.23869999999999997          5.8050542507794749E-004
  0.23954999999999999          4.7817947637765186E-004
  0.24040000000000000          3.8018394275436939E-004
  0.24124999999999996          2.8672927221043551E-004
  0.24209999999999998          1.9798454298962040E-004
  0.24295000000000000          1.1407893406737259E-004
  0.24379999999999996          3.5103675911416320E-005
  0.24464999999999998         -3.8885947370268054E-005
  0.24550000000000000         -1.0786916383206554E-004
  0.24634999999999996         -1.7185641590115451E-004
  0.24719999999999998         -2.3088762541724798E-004
  0.24804999999999999         -2.8502948725919026E-004
  0.24890000000000001         -3.3437263592795574E-004
  0.24974999999999997         -3.7902950000826029E-004
  0.25059999999999999         -4.1913163850367148E-004
  0.25145000000000001         -4.5482653430137530E-004
  0.25229999999999997         -4.8627556036468536E-004
  0.25314999999999999         -5.1365144065925903E-004
  0.25400000000000000         -5.3713563268641422E-004
  0.25484999999999997         -5.5691607576618973E-004
  0.25569999999999998         -5.7318528228153943E-004
  0.25655000000000000         -5.8613794304696401E-004
  0.25739999999999996         -5.9596917051379374E-004
  0.25824999999999998         -6.0287264946957920E-004
  0.25910000000000000         -6.0703938603099620E-004
  0.25994999999999996         -6.0865594620399465E-004
  0.26079999999999998         -6.0790334219763299E-004
  0.26164999999999999         -6.0495583650974560E-004
  0.26249999999999996         -5.9998006997939886E-004
  0.26334999999999997         -5.9313421601787290E-004
  0.26419999999999999         -5.8456730387168186E-004
  0.26505000000000001         -5.7441872957579381E-004
  0.26589999999999997         -5.6281787774431784E-004
  0.26674999999999999         -5.4988417675057234E-004
  0.26760000000000000         -5.3572659631752611E-004
  0.26844999999999997         -5.2044394168203128E-004
  0.26929999999999998         -5.0412488099758988E-004
  0.27015000000000000         -4.8684834283131142E-004
  0.27099999999999996         -4.6868385284544266E-004
  0.27184999999999998         -4.4969202793567549E-004
  0.27270000000000000         -4.2992499727842394E-004
  0.27354999999999996         -4.0942718031344448E-004
  0.27439999999999998         -3.8823590452955348E-004
  0.27524999999999999         -3.6638220912679049E-004
  0.27609999999999996         -3.4389160636222750E-004
  0.27694999999999997         -3.2078497131880009E-004
  0.27779999999999999         -2.9707942274976207E-004
  0.27865000000000001         -2.7278908394856431E-004
  0.27949999999999997         -2.4792621997221306E-004
  0.28034999999999999         -2.2250193834973223E-004
  0.28120000000000001         -1.9652716334262970E-004
  0.28204999999999997         -1.7001358587913728E-004
  0.28289999999999998         -1.4297440825765880E-004
  0.28375000000000000         -1.1542533279498390E-004
  0.28459999999999996         -8.7385103055523958E-005
  0.28544999999999998         -5.8876404099109545E-005
  0.28630000000000000         -2.9926423411461861E-005
  0.28714999999999996         -5.6743162574848544E-007
  0.28799999999999998          2.9162854998050949E-005
  0.28885000000000000          5.9220718820122246E-005
  0.28969999999999996          8.9556438102297259E-005
  0.29054999999999997          1.2011385476266659E-004
  0.29139999999999999          1.5083056666367415E-004
  0.29224999999999995          1.8163775813790446E-004
  0.29309999999999997          2.1246042400583810E-004
  0.29394999999999999          2.4321751492822075E-004
  0.29480000000000001          2.7382236822240218E-004
  0.29564999999999997          3.0418302815181229E-004
  0.29649999999999999          3.3420260204463552E-004
  0.29735000000000000          3.6378013246629159E-004
  0.29819999999999997          3.9281112421764611E-004
  0.29904999999999998          4.2118813429255718E-004
  0.29990000000000000          4.4880173236911395E-004
  0.30074999999999996          4.7554131498703928E-004
  0.30159999999999998          5.0129609265095443E-004
  0.30245000000000000          5.2595593194947987E-004
  0.30329999999999996          5.4941239428117964E-004
  0.30414999999999998          5.7155946989115715E-004
  0.30499999999999999          5.9229496542125882E-004
  0.30584999999999996          6.1152091431418973E-004
  0.30669999999999997          6.2914474114025994E-004
  0.30754999999999999          6.4508007777168820E-004
  0.30840000000000001          6.5924783582469782E-004
  0.30924999999999997          6.7157598015044160E-004
  0.31009999999999999          6.8200187551385803E-004
  0.31095000000000000          6.9047130895364230E-004
  0.31179999999999997          6.9693991132545405E-004
  0.31264999999999998          7.0137341771466877E-004
  0.31350000000000000          7.0374856504606259E-004
  0.31434999999999996          7.0405198687442867E-004
  0.31519999999999998          7.0228203566376430E-004
  0.31605000000000000          6.9844773553218793E-004
  0.31689999999999996          6.9256913026810368E-004
  0.31774999999999998          6.8467706795173361E-004
  0.31859999999999999          6.7481361384384947E-004
  0.31944999999999996          6.6303066920373810E-004
  0.32029999999999997          6.4939011654501356E-004
  0.32114999999999999          6.3396392103376182E-004
  0.32199999999999995          6.1683231993176543E-004
  0.32284999999999997          5.9808403822317921E-004
  0.32369999999999999          5.7781596813756650E-004
  0.32455000000000001          5.5613171948699794E-004
  0.32539999999999997          5.3314127721519340E-004
  0.32624999999999998          5.0896016301152348E-004
  0.32710000000000000          4.8370819438058559E-004
  0.32794999999999996          4.5750945091337992E-004
  0.32879999999999998          4.3049053660112124E-004
  0.32965000000000000          4.0278005441268789E-004
  0.33049999999999996          3.7450807840409481E-004
  0.33134999999999998          3.4580410556678411E-004
  0.33220000000000000          3.1679799405300664E-004
  0.33304999999999996          2.8761658272541185E-004
  0.33389999999999997          2.5838557037632492E-004
  0.33474999999999999          2.2922761643444649E-004
  0.33559999999999995          2.0026053343683817E-004
  0.33644999999999997          1.7159731429654317E-004
  0.33729999999999999          1.4334685677984453E-004
  0.33815000000000001          1.1561212233818271E-004
  0.33899999999999997          8.8489207967013537E-005
  0.33984999999999999          6.2067566428079937E-005
  0.34070000000000000          3.6430099860577430E-005
  0.34154999999999996          1.1651627781576273E-005
  0.34239999999999998         -1.2199769118519283E-005
  0.34325000000000000         -3.5064850527867206E-005