 -0.12000000000000000          0.0000000000000000
 -0.11914999999999999          0.0000000000000000
 -0.11830000000000000          0.0000000000000000
 -0.11745000000000000          0.0000000000000000
 -0.11660000000000000          0.0000000000000000
 -0.11574999999999999          0.0000000000000000
 -0.11490000000000000          0.0000000000000000
 -0.11405000000000000          0.0000000000000000
 -0.11320000000000000          0.0000000000000000
 -0.11234999999999999          0.0000000000000000
 -0.11150000000000000          0.0000000000000000
 -0.11065000000000000          0.0000000000000000
 -0.10979999999999999          1.4366541529399648E-038
 -0.10894999999999999          1.7941604281689984E-031
 -0.10810000000000000          2.5411559879503619E-030
 -0.10725000000000000          1.4884992707335713E-029
 -0.10639999999999999          3.5508792620082032E-029
 -0.10554999999999999         -7.0448103642606293E-029
 -0.10470000000000000         -8.4635497923803795E-028
 -0.10385000000000000         -2.9657913843706228E-027
 -0.10299999999999999         -4.0528904499098468E-027
 -0.10214999999999999          8.7836520824038099E-027
 -0.10130000000000000          5.9590043722918314E-026
 -0.10045000000000000          1.4177690614506547E-025
  -9.9599999999999994E-002     1.0520868329463486E-025
  -9.8750000000000004E-002    -4.2553408348423859E-025
  -9.7900000000000001E-002    -1.7403364527902181E-024
  -9.7049999999999997E-002    -2.9555134644069243E-024
  -9.6199999999999994E-002    -7.1339149311674392E-025
  -9.5349999999999990E-002     9.7073346209436141E-024
  -9.4500000000000001E-002     2.7326397077104283E-023
  -9.3649999999999997E-002     3.3820130383616050E-023
  -9.2799999999999994E-002    -8.7088028474727617E-024
  -9.1950000000000004E-002    -1.2685381121753829E-022
  -9.1100000000000000E-002    -2.6601431756006417E-022
  -9.0249999999999997E-002    -2.3604805518137598E-022
  -8.9399999999999993E-002     2.0819678583985777E-022
  -8.8549999999999990E-002     1.0693536014114489E-021
  -8.7700000000000000E-002     1.7393757889702965E-021
  -8.6849999999999997E-002     1.0236671036056718E-021
  -8.5999999999999993E-002    -1.9582952785817567E-021
  -8.5150000000000003E-002    -6.1919053795534145E-021
  -8.4300000000000000E-002    -7.9056507820873403E-021
  -8.3449999999999996E-002    -2.3887962186200720E-021
  -8.2600000000000007E-002     1.1134706560110089E-020
  -8.1749999999999989E-002     2.4905628872004256E-020
  -8.0900000000000000E-002     2.4402545694443150E-020
  -8.0049999999999996E-002    -2.6269209162674670E-022
  -7.9199999999999993E-002    -3.9754794778713332E-020
  -7.8350000000000003E-002    -6.3483712349937477E-020
  -7.7499999999999999E-002    -4.1878850497954625E-020
  -7.6649999999999996E-002     1.8323650535987518E-020
  -7.5800000000000006E-002     6.3259119861379712E-020
  -7.4949999999999989E-002     3.8595066746195329E-020
  -7.4099999999999999E-002    -2.8090008875206666E-020
  -7.3249999999999996E-002    -1.8890282047074157E-021
  -7.2399999999999992E-002     2.3482147665996854E-019
  -7.1550000000000002E-002     5.4853983409589131E-019
  -7.0699999999999999E-002     4.5340009189140609E-019
  -6.9849999999999995E-002    -5.6625878338845340E-019
  -6.9000000000000006E-002    -2.3253944087662152E-018
  -6.8149999999999988E-002    -3.3862612426096701E-018
  -6.7299999999999999E-002    -1.5890340825043568E-018
  -6.6449999999999995E-002     3.9878649919539180E-018
  -6.5599999999999992E-002     1.0752160398649313E-017
  -6.4750000000000002E-002     1.2431924709710303E-017
  -6.3899999999999998E-002     2.9280589293989479E-018
  -6.3049999999999995E-002    -1.7008987307588630E-017
  -6.2199999999999998E-002    -3.5474150114036283E-017
  -6.1350000000000002E-002    -3.3714142261825442E-017
  -6.0499999999999998E-002    -2.6909585136749978E-019
  -5.9650000000000002E-002     5.3327737465697995E-017
  -5.8799999999999998E-002     9.0173505030994546E-017
  -5.7950000000000002E-002     6.8895388863668582E-017
  -5.7099999999999998E-002    -2.0063814955096043E-017
  -5.6249999999999994E-002    -1.3009826273469993E-016
  -5.5400000000000005E-002    -1.7542607565331674E-016
  -5.4550000000000001E-002    -9.2652855959539162E-017
  -5.3699999999999998E-002     9.1775502450483305E-017
  -5.2849999999999994E-002     2.5023848043233303E-016
  -5.2000000000000005E-002     2.3365507680412177E-016
  -5.1150000000000001E-002     3.8059012124177841E-018
  -5.0299999999999997E-002    -2.8777875165922134E-016
  -4.9449999999999994E-002    -3.7309229491902372E-016
  -4.8600000000000004E-002    -8.4762712883948587E-017
  -4.7750000000000001E-002     4.3520379255782445E-016
  -4.6899999999999997E-002     7.4270807261650030E-016
  -4.6049999999999994E-002     3.9917374716435098E-016
  -4.5200000000000004E-002    -5.9172309902281622E-016
  -4.4350000000000001E-002    -1.5842584970162738E-015
  -4.3499999999999997E-002    -1.6176659420504807E-015
  -4.2649999999999993E-002    -1.7925901603172343E-016
  -4.1800000000000004E-002     2.1302249270715606E-015
  -4.0950000000000000E-002     3.6786607311861655E-015
  -4.0099999999999997E-002     2.8426296174774629E-015
  -3.9249999999999993E-002    -5.7320065413587368E-016
  -3.8400000000000004E-002    -4.6604963767205772E-015
  -3.7550000000000000E-002    -6.3234428860578494E-015
  -3.6699999999999997E-002    -3.5153199549910840E-015
  -3.5850000000000007E-002     2.7168050273707670E-015
  -3.5000000000000003E-002     8.1971354415703544E-015
  -3.4150000000000000E-002     8.2304624442230426E-015
  -3.3299999999999996E-002     1.4056410919624188E-015
  -3.2450000000000007E-002    -8.2982607054893619E-015
  -3.1600000000000003E-002    -1.3367608261953367E-014
  -3.0750000000000000E-002    -8.1036365534980821E-015
  -2.9899999999999996E-002     6.0815037895671804E-015
  -2.9050000000000006E-002     1.9873276146878263E-014
  -2.8200000000000003E-002     2.1617125721718234E-014
  -2.7349999999999999E-002     6.2688125371936089E-015
  -2.6499999999999996E-002    -1.8784500725509512E-014
  -2.5650000000000006E-002    -3.6567963378770752E-014
  -2.4800000000000003E-002    -3.1775642991424186E-014
  -2.3949999999999999E-002    -3.2516357600205302E-015
  -2.3099999999999996E-002     3.2123877857273165E-014
  -2.2250000000000006E-002     4.9149137394720319E-014
  -2.1400000000000002E-002     3.2651854979190599E-014
  -2.0549999999999999E-002    -8.5769359930921746E-015
  -1.9699999999999995E-002    -4.4498189681657035E-014
  -1.8850000000000006E-002    -4.4433889203950628E-014
  -1.8000000000000002E-002    -2.4581058789356215E-015
  -1.7149999999999999E-002     5.2264318865933968E-014
  -1.6299999999999995E-002     7.2000862475903078E-014
  -1.5450000000000005E-002     2.6269440717272420E-014
  -1.4600000000000002E-002    -6.8001812577848025E-014
  -1.3749999999999998E-002    -1.4781070903034706E-013
  -1.2899999999999995E-002    -1.4297073482980350E-013
  -1.2050000000000005E-002    -2.9828661536925609E-014
  -1.1200000000000002E-002     1.3944485605106411E-013
  -1.0349999999999998E-002     2.5988167790510764E-013
  -9.5000000000000084E-003     2.4132062948424504E-013
  -8.6500000000000049E-003     7.6653223686878874E-014
  -7.8000000000000014E-003    -1.4143301747634104E-013
  -6.9499999999999978E-003    -2.7606787452412360E-013
  -6.1000000000000082E-003    -2.4208133214644232E-013
  -5.2500000000000047E-003    -7.3660402949221335E-014
  -4.4000000000000011E-003     9.2966713439215600E-014
  -3.5499999999999976E-003     1.1996933084786821E-013
  -2.7000000000000079E-003    -1.6967223768189724E-014
  -1.8500000000000044E-003    -1.9011604302722816E-013
  -1.0000000000000009E-003    -2.0257316693546061E-013
  -1.4999999999999736E-004     5.3047453166077015E-014
   6.9999999999999230E-004     4.7526028455085383E-013
   1.5499999999999958E-003     7.7882219091464373E-013
   2.3999999999999994E-003     6.7417286395305481E-013
   3.2500000000000029E-003     9.1331430357289955E-014
   4.0999999999999925E-003    -7.1606098441368235E-013
   4.9499999999999961E-003    -1.2871759717453483E-012
   5.7999999999999996E-003    -1.2406205180784846E-012
   6.6499999999999893E-003    -5.4572846182284267E-013
   7.5000000000000067E-003     4.2108185804719379E-013
   8.3499999999999963E-003     1.1004093303596725E-012
   9.1999999999999860E-003     1.1203615189945265E-012
   1.0050000000000003E-002     5.5719712242054393E-013
   1.0899999999999993E-002    -1.1358097019268494E-013
   1.1750000000000010E-002    -3.6302248201059158E-013
   1.2600000000000000E-002    -1.4539529520488112E-014
   1.3449999999999990E-002     5.9427276816637342E-013
   1.4300000000000007E-002     8.4020343828714188E-013
   1.5149999999999997E-002     2.9429492341956478E-013
   1.5999999999999986E-002    -8.9436460831992686E-013
   1.6850000000000004E-002    -2.0213052349469208E-012
   1.7699999999999994E-002    -2.2856206666330541E-012
   1.8549999999999983E-002    -1.3804113210358114E-012
   1.9400000000000001E-002     2.2679955442225411E-013
   2.0249999999999990E-002     1.5753663696084504E-012
   2.1100000000000008E-002     1.8987680799885987E-012
   2.1949999999999997E-002     1.2257714549284249E-012
   2.2799999999999987E-002     4.0858891781110958E-013
   2.3650000000000004E-002     4.7659359744709379E-013
   2.4499999999999994E-002     1.7330726677305695E-012
   2.5349999999999984E-002     3.2805828444847145E-012
   2.6200000000000001E-002     3.4403110602388288E-012
   2.7049999999999991E-002     9.1790760564116731E-013
   2.7900000000000008E-002    -4.0257907882585569E-012
   2.8749999999999998E-002    -9.2716967979040612E-012
   2.9599999999999987E-002    -1.1789856325576260E-011
   3.0450000000000005E-002    -9.3859727362313099E-012
   3.1299999999999994E-002    -2.1850543441813958E-012
   3.2149999999999984E-002     7.1440648630559600E-012
   3.3000000000000002E-002     1.4664667168628539E-011
   3.3849999999999991E-002     1.7223601530960331E-011
   3.4700000000000009E-002     1.4019049961267709E-011
   3.5549999999999998E-002     6.7518046178895811E-012
   3.6399999999999988E-002    -1.6428434773616664E-012
   3.7250000000000005E-002    -8.7254751889562120E-012
   3.8099999999999995E-002    -1.3547465551324562E-011
   3.8949999999999985E-002    -1.6314047179218124E-011
   3.9800000000000002E-002    -1.7177068258705518E-011
   4.0649999999999992E-002    -1.5319742990814591E-011
   4.1500000000000009E-002    -9.2767181871580645E-012
   4.2349999999999999E-002     1.5581729572724937E-012
   4.3199999999999988E-002     1.5350682576487369E-011
   4.4050000000000006E-002     2.7605669845832575E-011
   4.4899999999999995E-002     3.2911680913936640E-011
   4.5749999999999985E-002     2.7856973035277934E-011
   4.6600000000000003E-002     1.3336461403929220E-011
   4.7449999999999992E-002    -5.4279536935523265E-012
   4.8299999999999982E-002    -2.1391591791307506E-011
   4.9149999999999999E-002    -2.9338976469972645E-011
   4.9999999999999989E-002    -2.8361699557011506E-011
   5.0850000000000006E-002    -2.1664106279259313E-011
   5.1699999999999996E-002    -1.3839619408315215E-011
   5.2549999999999986E-002    -7.5495111399815758E-012
   5.3400000000000003E-002    -1.9260374051852401E-012
   5.4249999999999993E-002     6.1279197970918691E-012
   5.5099999999999982E-002     1.8706948488105839E-011
   5.5950000000000000E-002     3.4006898496664805E-011
   5.6799999999999989E-002     4.6123846128655590E-011
   5.7650000000000007E-002     4.7813447367768113E-011
   5.8499999999999996E-002     3.4770249611212241E-011
   5.9349999999999986E-002     8.6612995451266085E-012
   6.0200000000000004E-002    -2.3173898738900741E-011
   6.1049999999999993E-002    -5.0934213796942942E-011
   6.1899999999999983E-002    -6.6629451006690424E-011
   6.2750000000000000E-002    -6.6745241396949954E-011
   6.3599999999999990E-002    -5.2218887435892167E-011
   6.4450000000000007E-002    -2.6421857109272604E-011
   6.5299999999999997E-002     6.6163107394014739E-012
   6.6149999999999987E-002     4.2544951900876419E-011
   6.7000000000000004E-002     7.5722880928695351E-011
   6.7849999999999994E-002     9.8131763499726657E-011
   6.8699999999999983E-002     1.0042177016295973E-010
   6.9550000000000001E-002     7.6460724985618830E-011
   7.0399999999999990E-002     2.7750097133581015E-011
   7.1249999999999980E-002    -3.4126178264349779E-011
   7.2099999999999997E-002    -8.9937339946117808E-011
   7.2949999999999987E-002    -1.2034261346329466E-010
   7.3800000000000004E-002    -1.1395768016907106E-010
   7.4649999999999994E-002    -7.3290770269418288E-011
   7.5499999999999984E-002    -1.3880120316322629E-011
   7.6350000000000001E-002     4.3582340729077457E-011
   7.7199999999999991E-002     8.3869024653784527E-011
   7.8049999999999981E-002     1.0036784519273055E-010
   7.8899999999999998E-002     9.5773838417801717E-011
   7.9749999999999988E-002     7.7785976105942088E-011
   8.0600000000000005E-002     5.3059687591153985E-011
   8.1449999999999995E-002     2.5677492670648193E-011
   8.2299999999999984E-002    -2.3127537279493855E-012
   8.3150000000000002E-002    -2.6903474748278446E-011
   8.3999999999999991E-002    -4.2307917890902717E-011
   8.4849999999999981E-002    -4.4959573614240540E-011
   8.5699999999999998E-002    -3.4046268964347572E-011
   8.6549999999999988E-002    -1.5632048308783855E-011
   8.7400000000000005E-002     1.2657041213726128E-012
   8.8249999999999995E-002     1.1548942154709398E-011
   8.9099999999999985E-002     1.4946422802219507E-011
   8.9950000000000002E-002     1.5103292911027716E-011
   9.0799999999999992E-002     1.8167467232205539E-011
   9.1649999999999981E-002     2.8120717180616511E-011
   9.2499999999999999E-002     4.3009773978528072E-011
   9.3349999999999989E-002     5.2496034618930085E-011
   9.4200000000000006E-002     4.5212734516584044E-011
   9.5049999999999996E-002     1.6065531229566415E-011
   9.5899999999999985E-002    -2.3771252137929147E-011
   9.6750000000000003E-002    -5.9175073261613642E-011
   9.7599999999999992E-002    -7.7855769764099622E-011
   9.8449999999999982E-002    -7.5584951437970144E-011
   9.9299999999999999E-002    -5.8117282389575156E-011
  0.10014999999999999         -3.7307018721033716E-011
  0.10099999999999998         -2.3836967230801698E-011
  0.10185000000000000         -2.1137941196664942E-011
  0.10269999999999999         -2.2068208642856552E-011
  0.10355000000000000         -1.7736860672681529E-011
  0.10439999999999999         -2.6598487952098071E-012
  0.10524999999999998          1.5551225671789348E-011
  0.10610000000000000          3.1648746774345926E-011
  0.10694999999999999          4.0628190210983267E-011
  0.10779999999999998          3.9908059929621986E-011
  0.10865000000000000          2.5098179556783812E-011
  0.10949999999999999         -5.2507295928740094E-012
  0.11035000000000000         -5.2296751944149594E-011
  0.11119999999999999         -1.1243621300931900E-010
  0.11204999999999998         -1.6468369631308585E-010
  0.11290000000000000         -1.9252954612525297E-010
  0.11374999999999999         -1.7689091321273012E-010
  0.11459999999999998         -1.2046909617872276E-010
  0.11545000000000000         -2.9945970020112817E-011
  0.11629999999999999          7.4671047828062803E-011
  0.11715000000000000          1.6455510901385723E-010
  0.11799999999999999          2.1802978883043653E-010
  0.11884999999999998          2.1704695300165527E-010
  0.11970000000000000          1.6395909353513274E-010
  0.12054999999999999          7.1978603958210152E-011
  0.12139999999999998         -2.7036143235206062E-011
  0.12225000000000000         -1.0662521218599355E-010
  0.12309999999999999         -1.4129403273473520E-010
  0.12395000000000000         -1.2891712843727740E-010
  0.12479999999999999         -8.6438316302794166E-011
  0.12564999999999998         -5.4597169233533416E-011
  0.12650000000000000         -5.0886713137514306E-011
  0.12734999999999999         -7.7234364303374603E-011
  0.12819999999999998         -1.0794684975534360E-010
  0.12905000000000000         -1.1463866864797577E-010
  0.12989999999999999         -8.0027901081143604E-011
  0.13074999999999998         -2.2000941758519577E-011
  0.13159999999999999          3.2812182577121943E-011
  0.13245000000000001          6.5656362399808821E-011
  0.13329999999999997          6.7061011664549738E-011
  0.13414999999999999          4.6814913951713846E-011
  0.13500000000000001          1.6665075298471360E-011
  0.13584999999999997         -1.6556465522025478E-011
  0.13669999999999999         -4.6646383722879006E-011
  0.13755000000000001         -7.0030758413954473E-011
  0.13839999999999997         -7.3160115789670018E-011
  0.13924999999999998         -4.8558604610596430E-011
  0.14010000000000000          3.1949417171942256E-012
  0.14094999999999996          6.5952063282208664E-011
  0.14179999999999998          1.1645621291844592E-010
  0.14265000000000000          1.3266214986078478E-010
  0.14350000000000002          1.0868706211723464E-010
  0.14434999999999998          6.6050176639924699E-011
  0.14520000000000000          3.9489499100179778E-011
  0.14605000000000001          4.5898383130207193E-011
  0.14689999999999998          9.0176699088636778E-011
  0.14774999999999999          1.4347697536347750E-010
  0.14860000000000001          1.8021102947581025E-010
  0.14944999999999997          1.8520083947329291E-010
  0.15029999999999999          1.6181415230095628E-010
  0.15115000000000001          1.2694799671111173E-010
  0.15199999999999997          9.8447292039369888E-011
  0.15284999999999999          9.1162208912341086E-011
  0.15370000000000000          1.1115947306508320E-010
  0.15454999999999997          1.4575094240245126E-010
  0.15539999999999998          1.7198947989535349E-010
  0.15625000000000000          1.7712775983360490E-010
  0.15709999999999996          1.4257550885353118E-010
  0.15794999999999998          7.8349108613689350E-011
  0.15880000000000000         -2.4601954588115982E-012
  0.15965000000000001         -6.6392035803514854E-011
  0.16049999999999998         -1.0466840897694132E-010
  0.16134999999999999         -9.6033042574963229E-011
  0.16220000000000001         -3.9658006750504377E-011
  0.16304999999999997          5.5917626757238936E-011
  0.16389999999999999          1.5900661359423071E-010
  0.16475000000000001          2.4377722388467526E-010
  0.16559999999999997          2.7907547930569598E-010
  0.16644999999999999          2.6254630983374785E-010
  0.16730000000000000          1.9036112546303927E-010
  0.16814999999999997          7.4956299955970807E-011
  0.16899999999999998         -5.9587525831541338E-011
  0.16985000000000000         -1.7728154740655894E-010
  0.17069999999999996         -2.5662040949257087E-010
  0.17154999999999998         -2.8956646867632496E-010
  0.17240000000000000         -2.8968035137516904E-010
  0.17325000000000002         -2.6957839763643368E-010
  0.17409999999999998         -2.4725448828665821E-010
  0.17494999999999999         -2.2824688653325619E-010
  0.17580000000000001         -2.0914968886019507E-010
  0.17664999999999997         -1.8319283679531402E-010
  0.17749999999999999         -1.6011371918524427E-010
  0.17835000000000001         -1.5070435613957940E-010
  0.17919999999999997         -1.7205185401923152E-010
  0.18004999999999999         -2.2826370101817345E-010
  0.18090000000000001         -3.0455095395435020E-010
  0.18174999999999997         -3.6960465092140959E-010
  0.18259999999999998         -3.9960033792660853E-010
  0.18345000000000000         -3.7966898444325835E-010
  0.18429999999999996         -3.1362449239729674E-010
  0.18514999999999998         -2.1415384361136124E-010
  0.18600000000000000         -1.0119918419156538E-010
  0.18684999999999996          8.4521975735659532E-012
  0.18769999999999998          1.0234301317383395E-010
  0.18855000000000000          1.6983458321867366E-010
  0.18940000000000001          2.0096708883620903E-010
  0.19024999999999997          1.9603299952557999E-010
  0.19109999999999999          1.6993127879231379E-010
  0.19195000000000001          1.4450143620732547E-010
  0.19279999999999997          1.3733685452169565E-010
  0.19364999999999999          1.4983100738298442E-010
  0.19450000000000001          1.6879670148336589E-010
  0.19534999999999997          1.7279760371332557E-010
  0.19619999999999999          1.5231498671380329E-010
  0.19705000000000000          1.1545281842096494E-010
  0.19789999999999996          8.7077599444191842E-011
  0.19874999999999998          9.0828686775566367E-011
  0.19960000000000000          1.3430281463767263E-010
  0.20044999999999996          2.0331289486718619E-010
  0.20129999999999998          2.6986741232535097E-010
  0.20215000000000000          3.0868201229697703E-010
  0.20300000000000001          3.0716345303860235E-010
  0.20384999999999998          2.6596869596041267E-010
  0.20469999999999999          1.9788491868342681E-010
  0.20555000000000001          1.2522133839825561E-010
  0.20639999999999997          7.2772379756339683E-011
  0.20724999999999999          6.4983232553675330E-011
  0.20810000000000001          1.1482579844639476E-010
  0.20894999999999997          2.1526478256178594E-010
  0.20979999999999999          3.3490816733370773E-010
  0.21065000000000000          4.2880879879900191E-010
  0.21149999999999997          4.5402168797562675E-010
  0.21234999999999998          3.9143858130991777E-010
  0.21320000000000000          2.5515046379962630E-010
  0.21404999999999996          8.8259524146615254E-011
  0.21489999999999998         -5.9475346197469803E-011
  0.21575000000000000         -1.5117885621748067E-010
  0.21659999999999996         -1.7598746722066738E-010
  0.21744999999999998         -1.4410849130761655E-010
  0.21829999999999999         -8.4483425680584312E-011
  0.21915000000000001         -2.6578375568117596E-011
  0.21999999999999997          1.1541983731613858E-011
  0.22084999999999999          1.5707028451321381E-011
  0.22170000000000001         -3.2743104018059799E-012
  0.22254999999999997         -2.6691617340847407E-011
  0.22339999999999999         -2.9233703023427704E-011
  0.22425000000000000         -6.5631340423130680E-012
  0.22509999999999997          3.1409621539975341E-011
  0.22594999999999998          5.6667925451940604E-011
  0.22680000000000000          4.6120471374269667E-011
  0.22764999999999996         -5.3232005392186976E-012
  0.22849999999999998         -8.4331979442221761E-011
  0.22935000000000000         -1.7952423922440452E-010
  0.23019999999999996         -2.7249598313471707E-010
  0.23104999999999998         -3.5356403026674810E-010
  0.23190000000000000         -4.1372601330101622E-010
  0.23275000000000001         -4.4221284002231992E-010
  0.23359999999999997         -4.3601271388932911E-010
  0.23444999999999999         -3.8992522622197101E-010
  0.23530000000000001         -3.2045172315394235E-010
  0.23614999999999997         -2.5267057987988367E-010
  0.23699999999999999         -2.1239158982987519E-010
  0.23785000000000001         -2.1208789352565940E-010
  0.23869999999999997         -2.3949640323229007E-010
  0.23954999999999999         -2.6324431333770229E-010
  0.24040000000000000         -2.5668062353335561E-010
  0.24124999999999996         -2.1200517356196810E-010
  0.24209999999999998         -1.4590985592064648E-010
  0.24295000000000000         -9.1767729998087563E-011
  0.24379999999999996         -8.1742154460961915E-011
  0.24464999999999998         -1.3027127868444629E-010
  0.24550000000000000         -2.2663675818180738E-010
  0.24634999999999996         -3.4159139027849315E-010
  0.24719999999999998         -4.3817281527853795E-010
  0.24804999999999999         -4.9004098977463439E-010
  0.24890000000000001         -4.9394597732756867E-010
  0.24974999999999997         -4.7021503964822520E-010
  0.25059999999999999         -4.3947460498213256E-010
  0.25145000000000001         -4.1807702525625823E-010
  0.25229999999999997         -4.0128059441936134E-010
  0.25314999999999999         -3.7790460268461584E-010
  0.25400000000000000         -3.4948588673641007E-010
  0.25484999999999997         -3.3160710429750578E-010
  0.25569999999999998         -3.4331522639954176E-010
  0.25655000000000000         -3.9327276418060775E-010
  0.25739999999999996         -4.5220110826433429E-010
  0.25824999999999998         -4.7348182969850217E-010
  0.25910000000000000         -4.1275642550121089E-010
  0.25994999999999996         -2.7197277503027140E-010
  0.26079999999999998         -8.9856238877535077E-011
  0.26164999999999999          8.0417651487571518E-011
  0.26249999999999996          1.9349558207874124E-010
  0.26334999999999997          2.4501976641187750E-010
  0.26419999999999999          2.5824028711870367E-010
  0.26505000000000001          2.6141605134928636E-010
  0.26589999999999997          2.6395329726178890E-010
  0.26674999999999999          2.6479514284374894E-010
  0.26760000000000000          2.6049370765914709E-010
  0.26844999999999997          2.6862726897492611E-010
  0.26929999999999998          3.0107256173816238E-010
  0.27015000000000000          3.6164019944894682E-010
  0.27099999999999996          4.3077443164212664E-010
  0.27184999999999998          4.8382996101301728E-010
  0.27270000000000000          5.0502389661692682E-010
  0.27354999999999996          4.9408151192326805E-010
  0.27439999999999998          4.4935778177861846E-010
  0.27524999999999999          3.8966735730044250E-010
  0.27609999999999996          3.1620457391790674E-010
  0.27694999999999997          2.2438648215970108E-010
  0.27779999999999999          1.0682297602905566E-010
  0.27865000000000001         -4.3400044083714839E-011
  0.27949999999999997         -2.3704451043108504E-010
  0.28034999999999999         -4.6698670570690520E-010
  0.28120000000000001         -7.2429548177242037E-010
  0.28204999999999997         -9.7709552899843607E-010
  0.28289999999999998         -1.1818197952380427E-009
  0.28375000000000000         -1.2964999389830298E-009
  0.28459999999999996         -1.3144109453199632E-009
  0.28544999999999998         -1.2710762922339865E-009
  0.28630000000000000         -1.2317573627198229E-009
  0.28714999999999996         -1.2534338649471122E-009
  0.28799999999999998         -1.3453910192406764E-009
  0.28885000000000000         -1.4670113579050726E-009
  0.28969999999999996         -1.5574509876486054E-009
  0.29054999999999997         -1.5741128679659048E-009
  0.29139999999999999         -1.5079603861174046E-009
  0.29224999999999995         -1.3716649338981011E-009
  0.29309999999999997         -1.1721116140796543E-009
  0.29394999999999999         -8.9211720564303602E-010
  0.29480000000000001         -5.0835070919722728E-010
  0.29564999999999997         -2.4634855814347281E-011
  0.29649999999999999          5.0309638265014364E-010
  0.29735000000000000          9.8665569617389123E-010
  0.29819999999999997          1.3498700109285783E-009
  0.29904999999999998          1.5693694798020984E-009
  0.29990000000000000          1.6813510665117035E-009
  0.30074999999999996          1.7514207027486024E-009
  0.30159999999999998          1.8261568635307562E-009
  0.30245000000000000          1.9089876579324446E-009
  0.30329999999999996          1.9754404730797570E-009
  0.30414999999999998          2.0000306434473552E-009
  0.30499999999999999          1.9797774409847880E-009
  0.30584999999999996          1.9261597485455226E-009
  0.30669999999999997          1.8463058946017585E-009
  0.30754999999999999          1.7263002391779917E-009
  0.30840000000000001          1.5418565780958658E-009
  0.30924999999999997          1.2801503007056798E-009
  0.31009999999999999          9.5946033621318802E-010
  0.31095000000000000          6.2219140627953369E-010
  0.31179999999999997          3.1339220536155329E-010
  0.31264999999999998          5.7195355683591423E-011
  0.31350000000000000         -1.5110566644509563E-010
  0.31434999999999996         -3.3020950776789688E-010
  0.31519999999999998         -5.0674106374264984E-010
  0.31605000000000000         -7.0659994806762834E-010
  0.31689999999999996         -9.5860659042818278E-010
  0.31774999999999998         -1.2832316095953613E-009
  0.31859999999999999         -1.6842451588125820E-009
  0.31944999999999996         -2.1298657043491553E-009
  0.32029999999999997         -2.5595434469810607E-009
  0.32114999999999999         -2.9062979752024574E-009
  0.32199999999999995         -3.1308187340936024E-009
  0.32284999999999997         -3.2419900057990923E-009
  0.32369999999999999         -3.2812103624164490E-009
  0.32455000000000001         -3.2864064618536720E-009
  0.32539999999999997         -3.2653590976170020E-009
  0.32624999999999998         -3.1939303622404488E-009
  0.32710000000000000         -3.0367166285234391E-009
  0.32794999999999996         -2.7728749034850071E-009
  0.32879999999999998         -2.3967582917118610E-009
  0.32965000000000000         -1.9068928904577296E-009
  0.33049999999999996         -1.2924897554945827E-009
  0.33134999999999998         -5.4508317281207804E-010
  0.33220000000000000          3.1241228407149959E-010
  0.33304999999999996          1.2107543156399765E-009
  0.33389999999999997          2.0526785438095734E-009
  0.33474999999999999          2.7527598599159453E-009
  0.33559999999999995          3.2788347624962194E-009
  0.33644999999999997          3.6594364247297291E-009
  0.33729999999999999          3.9502275433786851E-009
  0.33815000000000001          4.1950943622032417E-009
  0.33899999999999997          4.4053427553479986E-009
  0.33984999999999999          4.5746485201022310E-009
  0.34070000000000000          4.6987793064201511E-009
  0.34154999999999996          4.7802282419814315E-009
  0.34239999999999998          4.8089608882553284E-009
  0.34325000000000000          4.7417694076247983E-009