  -4.80000019       0.00000000
  -4.76000023       0.00000000
  -4.71999979       0.00000000
  -4.67999983       0.00000000
  -4.63999987       0.00000000
  -4.59999990       0.00000000
  -4.55999994       0.00000000
  -4.51999998       0.00000000
  -4.48000002       0.00000000
  -4.44000006      -3.49435583E-29
  -4.40000010      -6.12054855E-28
  -4.36000013      -5.52316148E-27
  -4.32000017      -3.40352805E-26
  -4.28000021      -1.60071637E-25
  -4.23999977      -6.08081399E-25
  -4.19999981      -1.92370753E-24
  -4.15999985      -5.13522299E-24
  -4.11999989      -1.15129098E-23
  -4.07999992      -2.09021760E-23
  -4.03999996      -2.67033140E-23
  -4.00000000      -4.93728004E-24
  -3.96000004       1.04083217E-22
  -3.92000008       4.17575657E-22
  -3.88000011       1.11873038E-21
  -3.83999991       2.41216550E-21
  -3.79999995       4.35688186E-21
  -3.75999999       6.48268676E-21
  -3.72000003       7.10440063E-21
  -3.68000007       2.33247969E-21
  -3.64000010      -1.50109419E-20
  -3.59999990      -5.59919461E-20
  -3.55999994      -1.34597369E-19
  -3.51999998      -2.63609976E-19
  -3.48000002      -4.45513016E-19
  -3.44000006      -6.57114760E-19
  -3.40000010      -8.28341095E-19
  -3.35999990      -8.19083393E-19
  -3.31999993      -4.03128876E-19
  -3.27999997       7.25730012E-19
  -3.24000001       2.90520969E-18
  -3.20000005       6.39249934E-18
  -3.16000009       1.11747121E-17
  -3.11999989       1.67072650E-17
  -3.07999992       2.16193910E-17
  -3.03999996       2.34723169E-17
  -3.00000000       1.87062396E-17
  -2.96000004       2.95137133E-18
  -2.92000008      -2.81173778E-17
  -2.88000011      -7.72593574E-17
  -2.83999991      -1.43499279E-16
  -2.79999995      -2.19562719E-16
  -2.75999999      -2.89477454E-16
  -2.72000003      -3.27230321E-16
  -2.68000007      -2.97623899E-16
  -2.64000010      -1.60526680E-16
  -2.59999990       1.20582512E-16
  -2.55999994       5.65623297E-16
  -2.51999998       1.16155894E-15
  -2.48000002       1.84538770E-15
  -2.44000006       2.49093861E-15
  -2.40000010       2.90535266E-15
  -2.35999990       2.84164477E-15
  -2.31999993       2.03273677E-15
  -2.27999997       2.49329336E-16
  -2.24000001      -2.62120169E-15
  -2.20000005      -6.48468307E-15
  -2.16000009      -1.09563348E-14
  -2.11999989      -1.53075998E-14
  -2.07999992      -1.84715372E-14
  -2.03999996      -1.91327921E-14
  -2.00000000      -1.59187679E-14
  -1.96000004      -7.69103460E-15
  -1.91999996       6.08879216E-15
  -1.88000000       2.49732689E-14
  -1.84000003       4.72051665E-14
  -1.79999995       6.95554251E-14
  -1.75999999       8.74247574E-14
  -1.72000003       9.52888417E-14
  -1.67999995       8.75184257E-14
  -1.63999999       5.95320573E-14
  -1.60000002       9.14890027E-15
  -1.55999994      -6.20826293E-14
  -1.51999998      -1.47876828E-13
  -1.48000002      -2.36849602E-13
  -1.44000006      -3.13097747E-13
  -1.39999998      -3.57902835E-13
  -1.36000001      -3.52559914E-13
  -1.32000005      -2.82091082E-13
  -1.27999997      -1.39340823E-13
  -1.24000001       7.12794759E-14
  -1.20000005       3.31271469E-13
  -1.15999997       6.07620670E-13
  -1.12000000       8.55130691E-13
  -1.08000004       1.02180384E-12
  -1.03999996       1.05699650E-12
  -1.00000000       9.21432743E-13
 -0.959999979       5.97540734E-13
 -0.920000017       9.81212792E-14
 -0.879999995      -5.28800311E-13
 -0.839999974      -1.20083251E-12
 -0.800000012      -1.80897506E-12
 -0.759999990      -2.23234669E-12
 -0.720000029      -2.35855519E-12
 -0.680000007      -2.10694244E-12
 -0.639999986      -1.45072853E-12
 -0.600000024      -4.33419549E-13
 -0.560000002       8.25019252E-13
 -0.519999981       2.13564301E-12
 -0.479999989       3.26307189E-12
 -0.439999998       3.96180094E-12
 -0.400000006       4.02196549E-12
 -0.360000014       3.31746935E-12
 -0.319999993       1.84749481E-12
 -0.280000001      -2.38113620E-13
 -0.239999995      -2.63780013E-12
 -0.200000003      -4.92664416E-12
 -0.159999996      -6.61440564E-12
 -0.119999997      -7.22786284E-12
  -7.99999982E-02  -6.40630604E-12
  -3.99999991E-02  -3.99443846E-12
   2.77555756E-16  -1.14502049E-13
   3.99999991E-02   4.79992608E-12
   7.99999982E-02   1.00219503E-11
  0.119999997       1.46073813E-11
  0.159999996       1.75252608E-11
  0.200000003       1.78287489E-11
  0.239999995       1.48425230E-11
  0.280000001       8.33591182E-12
  0.319999993      -1.35135208E-12
  0.360000014      -1.32606478E-11
  0.400000006      -2.58640956E-11
  0.439999998      -3.72191548E-11
  0.479999989      -4.52179058E-11
  0.519999981      -4.79032196E-11
  0.560000002      -4.38088350E-11
  0.600000024      -3.22709984E-11
  0.639999986      -1.36571822E-11
  0.680000007       1.05354050E-11
  0.720000029       3.77433605E-11
  0.759999990       6.45721809E-11
  0.800000012       8.71863415E-11
  0.839999974       1.01811858E-10
  0.879999995       1.05287584E-10
  0.920000017       9.55881346E-11
  0.959999979       7.22388815E-11
   1.00000000       3.65530210E-11
   1.03999996      -8.35888303E-12
   1.08000004      -5.78271805E-11
   1.12000000      -1.06096007E-10
   1.15999997      -1.46983772E-10
   1.20000005      -1.74655623E-10
   1.24000001      -1.84412749E-10
   1.27999997      -1.73395451E-10
   1.32000005      -1.41102852E-10
   1.36000001      -8.96499611E-11
   1.39999998      -2.37117721E-11
   1.44000006       4.98602479E-11
   1.48000002       1.22724580E-10
   1.51999998       1.85976679E-10
   1.55999994       2.31221736E-10
   1.60000002       2.51674043E-10
   1.63999999       2.43151665E-10
   1.67999995       2.04835579E-10
   1.72000003       1.39677395E-10
   1.75999999       5.43686658E-11
   1.79999995      -4.11722878E-11
   1.84000003      -1.34788181E-10
   1.88000000      -2.13476931E-10
   1.91999996      -2.65063527E-10
   1.96000004      -2.79966411E-10
   2.00000000      -2.52834781E-10
   2.03999996      -1.83815671E-10
   2.07999992      -7.92223925E-11
   2.11999989       4.85778709E-11
   2.16000009       1.82157081E-10
   2.20000005       3.00890007E-10
   2.24000001       3.83548970E-10
   2.27999997       4.11360251E-10
   2.31999993       3.71140896E-10
   2.35999990       2.58063348E-10
   2.40000010       7.75826278E-11
   2.44000006      -1.53882684E-10
   2.48000002      -4.09793421E-10
   2.51999998      -6.55942189E-10
   2.55999994      -8.54365856E-10
   2.59999990      -9.68327196E-10
   2.64000010      -9.67757874E-10
   2.68000007      -8.34412373E-10
   2.72000003      -5.65933356E-10
   2.75999999      -1.78105877E-10
   2.79999995       2.95230423E-10
   2.83999991       8.04838529E-10
   2.88000011       1.29117683E-09
   2.92000008       1.69141057E-09
   2.96000004       1.94749661E-09
   3.00000000       2.01426031E-09
   3.03999996       1.86630644E-09
   3.07999992       1.50269708E-09
   3.11999989       9.48589429E-10
   3.16000009       2.53433802E-10
   3.20000005      -5.14182308E-10
   3.24000001      -1.27445732E-09
   3.27999997      -1.94604466E-09
   3.31999993      -2.45615595E-09
   3.35999990      -2.74967982E-09
   3.40000010      -2.79601675E-09
   3.44000006      -2.59264032E-09
   3.48000002      -2.16487739E-09
   3.51999998      -1.56196112E-09
   3.55999994      -8.49964432E-10
   3.59999990      -1.02698280E-10
   3.64000010       6.08047890E-10
   3.68000007       1.22146482E-09
   3.72000003       1.69457481E-09
   3.75999999       2.00602801E-09
   3.79999995       2.15640394E-09
   3.83999991       2.16515272E-09
   3.88000011       2.06484363E-09
   3.92000008       1.89381577E-09
   3.96000004       1.68854730E-09
   4.00000000       1.47707024E-09
   4.03999996       1.27453470E-09
   4.07999992       1.08162368E-09
   4.11999989       8.86011320E-10
   4.15999985       6.66516065E-10
   4.19999981       3.99132810E-10
   4.23999977       6.38107067E-11
   4.28000021      -3.49282575E-10
   4.32000017      -8.35171432E-10
   4.36000013      -1.37202982E-09
   4.40000010      -1.92211891E-09
   4.44000006      -2.43563658E-09
   4.48000002      -2.85691382E-09
   4.51999998      -3.13201176E-09
   4.55999994      -3.21652238E-09
   4.59999990      -3.08235482E-09
   4.63999987      -2.72242784E-09
   4.67999983      -2.15252172E-09
   4.71999979      -1.40997014E-09
   4.76000023      -5.49354062E-10
   4.80000019       3.64206304E-10
   4.84000015       1.26321320E-09
   4.88000011       2.08627093E-09
   4.92000008       2.78571521E-09
   4.96000004       3.33337047E-09
   5.00000000       3.72369557E-09
   5.03999996       3.97395894E-09
   5.07999992       4.12149159E-09
   5.11999989       4.21847890E-09
   5.15999985       4.32505631E-09
   5.19999981       4.50170301E-09
   5.23999977       4.80197970E-09
   5.28000021       5.26661337E-09
   5.32000017       5.91972604E-09
   5.36000013       6.76772327E-09
   5.40000010       7.80099896E-09
   5.44000006       8.99824837E-09
   5.48000002       1.03328324E-08
   5.51999998       1.17803554E-08
   5.55999994       1.33264022E-08
   5.59999990       1.49733115E-08
   5.63999987       1.67448615E-08
   5.67999983       1.86879117E-08
   5.71999979       2.08702158E-08
   5.76000023       2.33739783E-08
   5.80000019       2.62850239E-08
   5.84000015       2.96778424E-08
   5.88000011       3.35970007E-08
   5.92000008       3.80358145E-08
   5.96000004       4.29131823E-08
   6.00000000       4.80497242E-08
   6.03999996       5.31440740E-08
   6.07999992       5.77500678E-08
   6.11999989       6.12554203E-08
   6.15999985       6.28614174E-08
   6.19999981       6.15634193E-08
   6.23999977       5.61306557E-08
   6.28000021       4.50836097E-08
   6.32000017       2.66663083E-08
   6.36000013      -1.18920729E-09
   6.40000010      -4.09096614E-08
   6.44000006      -9.53418393E-08
   6.48000002      -1.67831445E-07
   6.51999998      -2.62322970E-07
   6.55999994      -3.83482302E-07
   6.59999990      -5.36844425E-07
   6.63999987      -7.28986720E-07
   6.67999983      -9.67729648E-07
   6.71999979      -1.26236273E-06
   6.76000023      -1.62389927E-06
   6.80000019      -2.06535742E-06
   6.84000015      -2.60207275E-06
   6.88000011      -3.25204451E-06
   6.92000008      -4.03632157E-06
   6.96000004      -4.97943529E-06
   7.00000000      -6.10989355E-06
   7.03999996      -7.46074284E-06
   7.07999992      -9.07022240E-06
   7.11999989      -1.09825132E-05
   7.15999985      -1.32486057E-05
   7.19999981      -1.59272950E-05
   7.23999977      -1.90863320E-05
   7.28000021      -2.28037097E-05
   7.32000017      -2.71691079E-05
   7.36000013      -3.22855158E-05
   7.40000010      -3.82709695E-05
   7.44000006      -4.52604618E-05
   7.48000002      -5.34079845E-05
   7.51999998      -6.28886628E-05
   7.55999994      -7.39009774E-05
   7.59999990      -8.66691116E-05
   7.63999987      -1.01445279E-04
   7.67999983      -1.18512056E-04
   7.71999979      -1.38184754E-04
   7.76000023      -1.60813652E-04
   7.80000019      -1.86786157E-04
   7.84000015      -2.16528773E-04
   7.88000011      -2.50508776E-04
   7.92000008      -2.89235672E-04
   7.96000004      -3.33262200E-04
   8.00000000      -3.83184844E-04
   8.03999996      -4.39643773E-04
   8.07999992      -5.03322051E-04
   8.11999989      -5.74944133E-04
   8.15999985      -6.55273499E-04
   8.19999981      -7.45108933E-04
   8.23999977      -8.45280243E-04
   8.27999973      -9.56642441E-04
   8.31999969      -1.08006864E-03
   8.35999966      -1.21644163E-03
   8.39999962      -1.36664417E-03
   8.43999958      -1.53154787E-03
   8.47999954      -1.71200000E-03
   8.52000046      -1.90880953E-03
   8.56000042      -2.12273118E-03
   8.60000038      -2.35444889E-03
   8.64000034      -2.60455650E-03
   8.68000031      -2.87353899E-03
   8.72000027      -3.16175097E-03
   8.76000023      -3.46939475E-03
   8.80000019      -3.79649946E-03
   8.84000015      -4.14289627E-03
   8.88000011      -4.50819870E-03
   8.92000008      -4.89177648E-03
   8.96000004      -5.29273693E-03
   9.00000000      -5.70990192E-03
   9.03999996      -6.14179065E-03
   9.07999992      -6.58660149E-03
   9.11999989      -7.04219844E-03
   9.15999985      -7.50609953E-03
   9.19999981      -7.97546934E-03
   9.23999977      -8.44711438E-03
   9.27999973      -8.91748723E-03
   9.31999969      -9.38268937E-03
   9.35999966      -9.83848516E-03
   9.39999962      -1.02803195E-02
   9.43999958      -1.07033383E-02
   9.47999954      -1.11024240E-02
   9.52000046      -1.14722261E-02
   9.56000042      -1.18072117E-02
   9.60000038      -1.21017089E-02
   9.64000034      -1.23499660E-02
   9.68000031      -1.25462105E-02
   9.72000027      -1.26847196E-02
   9.76000023      -1.27598913E-02
   9.80000019      -1.27663221E-02
   9.84000015      -1.26988795E-02
   9.88000011      -1.25527931E-02
   9.92000008      -1.23237278E-02
   9.96000004      -1.20078726E-02
   10.0000000      -1.16020171E-02
   10.0400000      -1.11036347E-02
   10.0799999      -1.05109503E-02
   10.1199999      -9.82301123E-03
   10.1599998      -9.03975125E-03
   10.1999998      -8.16203468E-03
   10.2399998      -7.19170924E-03
   10.2799997      -6.13162993E-03
   10.3199997      -4.98568313E-03
   10.3599997      -3.75879044E-03
   10.3999996      -2.45690346E-03
   10.4399996      -1.08698057E-03
   10.4799995       3.43048683E-04
   10.5200005       1.82433496E-03
   10.5600004       3.34717520E-03
   10.6000004       4.90109297E-03
   10.6400003       6.47493312E-03
   10.6800003       8.05696659E-03
   10.7200003       9.63500701E-03
   10.7600002       1.11965453E-02
   10.8000002       1.27288764E-02
   10.8400002       1.42192515E-02
   10.8800001       1.56550184E-02
   10.9200001       1.70237776E-02
   10.9600000       1.83135271E-02
   11.0000000       1.95128117E-02
   11.0400000       2.06108689E-02
   11.0799999       2.15977654E-02
   11.1199999       2.24645194E-02
   11.1599998       2.32032295E-02
   11.1999998       2.38071661E-02
   11.2399998       2.42708661E-02
   11.2799997       2.45902110E-02
   11.3199997       2.47624740E-02
   11.3599997       2.47863643E-02
   11.3999996       2.46620420E-02
   11.4399996       2.43911184E-02
   11.4799995       2.39766296E-02
   11.5200005       2.34230049E-02
   11.5600004       2.27360092E-02
   11.6000004       2.19226535E-02
   11.6400003       2.09911130E-02
   11.6800003       1.99506264E-02
   11.7200003       1.88113507E-02
   11.7600002       1.75842624E-02
   11.8000002       1.62809882E-02
   11.8400002       1.49136726E-02
   11.8800001       1.34948222E-02
   11.9200001       1.20371561E-02
   11.9600000       1.05534438E-02
   12.0000000       9.05636139E-03
   12.0400000       7.55833881E-03
   12.0799999       6.07142830E-03
   12.1199999       4.60716803E-03
   12.1599998       3.17646354E-03
   12.1999998       1.78948289E-03
   12.2399998       4.55559435E-04
   12.2799997      -8.16886546E-04
   12.3199997      -2.02041189E-03
   12.3599997      -3.14859953E-03
   12.3999996      -4.19609016E-03
   12.4399996      -5.15860133E-03
   12.4799995      -6.03292556E-03
   12.5200005      -6.81691850E-03
   12.5600004      -7.50947138E-03
   12.6000004      -8.11046921E-03
   12.6400003      -8.62073991E-03
   12.6800003      -9.04199015E-03
   12.7200003      -9.37673170E-03
   12.7600002      -9.62820742E-03
   12.8000002      -9.80030280E-03
   12.8400002      -9.89745557E-03
   12.8800001      -9.92456917E-03
   12.9200001      -9.88691486E-03
   12.9600000      -9.79004614E-03
   13.0000000      -9.63970087E-03
   13.0400000      -9.44172498E-03
   13.0799999      -9.20198206E-03
   13.1199999      -8.92628077E-03
   13.1599998      -8.62030964E-03
   13.1999998      -8.28956813E-03
   13.2399998      -7.93931913E-03
   13.2799997      -7.57453591E-03
   13.3199997      -7.19987089E-03
   13.3599997      -6.81962026E-03
   13.3999996      -6.43770583E-03
   13.4399996      -6.05766010E-03
   13.4799995      -5.68261929E-03
   13.5200005      -5.31532476E-03
   13.5600004      -4.95812902E-03
   13.6000004      -4.61300695E-03
   13.6400003      -4.28157346E-03
   13.6800003      -3.96510400E-03
   13.7200003      -3.66455899E-03
   13.7600002      -3.38060828E-03
   13.8000002      -3.11366026E-03
   13.8400002      -2.86389049E-03
   13.8800001      -2.63126893E-03
   13.9200001      -2.41558929E-03
   13.9600000      -2.21649464E-03
   14.0000000      -2.03350326E-03
   14.0400000      -1.86603132E-03
   14.0799999      -1.71341316E-03
   14.1199999      -1.57492119E-03
   14.1599998      -1.44977961E-03
   14.1999998      -1.33717956E-03
   14.2399998      -1.23628939E-03
   14.2799997      -1.14626344E-03
   14.3199997      -1.06624933E-03
   14.3599997      -9.95392445E-04
   14.3999996      -9.32840572E-04
   14.4399996      -8.77746032E-04
   14.4799995      -8.29267607E-04
   14.5200005      -7.86572287E-04
   14.5600004      -7.48836377E-04
   14.6000004      -7.15246832E-04
   14.6400003      -6.85003528E-04
   14.6800003      -6.57321245E-04
   14.7200003      -6.31433679E-04
   14.7600002      -6.06597401E-04
   14.8000002      -5.82097215E-04
   14.8400002      -5.57252963E-04
   14.8800001      -5.31426689E-04
   14.9200001      -5.04031021E-04
   14.9600000      -4.74537956E-04
   15.0000000      -4.42488206E-04
   15.0400000      -4.07500396E-04
   15.0799999      -3.69280315E-04
   15.1199999      -3.27629183E-04
   15.1599998      -2.82451365E-04
   15.1999998      -2.33760511E-04
   15.2399998      -1.81684212E-04
   15.2799997      -1.26466693E-04
   15.3199997      -6.84695551E-05
   15.3599997      -8.16987358E-06
   15.3999996       5.38439162E-05
   15.4399996       1.16878968E-04
   15.4799995       1.80147443E-04
   15.5200005       2.42778638E-04
   15.5600004       3.03833571E-04
   15.6000004       3.62321851E-04
   15.6400003       4.17220435E-04
   15.6800003       4.67494450E-04
   15.7200003       5.12118917E-04
   15.7600002       5.50101744E-04
   15.8000002       5.80506749E-04
   15.8400002       6.02476532E-04
   15.8800001       6.15255150E-04
   15.9200001       6.18209015E-04
   15.9600000       6.10846560E-04
   16.0000000       5.92835248E-04
   16.0400009       5.64016344E-04
   16.0799999       5.24416741E-04
   16.1200008       4.74256754E-04
   16.1599998       4.13955044E-04
   16.2000008       3.44129017E-04
   16.2399998       2.65591487E-04
   16.2800007       1.79343260E-04
   16.3199997       8.65614638E-05
   16.3600006      -1.14158447E-05
   16.3999996      -1.13109025E-04
   16.4400005      -2.16919463E-04
   16.4799995      -3.21155414E-04
   16.5200005      -4.24060272E-04
   16.5599995      -5.23842988E-04
   16.6000004      -6.18709950E-04
   16.6399994      -7.06897816E-04
   16.6800003      -7.86706398E-04
   16.7199993      -8.56531551E-04
   16.7600002      -9.14896314E-04
   16.7999992      -9.60481411E-04
   16.8400002      -9.92152491E-04
   16.8799992      -1.00898545E-03
   16.9200001      -1.01028779E-03
   16.9599991      -9.95616778E-04
   17.0000000      -9.64793202E-04
   17.0400009      -9.17910424E-04
   17.0799999      -8.55339633E-04
   17.1200008      -7.77729496E-04
   17.1599998      -6.86001091E-04
   17.2000008      -5.81338187E-04
   17.2399998      -4.65172983E-04
   17.2800007      -3.39166698E-04
   17.3199997      -2.05186952E-04
   17.3600006      -6.52808085E-05
   17.3999996       7.83551441E-05
   17.4400005       2.23407464E-04
   17.4799995       3.67480592E-04
   17.5200005       5.08133322E-04
   17.5599995       6.42916013E-04
   17.6000004       7.69408129E-04
   17.6399994       8.85255460E-04
   17.6800003       9.88206826E-04
   17.7199993       1.07614847E-03
   17.7600002       1.14713737E-03
   17.7999992       1.19943148E-03
   17.8400002       1.23151694E-03
   17.8799992       1.24213216E-03
   17.9200001       1.23028748E-03
   17.9599991       1.19528233E-03
   18.0000000       1.13671564E-03
   18.0400009       1.05449429E-03
   18.0799999       9.48835863E-04
   18.1200008       8.20267422E-04
   18.1599998       6.69620233E-04
   18.2000008       4.98019974E-04
   18.2399998       3.06874339E-04
   18.2800007       9.78559838E-05
   18.3199997      -1.27116626E-04
   18.3600006      -3.65901622E-04
   18.3999996      -6.16158242E-04
   18.4400005      -8.75373255E-04
   18.4799995      -1.14088890E-03
   18.5200005      -1.40993227E-03
   18.5599995      -1.67964492E-03
   18.6000004      -1.94711296E-03
   18.6399994      -2.20939750E-03
   18.6800003      -2.46356451E-03
   18.7199993      -2.70671281E-03
   18.7600002      -2.93600373E-03
   18.7999992      -3.14868591E-03
   18.8400002      -3.34212044E-03
   18.8799992      -3.51380534E-03
   18.9200001      -3.66139528E-03
   18.9599991      -3.78272287E-03
   19.0000000      -3.87581368E-03
   19.0400009      -3.93890357E-03
   19.0799999      -3.97045072E-03
   19.1200008      -3.96914780E-03
   19.1599998      -3.93393077E-03
   19.2000008      -3.86398542E-03
   19.2399998      -3.75875388E-03
   19.2800007      -3.61793814E-03
   19.3199997      -3.44150094E-03
   19.3600006      -3.22966604E-03
   19.3999996      -2.98291724E-03
   19.4400005      -2.70199333E-03
   19.4799995      -2.38788570E-03
   19.5200005      -2.04182952E-03
   19.5599995      -1.66529801E-03
   19.6000004      -1.25999225E-03
   19.6399994      -8.27831449E-04
   19.6800003      -3.70941329E-04
   19.7199993       1.08359185E-04
   19.7600002       6.07571390E-04
   19.7999992       1.12403207E-03
   19.8400002       1.65493006E-03
   19.8799992       2.19732337E-03
   19.9200001       2.74815783E-03
   19.9599991       3.30428616E-03
   20.0000000       3.86248785E-03
   20.0400009       4.41949069E-03
   20.0799999       4.97199036E-03
   20.1200008       5.51667484E-03
   20.1599998       6.05024304E-03
   20.2000008       6.56943023E-03
   20.2399998       7.07102753E-03
   20.2800007       7.55190477E-03
   20.3199997       8.00903141E-03
   20.3600006       8.43949802E-03
   20.3999996       8.84053856E-03
   20.4400005       9.20954440E-03
   20.4799995       9.54408757E-03
   20.5200005       9.84193664E-03
   20.5599995       1.01010734E-02
   20.6000004       1.03197079E-02
   20.6399994       1.04962895E-02
   20.6800003       1.06295198E-02
   20.7199993       1.07183652E-02
   20.7600002       1.07620582E-02
   20.7999992       1.07601099E-02
   20.8400002       1.07123116E-02
   20.8799992       1.06187370E-02
   20.9200001       1.04797417E-02
   20.9599991       1.02959648E-02
   21.0000000       1.00683216E-02
   21.0400009       9.79800057E-03
   21.0799999       9.48645640E-03
   21.1200008       9.13539808E-03
   21.1599998       8.74678418E-03
   21.2000008       8.32280237E-03
   21.2399998       7.86585920E-03
   21.2800007       7.37856561E-03
   21.3199997       6.86371652E-03
   21.3600006       6.32427633E-03
   21.3999996       5.76335331E-03
   21.4400005       5.18418243E-03
   21.4799995       4.59010201E-03
   21.5200005       3.98452999E-03
   21.5599995       3.37094022E-03
   21.6000004       2.75283540E-03
   21.6399994       2.13372405E-03
   21.6800003       1.51709199E-03
   21.7199993       9.06378555E-04
   21.7600002       3.04948073E-04
   21.7999992      -2.83934845E-04
   21.8400002      -8.57131439E-04
   21.8799992      -1.41165347E-03
   21.9200001      -1.94468675E-03
   21.9599991      -2.45361426E-03
   22.0000000      -2.93603633E-03
   22.0400009      -3.38979159E-03
   22.0799999      -3.81297246E-03
   22.1200008      -4.20394167E-03
   22.1599998      -4.56134509E-03
   22.2000008      -4.88412194E-03
   22.2399998      -5.17151086E-03
   22.2800007      -5.42305550E-03
   22.3199997      -5.63860592E-03
   22.3600006      -5.81831485E-03
   22.3999996      -5.96263353E-03
   22.4400005      -6.07230235E-03
   22.4799995      -6.14833832E-03
   22.5200005      -6.19201781E-03
   22.5599995      -6.20486261E-03
   22.6000004      -6.18861429E-03
   22.6399994      -6.14521094E-03
   22.6800003      -6.07676199E-03
   22.7199993      -5.98551892E-03
   22.7600002      -5.87384496E-03
   22.7999992      -5.74418437E-03
   22.8400002      -5.59902983E-03
   22.8799992      -5.44088893E-03
   22.9200001      -5.27225342E-03
   22.9599991      -5.09556569E-03
   23.0000000      -4.91318805E-03
   23.0400009      -4.72737337E-03
   23.0799999      -4.54023853E-03
   23.1200008      -4.35373746E-03
   23.1599998      -4.16964060E-03
   23.2000008      -3.98951629E-03
   23.2399998      -3.81471473E-03
   23.2800007      -3.64635675E-03
   23.3199997      -3.48532596E-03
   23.3600006      -3.33226705E-03
   23.3999996      -3.18758516E-03
   23.4400005      -3.05145234E-03
   23.4799995      -2.92381598E-03
   23.5200005      -2.80441204E-03
   23.5599995      -2.69278232E-03
   23.6000004      -2.58829468E-03
   23.6399994      -2.49016588E-03
   23.6800003      -2.39748764E-03
   23.7199993      -2.30925484E-03
   23.7600002      -2.22439365E-03
   23.7999992      -2.14179303E-03
   23.8400002      -2.06033373E-03
   23.8799992      -1.97891844E-03
   23.9200001      -1.89650047E-03
   23.9599991      -1.81211182E-03
   24.0000000      -1.72488717E-03
   24.0400009      -1.63408672E-03
   24.0799999      -1.53911533E-03
   24.1200008      -1.43953902E-03
   24.1599998      -1.33509655E-03
   24.2000008      -1.22570829E-03
   24.2399998      -1.11147983E-03
   24.2800007      -9.92702204E-04
   24.3199997      -8.69848300E-04
   24.3600006      -7.43563636E-04
   24.3999996      -6.14655088E-04
   24.4400005      -4.84074961E-04
   24.4799995      -3.52902454E-04
   24.5200005      -2.22321789E-04
   24.5599995      -9.35985736E-05
   24.6000004       3.19457249E-05
   24.6399994       1.52960507E-04
   24.6800003       2.68093077E-04
   24.7199993       3.76015902E-04
   24.7600002       4.75453126E-04
   24.7999992       5.65205817E-04
   24.8400002       6.44176034E-04
   24.8799992       7.11388653E-04
   24.9200001       7.66010897E-04
   24.9599991       8.07368953E-04
   25.0000000       8.34961713E-04
   25.0400009       8.48472118E-04
   25.0799999       8.47773976E-04
   25.1200008       8.32936261E-04
   25.1599998       8.04223528E-04
   25.2000008       7.62093521E-04
   25.2399998       7.07191241E-04
   25.2800007       6.40339684E-04
   25.3199997       5.62528207E-04
   25.3600006       4.74898057E-04
   25.3999996       3.78725934E-04
   25.4400005       2.75405269E-04
   25.4799995       1.66426296E-04
   25.5200005       5.33549719E-05
   25.5599995      -6.21892978E-05
   25.6000004      -1.78555973E-04
   25.6399994      -2.94086145E-04
   25.6800003      -4.07135027E-04
   25.7199993      -5.16094093E-04
   25.7600002      -6.19412225E-04
   25.7999992      -7.15616799E-04
   25.8400002      -8.03332427E-04
   25.8799992      -8.81299260E-04
   25.9200001      -9.48389352E-04
   25.9599991      -1.00362150E-03
   26.0000000      -1.04617409E-03
   26.0400009      -1.07539585E-03
   26.0799999      -1.09081483E-03
   26.1200008      -1.09214545E-03
   26.1599998      -1.07929227E-03
   26.2000008      -1.05235260E-03
   26.2399998      -1.01161574E-03
   26.2800007      -9.57560900E-04
   26.3199997      -8.90851312E-04
   26.3600006      -8.12327489E-04
   26.3999996      -7.22996832E-04
   26.4400005      -6.24021806E-04
   26.4799995      -5.16705273E-04
   26.5200005      -4.02474368E-04
   26.5599995      -2.82861816E-04
   26.6000004      -1.59486226E-04
   26.6399994      -3.40301995E-05
   26.6800003       9.17821817E-05
   26.7199993       2.16209388E-04
   26.7600002       3.37516714E-04
   26.7999992       4.54001303E-04
   26.8400002       5.64017158E-04
   26.8799992       6.65999716E-04
   26.9200001       7.58489943E-04
   26.9599991       8.40156921E-04
   27.0000000       9.09820083E-04
   27.0400009       9.66468186E-04
   27.0799999       1.00927730E-03
   27.1200008       1.03762595E-03
   27.1599998       1.05110661E-03
   27.2000008       1.04953500E-03
   27.2399998       1.03295629E-03
   27.2800007       1.00164616E-03
   27.3199997       9.56110773E-04
   27.3600006       8.97080521E-04
   27.3999996       8.25502560E-04
   27.4400005       7.42528180E-04
   27.4799995       6.49497902E-04
   27.5200005       5.47923031E-04
   27.5599995       4.39464406E-04
   27.6000004       3.25908419E-04
   27.6399994       2.09140868E-04
   27.6800003       9.11189418E-05
   27.7199993      -2.61583191E-05
   27.7600002      -1.40680524E-04
   27.7999992      -2.50457000E-04
   27.8400002      -3.53547890E-04
   27.8799992      -4.48094623E-04
   27.9200001      -5.32349455E-04
   27.9599991      -6.04703906E-04
   28.0000000      -6.63714425E-04
   28.0400009      -7.08126812E-04
   28.0799999      -7.36896996E-04
   28.1200008      -7.49209605E-04
   28.1599998      -7.44493038E-04
   28.2000008      -7.22431287E-04
   28.2399998      -6.82971731E-04
   28.2800007      -6.26329915E-04
   28.3199997      -5.52989950E-04
   28.3600006      -4.63701435E-04
   28.3999996      -3.59472557E-04
   28.4400005      -2.41559581E-04
   28.4799995      -1.11452384E-04
   28.5200005       2.91428260E-05
   28.5599995       1.78324306E-04
   28.6000004       3.34018172E-04
   28.6399994       4.94004169E-04
   28.6800003       6.55943877E-04
   28.7199993       8.17410124E-04
   28.7600002       9.75917617E-04
   28.7999992       1.12895481E-03
   28.8400002       1.27401599E-03
   28.8799992       1.40863238E-03
   28.9200001       1.53040444E-03
   28.9599991       1.63703237E-03
   29.0000000       1.72634493E-03
   29.0400009       1.79632800E-03
   29.0799999       1.84514921E-03
   29.1200008       1.87118223E-03
   29.1599998       1.87302777E-03
   29.2000008       1.84952992E-03
   29.2399998       1.79979287E-03
   29.2800007       1.72319007E-03
   29.3199997       1.61937380E-03
   29.3600006       1.48827874E-03
   29.3999996       1.33012317E-03
   29.4400005       1.14540651E-03
   29.4799995       9.34903219E-04