  -4.80000019       0.00000000
  -4.76000023       0.00000000
  -4.71999979       0.00000000
  -4.67999983       0.00000000
  -4.63999987       0.00000000
  -4.59999990       0.00000000
  -4.55999994       0.00000000
  -4.51999998       0.00000000
  -4.48000002       0.00000000
  -4.44000006      -2.83490409E-33
  -4.40000010      -4.98588985E-32
  -4.36000013      -4.71303692E-31
  -4.32000017      -3.18444278E-30
  -4.28000021      -1.71838391E-29
  -4.23999977      -7.82211993E-29
  -4.19999981      -3.09491983E-28
  -4.15999985      -1.08346733E-27
  -4.11999989      -3.39471153E-27
  -4.07999992      -9.59480734E-27
  -4.03999996      -2.45981560E-26
  -4.00000000      -5.74005208E-26
  -3.96000004      -1.22088699E-25
  -3.92000008      -2.36389615E-25
  -3.88000011      -4.14496017E-25
  -3.83999991      -6.50354729E-25
  -3.79999995      -8.89536616E-25
  -3.75999999      -9.94314107E-25
  -3.72000003      -7.18800837E-25
  -3.68000007       2.73102857E-25
  -3.64000010       2.30239488E-24
  -3.59999990       5.44443122E-24
  -3.55999994       9.17871770E-24
  -3.51999998       1.20174297E-23
  -3.48000002       1.13449905E-23
  -3.44000006       3.82899357E-24
  -3.40000010      -1.32108027E-23
  -3.35999990      -3.92949098E-23
  -3.31999993      -6.75136508E-23
  -3.27999997      -8.17890166E-23
  -3.24000001      -5.70443117E-23
  -3.20000005       3.46093821E-23
  -3.16000009       2.08971829E-22
  -3.11999989       4.45891396E-22
  -3.07999992       6.61258501E-22
  -3.03999996       6.86970015E-22
  -3.00000000       2.78565188E-22
  -2.96000004      -8.25750061E-22
  -2.92000008      -2.77588929E-21
  -2.88000011      -5.41091716E-21
  -2.83999991      -8.02702690E-21
  -2.79999995      -9.19903278E-21
  -2.75999999      -6.79256889E-21
  -2.72000003       1.66784714E-21
  -2.68000007       1.81356748E-20
  -2.64000010       4.26555748E-20
  -2.59999990       7.16360189E-20
  -2.55999994       9.62607463E-20
  -2.51999998       1.01836034E-19
  -2.48000002       6.90905256E-20
  -2.44000006      -2.15945225E-20
  -2.40000010      -1.82510720E-19
  -2.35999990      -4.07988510E-19
  -2.31999993      -6.62792218E-19
  -2.27999997      -8.73299240E-19
  -2.24000001      -9.26748239E-19
  -2.20000005      -6.84410635E-19
  -2.16000009      -1.33328445E-20
  -2.11999989       1.16236164E-18
  -2.07999992       2.79591059E-18
  -2.03999996       4.65169815E-18
  -2.00000000       6.26062276E-18
  -1.96000004       6.92546463E-18
  -1.91999996       5.80494592E-18
  -1.88000000       2.09610400E-18
  -1.84000003      -4.68599016E-18
  -1.79999995      -1.43638689E-17
  -1.75999999      -2.57600107E-17
  -1.72000003      -3.64743107E-17
  -1.67999995      -4.29081943E-17
  -1.63999999      -4.06616810E-17
  -1.60000002      -2.53837245E-17
  -1.55999994       5.93707809E-18
  -1.51999998       5.33899756E-17
  -1.48000002       1.12574861E-16
  -1.44000006       1.73503595E-16
  -1.39999998       2.20508908E-16
  -1.36000001       2.33673758E-16
  -1.32000005       1.92112194E-16
  -1.27999997       7.90779372E-17
  -1.24000001      -1.11629718E-16
  -1.20000005      -3.69077269E-16
  -1.15999997      -6.60077741E-16
  -1.12000000      -9.27519288E-16
  -1.08000004      -1.09406545E-15
  -1.03999996      -1.07256828E-15
  -1.00000000      -7.83379480E-16
 -0.959999979      -1.77072092E-16
 -0.920000017       7.40858320E-16
 -0.879999995       1.88858383E-15
 -0.839999974       3.09632026E-15
 -0.800000012       4.11107314E-15
 -0.759999990       4.62283901E-15
 -0.720000029       4.31409889E-15
 -0.680000007       2.92956954E-15
 -0.639999986       3.57337631E-16
 -0.600000024      -3.29325309E-15
 -0.560000002      -7.63588682E-15
 -0.519999981      -1.19939679E-14
 -0.479999989      -1.54470502E-14
 -0.439999998      -1.69465052E-14
 -0.400000006      -1.54974707E-14
 -0.360000014      -1.03884407E-14
 -0.319999993      -1.43355244E-15
 -0.280000001       1.08208374E-14
 -0.239999995       2.49804314E-14
 -0.200000003       3.88298910E-14
 -0.159999996       4.95384204E-14
 -0.119999997       5.40523098E-14
  -7.99999982E-02   4.96452414E-14
  -3.99999991E-02   3.45560271E-14
   2.77555756E-16   8.60618339E-15
   3.99999991E-02  -2.63344491E-14
   7.99999982E-02  -6.61684452E-14
  0.119999997      -1.04787361E-13
  0.159999996      -1.34739754E-13
  0.200000003      -1.48327639E-13
  0.239999995      -1.39015955E-13
  0.280000001      -1.02948960E-13
  0.319999993      -4.02989003E-14
  0.360000014       4.38564658E-14
  0.400000006       1.39403192E-13
  0.439999998       2.31994247E-13
  0.479999989       3.04826802E-13
  0.519999981       3.41249842E-13
  0.560000002       3.27863659E-13
  0.600000024       2.57608469E-13
  0.639999986       1.32242443E-13
  0.680000007      -3.63855945E-14
  0.720000029      -2.26737994E-13
  0.759999990      -4.09891061E-13
  0.800000012      -5.53631414E-13
  0.839999974      -6.27865002E-13
  0.879999995      -6.10512346E-13
  0.920000017      -4.92824369E-13
  0.959999979      -2.82981429E-13
   1.00000000      -6.98755806E-15
   1.03999996       2.93758670E-13
   1.08000004       5.68273347E-13
   1.12000000       7.64565657E-13
   1.15999997       8.39715504E-13
   1.20000005       7.69665148E-13
   1.24000001       5.56697917E-13
   1.27999997       2.32706486E-13
   1.32000005      -1.43114280E-13
   1.36000001      -4.92610727E-13
   1.39999998      -7.32361329E-13
   1.44000006      -7.90818040E-13
   1.48000002      -6.25967323E-13
   1.51999998      -2.39958769E-13
   1.55999994       3.12861851E-13
   1.60000002       9.27382628E-13
   1.63999999       1.46009062E-12
   1.67999995       1.75191675E-12
   1.72000003       1.65892831E-12
   1.75999999       1.08620805E-12
   1.79999995       1.87754966E-14
   1.84000003      -1.45712077E-12
   1.88000000      -3.14835592E-12
   1.91999996      -4.76901504E-12
   1.96000004      -5.97526108E-12
   2.00000000      -6.41829862E-12
   2.03999996      -5.80888462E-12
   2.07999992      -3.98355177E-12
   2.11999989      -9.60720869E-13
   2.16000009       3.02527686E-12
   2.20000005       7.52224324E-12
   2.24000001       1.18960874E-11
   2.27999997       1.54047938E-11
   2.31999993       1.73037851E-11
   2.35999990       1.69695664E-11
   2.40000010       1.40234083E-11
   2.44000006       8.43410064E-12
   2.48000002       5.79406098E-13
   2.51999998      -8.75008312E-12
   2.55999994      -1.84134791E-11
   2.59999990      -2.70473973E-11
   2.64000010      -3.32468879E-11
   2.68000007      -3.57770029E-11
   2.72000003      -3.37846383E-11
   2.75999999      -2.69766137E-11
   2.79999995      -1.57314023E-11
   2.83999991      -1.11895562E-12
   2.88000011       1.51848083E-11
   2.92000008       3.10867616E-11
   2.96000004       4.43495449E-11
   3.00000000       5.29141661E-11
   3.03999996       5.52261466E-11
   3.07999992       5.05139125E-11
   3.11999989       3.89709480E-11
   3.16000009       2.18038834E-11
   3.20000005       1.12685154E-12
   3.24000001      -2.02947034E-11
   3.27999997      -3.94231071E-11
   3.31999993      -5.34005097E-11
   3.35999990      -6.00078459E-11
   3.40000010      -5.80577565E-11
   3.44000006      -4.76529129E-11
   3.48000002      -3.02569532E-11
   3.51999998      -8.55107131E-12
   3.55999994       1.39183959E-11
   3.59999990       3.32618065E-11
   3.64000010       4.58671226E-11
   3.68000007       4.90275633E-11
   3.72000003       4.14747889E-11
   3.75999999       2.37229351E-11
   3.79999995      -1.84865361E-12
   3.83999991      -3.12104474E-11
   3.88000011      -5.91872801E-11
   3.92000008      -8.01974320E-11
   3.96000004      -8.91292873E-11
   4.00000000      -8.22289459E-11
   4.03999996      -5.78600327E-11
   4.07999992      -1.70057961E-11
   4.11999989       3.65864943E-11
   4.15999985       9.66713029E-11
   4.19999981       1.55173929E-10
   4.23999977       2.03194309E-10
   4.28000021       2.32220937E-10
   4.32000017       2.35390873E-10
   4.36000013       2.08613751E-10
   4.40000010       1.51388097E-10
   4.44000006       6.71727951E-11
   4.48000002      -3.67640814E-11
   4.51999998      -1.50025228E-10
   4.55999994      -2.60222149E-10
   4.59999990      -3.54432289E-10
   4.63999987      -4.20785767E-10
   4.67999983      -4.49969145E-10
   4.71999979      -4.36440828E-10
   4.76000023      -3.79190873E-10
   4.80000019      -2.81940277E-10
   4.84000015      -1.52754434E-10
   4.88000011      -3.12721745E-12
   4.92000008       1.53334540E-10
   4.96000004       3.02442960E-10
   5.00000000       4.30969677E-10
   5.03999996       5.27994759E-10
   5.07999992       5.85900051E-10
   5.11999989       6.00904160E-10
   5.15999985       5.73108894E-10
   5.19999981       5.06100606E-10
   5.23999977       4.06211204E-10
   5.28000021       2.81583923E-10
   5.32000017       1.41200510E-10
   5.36000013      -5.98845409E-12
   5.40000010      -1.51727422E-10
   5.44000006      -2.88864876E-10
   5.48000002      -4.11514850E-10
   5.51999998      -5.15026466E-10
   5.55999994      -5.95847260E-10
   5.59999990      -6.51372678E-10
   5.63999987      -6.79856060E-10
   5.67999983      -6.80417001E-10
   5.71999979      -6.53140153E-10
   5.76000023      -5.99210404E-10
   5.80000019      -5.21001076E-10
   5.84000015      -4.22023888E-10
   5.88000011      -3.06668829E-10
   5.92000008      -1.79709539E-10
   5.96000004      -4.56125207E-11
   6.00000000       9.22421098E-11
   6.03999996       2.32263514E-10
   6.07999992       3.75081632E-10
   6.11999989       5.23521115E-10
   6.15999985       6.81985579E-10
   6.19999981       8.55213844E-10
   6.23999977       1.04649522E-09
   6.28000021       1.25556210E-09
   6.32000017       1.47649726E-09
   6.36000013       1.69606718E-09
   6.40000010       1.89290983E-09
   6.44000006       2.03794115E-09
   6.48000002       2.09620921E-09
   6.51999998       2.03023087E-09
   6.55999994       1.80459903E-09
   6.59999990       1.39142242E-09
   6.63999987       7.75948972E-10
   6.67999983      -3.83977190E-11
   6.71999979      -1.02636299E-09
   6.76000023      -2.13928608E-09
   6.80000019      -3.30608962E-09
   6.84000015      -4.43701476E-09
   6.88000011      -5.42991518E-09
   6.92000008      -6.17856033E-09
   6.96000004      -6.58208021E-09
   7.00000000      -6.55446275E-09
   7.03999996      -6.03295058E-09
   7.07999992      -4.98426722E-09
   7.11999989      -3.40785156E-09
   7.15999985      -1.33565980E-09
   7.19999981       1.17144150E-09
   7.23999977       4.03018419E-09
   7.28000021       7.14336768E-09
   7.32000017       1.04090248E-08
   7.36000013       1.37288598E-08
   7.40000010       1.70145782E-08
   7.44000006       2.01909121E-08
   7.48000002       2.31945592E-08
   7.51999998       2.59687365E-08
   7.55999994       2.84535098E-08
   7.59999990       3.05725969E-08
   7.63999987       3.22176597E-08
   7.67999983       3.32312666E-08
   7.71999979       3.33897283E-08
   7.76000023       3.23867013E-08
   7.80000019       2.98181462E-08
   7.84000015       2.51685677E-08
   7.88000011       1.77979764E-08
   7.92000008       6.92838320E-09
   7.96000004      -8.37177527E-09
   8.00000000      -2.92073459E-08
   8.03999996      -5.68823602E-08
   8.07999992      -9.29342789E-08
   8.11999989      -1.39178681E-07
   8.15999985      -1.97765928E-07
   8.19999981      -2.71251679E-07
   8.23999977      -3.62682471E-07
   8.27999973      -4.75697618E-07
   8.31999969      -6.14649082E-07
   8.35999966      -7.84740791E-07
   8.39999962      -9.92189143E-07
   8.43999958      -1.24440805E-06
   8.47999954      -1.55022099E-06
   8.52000046      -1.92010384E-06
   8.56000042      -2.36646201E-06
   8.60000038      -2.90394792E-06
   8.64000034      -3.54982103E-06
   8.68000031      -4.32435581E-06
   8.72000027      -5.25130417E-06
   8.76000023      -6.35840979E-06
   8.80000019      -7.67798883E-06
   8.84000015      -9.24756932E-06
   8.88000011      -1.11106056E-05
   8.92000008      -1.33172516E-05
   8.96000004      -1.59252177E-05
   9.00000000      -1.90007013E-05
   9.03999996      -2.26193843E-05
   9.07999992      -2.68675249E-05
   9.11999989      -3.18431121E-05
   9.15999985      -3.76571006E-05
   9.19999981      -4.44347024E-05
   9.23999977      -5.23167437E-05
   9.27999973      -6.14610763E-05
   9.31999969      -7.20439857E-05
   9.35999966      -8.42616137E-05
   9.39999962      -9.83313876E-05
   9.43999958      -1.14493349E-04
   9.47999954      -1.33011403E-04
   9.52000046      -1.54174471E-04
   9.56000042      -1.78297400E-04
   9.60000038      -2.05721735E-04
   9.64000034      -2.36816122E-04
   9.68000031      -2.71976431E-04
   9.72000027      -3.11625481E-04
   9.76000023      -3.56212200E-04
   9.80000019      -4.06210544E-04
   9.84000015      -4.62117488E-04
   9.88000011      -5.24450443E-04
   9.92000008      -5.93744218E-04
   9.96000004      -6.70546724E-04
   10.0000000      -7.55414134E-04
   10.0400000      -8.48905067E-04
   10.0799999      -9.51573602E-04
   10.1199999      -1.06396177E-03
   10.1599998      -1.18659053E-03
   10.1999998      -1.31994963E-03
   10.2399998      -1.46448764E-03
   10.2799997      -1.62059942E-03
   10.3199997      -1.78861350E-03
   10.3599997      -1.96877914E-03
   10.3999996      -2.16125231E-03
   10.4399996      -2.36608018E-03
   10.4799995      -2.58318777E-03
   10.5200005      -2.81236204E-03
   10.5600004      -3.05323722E-03
   10.6000004      -3.30528081E-03
   10.6400003      -3.56777920E-03
   10.6800003      -3.83982551E-03
   10.7200003      -4.12030751E-03
   10.7600002      -4.40789899E-03
   10.8000002      -4.70104953E-03
   10.8400002      -4.99798171E-03
   10.8800001      -5.29668573E-03
   10.9200001      -5.59491944E-03
   10.9600000      -5.89021342E-03
   11.0000000      -6.17987569E-03
   11.0400000      -6.46100333E-03
   11.0799999      -6.73049595E-03
   11.1199999      -6.98507577E-03
   11.1599998      -7.22130947E-03
   11.1999998      -7.43563473E-03
   11.2399998      -7.62439240E-03
   11.2799997      -7.78386183E-03
   11.3199997      -7.91029818E-03
   11.3599997      -7.99997803E-03
   11.3999996      -8.04924220E-03
   11.4399996      -8.05454701E-03
   11.4799995      -8.01251270E-03
   11.5200005      -7.91997649E-03
   11.5600004      -7.77404523E-03
   11.6000004      -7.57214986E-03
   11.6400003      -7.31209666E-03
   11.6800003      -6.99211936E-03
   11.7200003      -6.61092671E-03
   11.7600002      -6.16774848E-03
   11.8000002      -5.66237792E-03
   11.8400002      -5.09520667E-03
   11.8800001      -4.46725544E-03
   11.9200001      -3.78019689E-03
   11.9600000      -3.03637353E-03
   12.0000000      -2.23880471E-03
   12.0400000      -1.39118673E-03
   12.0799999      -4.97882836E-04
   12.1199999       4.36095579E-04
   12.1599998       1.40511757E-03
   12.1999998       2.40297103E-03
   12.2399998       3.42290895E-03
   12.2799997       4.45770752E-03
   12.3199997       5.49973035E-03
   12.3599997       6.54100161E-03
   12.3999996       7.57328654E-03
   12.4399996       8.58817808E-03
   12.4799995       9.57718864E-03
   12.5200005       1.05318474E-02
   12.5600004       1.14437956E-02
   12.6000004       1.23048900E-02
   12.6400003       1.31073017E-02
   12.6800003       1.38436118E-02
   12.7200003       1.45069119E-02
   12.7600002       1.50908902E-02
   12.8000002       1.55899171E-02
   12.8400002       1.59991253E-02
   12.8800001       1.63144711E-02
   12.9200001       1.65328011E-02
   12.9600000       1.66518930E-02
   13.0000000       1.66704934E-02
   13.0400000       1.65883396E-02
   13.0799999       1.64061710E-02
   13.1199999       1.61257219E-02
   13.1599998       1.57497041E-02
   13.1999998       1.52817834E-02
   13.2399998       1.47265252E-02
   13.2799997       1.40893441E-02
   13.3199997       1.33764353E-02
   13.3599997       1.25946943E-02
   13.3999996       1.17516322E-02
   13.4399996       1.08552780E-02
   13.4799995       9.91407502E-03
   13.5200005       8.93677399E-03
   13.5600004       7.93232489E-03
   13.6000004       6.90976158E-03
   13.6400003       5.87809179E-03
   13.6800003       4.84618545E-03
   13.7200003       3.82267055E-03
   13.7600002       2.81583006E-03
   13.8000002       1.83350802E-03
   13.8400002       8.83024593E-04
   13.8800001      -2.89014733E-05
   13.9200001      -8.96218407E-04
   13.9600000      -1.71359594E-03
   14.0000000      -2.47646775E-03
   14.0400000      -3.18106124E-03
   14.0799999      -3.82441538E-03
   14.1199999      -4.40438464E-03
   14.1599998      -4.91963141E-03
   14.1999998      -5.36960596E-03
   14.2399998      -5.75451739E-03
   14.2799997      -6.07529050E-03
   14.3199997      -6.33351598E-03
   14.3599997      -6.53139362E-03
   14.3999996      -6.67166524E-03
   14.4399996      -6.75754482E-03
   14.4799995      -6.79264497E-03
   14.5200005      -6.78090006E-03
   14.5600004      -6.72648801E-03
   14.6000004      -6.63375296E-03
   14.6400003      -6.50712987E-03
   14.6800003      -6.35107327E-03
   14.7200003      -6.16998738E-03
   14.7600002      -5.96816558E-03
   14.8000002      -5.74973179E-03
   14.8400002      -5.51859336E-03
   14.8800001      -5.27839782E-03
   14.9200001      -5.03249886E-03
   14.9600000      -4.78393072E-03
   15.0000000      -4.53539239E-03
   15.0400000      -4.28923545E-03
   15.0799999      -4.04746598E-03
   15.1199999      -3.81174730E-03
   15.1599998      -3.58341448E-03
   15.1999998      -3.36349104E-03
   15.2399998      -3.15271365E-03
   15.2799997      -2.95155845E-03
   15.3199997      -2.76027247E-03
   15.3599997      -2.57890602E-03
   15.3999996      -2.40734592E-03
   15.4399996      -2.24534958E-03
   15.4799995      -2.09257798E-03
   15.5200005      -1.94862729E-03
   15.5600004      -1.81305711E-03
   15.6000004      -1.68541644E-03
   15.6400003      -1.56526593E-03
   15.6800003      -1.45219592E-03
   15.7200003      -1.34584040E-03
   15.7600002      -1.24588609E-03
   15.8000002      -1.15207781E-03
   15.8400002      -1.06421870E-03
   15.8800001      -9.82167199E-04
   15.9200001      -9.05830821E-04
   15.9600000      -8.35155312E-04
   16.0000000      -7.70113140E-04
   16.0400009      -7.10688822E-04
   16.0799999      -6.56864082E-04
   16.1200008      -6.08601724E-04
   16.1599998      -5.65830385E-04
   16.2000008      -5.28429984E-04
   16.2399998      -4.96218912E-04
   16.2800007      -4.68943064E-04
   16.3199997      -4.46268183E-04
   16.3600006      -4.27774881E-04
   16.3999996      -4.12957219E-04
   16.4400005      -4.01225174E-04
   16.4799995      -3.91910755E-04
   16.5200005      -3.84277839E-04
   16.5599995      -3.77535791E-04
   16.6000004      -3.70856200E-04
   16.6399994      -3.63392668E-04
   16.6800003      -3.54302814E-04
   16.7199993      -3.42771847E-04
   16.7600002      -3.28037248E-04
   16.7999992      -3.09413619E-04
   16.8400002      -2.86316732E-04
   16.8799992      -2.58286076E-04
   16.9200001      -2.25005322E-04
   16.9599991      -1.86319550E-04
   17.0000000      -1.42248886E-04
   17.0400009      -9.29979142E-05
   17.0799999      -3.89603010E-05
   17.1200008       1.92814950E-05
   17.1599998       8.09618286E-05
   17.2000008       1.45142680E-04
   17.2399998       2.10729646E-04
   17.2800007       2.76493054E-04
   17.3199997       3.41093342E-04
   17.3600006       4.03111015E-04
   17.3999996       4.61079704E-04
   17.4400005       5.13522129E-04
   17.4799995       5.58988366E-04
   17.5200005       5.96094469E-04
   17.5599995       6.23561733E-04
   17.6000004       6.40254875E-04
   17.6399994       6.45218010E-04
   17.6800003       6.37707941E-04
   17.7199993       6.17223035E-04
   17.7600002       5.83527726E-04
   17.7999992       5.36670734E-04
   17.8400002       4.76997375E-04
   17.8799992       4.05154628E-04
   17.9200001       3.22089036E-04
   17.9599991       2.29037338E-04
   18.0000000       1.27509556E-04
   18.0400009       1.92649877E-05
   18.0799999      -9.37185905E-05
   18.1200008      -2.09281818E-04
   18.1599998      -3.25126137E-04
   18.2000008      -4.38860734E-04
   18.2399998      -5.48052834E-04
   18.2800007      -6.50280679E-04
   18.3199997      -7.43187731E-04
   18.3600006      -8.24536721E-04
   18.3999996      -8.92262906E-04
   18.4400005      -9.44524363E-04
   18.4799995      -9.79749253E-04
   18.5200005      -9.96677903E-04
   18.5599995      -9.94399074E-04
   18.6000004      -9.72379872E-04
   18.6399994      -9.30487353E-04
   18.6800003      -8.69002717E-04
   18.7199993      -7.88626086E-04
   18.7600002      -6.90472720E-04
   18.7999992      -5.76059858E-04
   18.8400002      -4.47284838E-04
   18.8799992      -3.06394330E-04
   18.9200001      -1.55945731E-04
   18.9599991       1.23895984E-06
   19.0000000       1.62125725E-04
   19.0400009       3.23526561E-04
   19.0799999       4.82161762E-04
   19.1200008       6.34725322E-04
   19.1599998       7.77951966E-04
   19.2000008       9.08684451E-04
   19.2399998       1.02393969E-03
   19.2800007       1.12097303E-03
   19.3199997       1.19733799E-03
   19.3600006       1.25094119E-03
   19.3999996       1.28009159E-03
   19.4400005       1.28354202E-03
   19.4799995       1.26052240E-03
   19.5200005       1.21076417E-03
   19.5599995       1.13451586E-03
   19.6000004       1.03254744E-03
   19.6399994       9.06145840E-04
   19.6800003       7.57099071E-04
   19.7199993       5.87671355E-04
   19.7600002       4.00567980E-04
   19.7999992       1.98891386E-04
   19.8400002      -1.39112335E-05
   19.8799992      -2.34107691E-04
   19.9200001      -4.57746908E-04
   19.9599991      -6.80730271E-04
   20.0000000      -8.98886821E-04
   20.0400009      -1.10805093E-03
   20.0799999      -1.30414113E-03
   20.1200008      -1.48323865E-03
   20.1599998      -1.64166430E-03
   20.2000008      -1.77605229E-03
   20.2399998      -1.88341935E-03
   20.2800007      -1.96122797E-03
   20.3199997      -2.00744323E-03
   20.3600006      -2.02058232E-03
   20.3999996      -1.99975329E-03
   20.4400005      -1.94468640E-03
   20.4799995      -1.85575394E-03
   20.5200005      -1.73398003E-03
   20.5599995      -1.58103963E-03
   20.6000004      -1.39924639E-03
   20.6399994      -1.19152991E-03
   20.6800003      -9.61402548E-04
   20.7199993      -7.12915964E-04
   20.7600002      -4.50608524E-04
   20.7999992      -1.79444061E-04
   20.8400002       9.52573901E-05
   20.8799992       3.67895205E-04
   20.9200001       6.32669544E-04
   20.9599991       8.83666915E-04
   21.0000000       1.11494912E-03
   21.0400009       1.32064370E-03
   21.0799999       1.49503443E-03
   21.1200008       1.63265201E-03
   21.1599998       1.72836077E-03
   21.2000008       1.77744357E-03
   21.2399998       1.77568011E-03
   21.2800007       1.71942066E-03
   21.3199997       1.60565157E-03
   21.3600006       1.43205351E-03
   21.3999996       1.19704986E-03
   21.4400005       8.99846083E-04
   21.4799995       5.40458714E-04
   21.5200005       1.19733275E-04
   21.5599995      -3.60647886E-04
   21.6000004      -8.98169703E-04
   21.6399994      -1.48949865E-03
   21.6800003      -2.13050866E-03
   21.7199993      -2.81631621E-03
   21.7600002      -3.54132615E-03
   21.7999992      -4.29928675E-03
   21.8400002      -5.08335326E-03
   21.8799992      -5.88615984E-03
   21.9200001      -6.69989549E-03
   21.9599991      -7.51638971E-03
   22.0000000      -8.32720008E-03
   22.0400009      -9.12370253E-03
   22.0799999      -9.89718642E-03
   22.1200008      -1.06389485E-02
   22.1599998      -1.13403881E-02
   22.2000008      -1.19930981E-02
   22.2399998      -1.25889564E-02
   22.2800007      -1.31202135E-02
   22.3199997      -1.35795726E-02
   22.3600006      -1.39602674E-02
   22.3999996      -1.42561337E-02
   22.4400005      -1.44616701E-02
   22.4799995      -1.45720989E-02
   22.5200005      -1.45834116E-02
   22.5599995      -1.44924102E-02
   22.6000004      -1.42967394E-02
   22.6399994      -1.39949108E-02
   22.6800003      -1.35863153E-02
   22.7199993      -1.30712325E-02
   22.7600002      -1.24508291E-02
   22.7999992      -1.17271468E-02
   22.8400002      -1.09030847E-02
   22.8799992      -9.98237450E-03
   22.9200001      -8.96955095E-03
   22.9599991      -7.86990952E-03
   23.0000000      -6.68946793E-03
   23.0400009      -5.43491170E-03
   23.0799999      -4.11354424E-03
   23.1200008      -2.73322663E-03
   23.1599998      -1.30231678E-03
   23.2000008       1.70395288E-04
   23.2399998       1.67575537E-03
   23.2800007       3.20431497E-03
   23.3199997       4.74640355E-03
   23.3600006       6.29220111E-03
   23.3999996       7.83181284E-03
   23.4400005       9.35534015E-03
   23.4799995       1.08529609E-02
   23.5200005       1.23149976E-02
   23.5599995       1.37319919E-02
   23.6000004       1.50947738E-02
   23.6399994       1.63945314E-02
   23.6800003       1.76228788E-02
   23.7199993       1.87719185E-02
   23.7600002       1.98343005E-02
   23.7999992       2.08032820E-02
   23.8400002       2.16727741E-02
   23.8799992       2.24373937E-02
   23.9200001       2.30925083E-02
   23.9599991       2.36342680E-02
   24.0000000       2.40596384E-02
   24.0400009       2.43664254E-02
   24.0799999       2.45532934E-02
   24.1200008       2.46197749E-02
   24.1599998       2.45662667E-02
   24.2000008       2.43940372E-02
   24.2399998       2.41052061E-02
   24.2800007       2.37027295E-02
   24.3199997       2.31903680E-02
   24.3600006       2.25726552E-02
   24.3999996       2.18548607E-02
   24.4400005       2.10429337E-02
   24.4799995       2.01434512E-02
   24.5200005       1.91635620E-02
   24.5599995       1.81109123E-02
   24.6000004       1.69935804E-02
   24.6399994       1.58199985E-02
   24.6800003       1.45988762E-02
   24.7199993       1.33391172E-02
   24.7600002       1.20497383E-02
   24.7999992       1.07397847E-02
   24.8400002       9.41824820E-03
   24.8799992       8.09398480E-03
   24.9200001       6.77563483E-03
   24.9599991       5.47154760E-03
   25.0000000       4.18970874E-03
   25.0400009       2.93767359E-03
   25.0799999       1.72250438E-03
   25.1200008       5.50715369E-04
   25.1599998      -5.71775541E-04
   25.2000008      -1.63968815E-03
   25.2399998      -2.64841295E-03
   25.2800007      -3.59403598E-03
   25.3199997      -4.47335513E-03
   25.3600006      -5.28388750E-03
   25.3999996      -6.02386938E-03
   25.4400005      -6.69224467E-03
   25.4799995      -7.28864968E-03
   25.5200005      -7.81338383E-03
   25.5599995      -8.26738030E-03
   25.6000004      -8.65216088E-03
   25.6399994      -8.96979496E-03
   25.6800003      -9.22284834E-03
   25.7199993      -9.41432174E-03
   25.7600002      -9.54759680E-03
   25.7999992      -9.62637179E-03
   25.8400002      -9.65459924E-03
   25.8799992      -9.63642262E-03
   25.9200001      -9.57610924E-03
   25.9599991      -9.47799161E-03
   26.0000000      -9.34640598E-03
   26.0400009      -9.18563362E-03
   26.0799999      -8.99984874E-03
   26.1200008      -8.79306998E-03
   26.1599998      -8.56911857E-03
   26.2000008      -8.33157450E-03
   26.2399998      -8.08374863E-03
   26.2800007      -7.82865658E-03
   26.3199997      -7.56900012E-03
   26.3600006      -7.30715040E-03
   26.3999996      -7.04514515E-03
   26.4400005      -6.78468682E-03
   26.4799995      -6.52714865E-03
   26.5200005      -6.27358491E-03
   26.5599995      -6.02474762E-03
   26.6000004      -5.78110712E-03
   26.6399994      -5.54287666E-03
   26.6800003      -5.31003950E-03
   26.7199993      -5.08237910E-03
   26.7600002      -4.85951221E-03
   26.7999992      -4.64092148E-03
   26.8400002      -4.42598853E-03
   26.8799992      -4.21402743E-03
   26.9200001      -4.00431873E-03
   26.9599991      -3.79613834E-03
   27.0000000      -3.58878868E-03
   27.0400009      -3.38162482E-03
   27.0799999      -3.17407819E-03
   27.1200008      -2.96567823E-03
   27.1599998      -2.75606918E-03
   27.2000008      -2.54502357E-03
   27.2399998      -2.33245292E-03
   27.2800007      -2.11841310E-03
   27.3199997      -1.90310762E-03
   27.3600006      -1.68688456E-03
   27.3999996      -1.47023285E-03
   27.4400005      -1.25377323E-03
   27.4799995      -1.03824772E-03
   27.5200005      -8.24505463E-04
   27.5599995      -6.13486860E-04
   27.6000004      -4.06205829E-04
   27.6399994      -2.03730844E-04
   27.6800003      -7.16489603E-06
   27.7199993       1.82374977E-04
   27.7600002       3.63778352E-04
   27.7999992       5.35961764E-04
   27.8400002       6.97888434E-04
   27.8799992       8.48586962E-04
   27.9200001       9.87168518E-04
   27.9599991       1.11284247E-03
   28.0000000       1.22492982E-03
   28.0400009       1.32287457E-03
   28.0799999       1.40625238E-03
   28.1200008       1.47477619E-03
   28.1599998       1.52830011E-03
   28.2000008       1.56681950E-03
   28.2399998       1.59046950E-03
   28.2800007       1.59951998E-03
   28.3199997       1.59436918E-03
   28.3600006       1.57553505E-03
   28.3999996       1.54364447E-03
   28.4400005       1.49942155E-03
   28.4799995       1.44367421E-03
   28.5200005       1.37728045E-03
   28.5599995       1.30117405E-03
   28.6000004       1.21632917E-03
   28.6399994       1.12374593E-03
   28.6800003       1.02443609E-03
   28.7199993       9.19408689E-04
   28.7600002       8.09657329E-04
   28.7999992       6.96148199E-04
   28.8400002       5.79809537E-04
   28.8799992       4.61522606E-04
   28.9200001       3.42114363E-04
   28.9599991       2.22351562E-04
   29.0000000       1.02936763E-04
   29.0400009      -1.54941463E-05
   29.0799999      -1.32373025E-04
   29.1200008      -2.47199147E-04
   29.1599998      -3.59537808E-04
   29.2000008      -4.69017978E-04
   29.2399998      -5.75329293E-04
   29.2800007      -6.78218319E-04
   29.3199997      -7.77485024E-04
   29.3600006      -8.72978533E-04
   29.3999996      -9.64593200E-04
   29.4400005      -1.05226517E-03
   29.4799995      -1.13596884E-03