  -4.80000019       0.00000000
  -4.76000023       0.00000000
  -4.71999979       0.00000000
  -4.67999983       0.00000000
  -4.63999987       0.00000000
  -4.59999990       0.00000000
  -4.55999994       0.00000000
  -4.51999998       0.00000000
  -4.48000002       0.00000000
  -4.44000006       0.00000000
  -4.40000010      -3.91867658E-36
  -4.36000013      -9.75602684E-35
  -4.32000017      -1.19734789E-33
  -4.28000021      -9.77922183E-33
  -4.23999977      -6.01870858E-32
  -4.19999981      -2.98799027E-31
  -4.15999985      -1.24875426E-30
  -4.11999989      -4.52296372E-30
  -4.07999992      -1.44977912E-29
  -4.03999996      -4.17748589E-29
  -4.00000000      -1.09524627E-28
  -3.96000004      -2.63779289E-28
  -3.92000008      -5.88086271E-28
  -3.88000011      -1.22133550E-27
  -3.83999991      -2.37492141E-27
  -3.79999995      -4.34187116E-27
  -3.75999999      -7.48648181E-27
  -3.72000003      -1.21982240E-26
  -3.68000007      -1.87870013E-26
  -3.64000010      -2.72861225E-26
  -3.59999990      -3.71135667E-26
  -3.55999994      -4.65266064E-26
  -3.51999998      -5.18105477E-26
  -3.48000002      -4.62104580E-26
  -3.44000006      -1.88078630E-26
  -3.40000010       4.60796427E-26
  -3.35999990       1.67838256E-25
  -3.31999993       3.65090374E-25
  -3.27999997       6.45769623E-25
  -3.24000001       9.90291114E-25
  -3.20000005       1.32862005E-24
  -3.16000009       1.51651439E-24
  -3.11999989       1.32276423E-24
  -3.07999992       4.46374922E-25
  -3.03999996      -1.41308220E-24
  -3.00000000      -4.41251201E-24
  -2.96000004      -8.34807320E-24
  -2.92000008      -1.23978768E-23
  -2.88000011      -1.49110630E-23
  -2.83999991      -1.33869806E-23
  -2.79999995      -4.82657603E-24
  -2.75999999       1.33773849E-23
  -2.72000003       4.19517839E-23
  -2.68000007       7.78206361E-23
  -2.64000010       1.12243800E-22
  -2.59999990       1.29883222E-22
  -2.55999994       1.09939001E-22
  -2.51999998       3.04826330E-23
  -2.48000002      -1.23398343E-22
  -2.44000006      -3.48187578E-22
  -2.40000010      -6.09567690E-22
  -2.35999990      -8.33456967E-22
  -2.31999993      -9.06521996E-22
  -2.27999997      -6.92616694E-22
  -2.24000001      -6.96319380E-23
  -2.20000005       1.01385252E-21
  -2.16000009       2.47093450E-21
  -2.11999989       4.01669495E-21
  -2.07999992       5.14457187E-21
  -2.03999996       5.17111273E-21
  -2.00000000       3.37579961E-21
  -1.96000004      -7.56594752E-22
  -1.91999996      -7.21754505E-21
  -1.88000000      -1.51511571E-20
  -1.84000003      -2.26412533E-20
  -1.79999995      -2.67539194E-20
  -1.75999999      -2.39731902E-20
  -1.72000003      -1.11064677E-20
  -1.67999995       1.33876436E-20
  -1.63999999       4.78740958E-20
  -1.60000002       8.62424258E-20
  -1.55999994       1.17418624E-19
  -1.51999998       1.26319126E-19
  -1.48000002       9.67323943E-20
  -1.44000006       1.62215126E-20
  -1.39999998      -1.17493794E-19
  -1.36000001      -2.90009833E-19
  -1.32000005      -4.65667323E-19
  -1.27999997      -5.87509114E-19
  -1.24000001      -5.84214195E-19
  -1.20000005      -3.85465778E-19
  -1.15999997       5.47550074E-20
  -1.12000000       7.30254018E-19
  -1.08000004       1.55654226E-18
  -1.03999996       2.35571960E-18
  -1.00000000       2.86260658E-18
 -0.959999979       2.76093346E-18
 -0.920000017       1.75351412E-18
 -0.879999995      -3.38059204E-19
 -0.839999974      -3.45968850E-18
 -0.800000012      -7.22401065E-18
 -0.759999990      -1.08584967E-17
 -0.720000029      -1.32406718E-17
 -0.680000007      -1.30511068E-17
 -0.639999986      -9.05492117E-18
 -0.600000024      -4.90801568E-19
 -0.560000002       1.24931387E-17
 -0.519999981       2.84571836E-17
 -0.479999989       4.44708477E-17
 -0.439999998       5.62315528E-17
 -0.400000006       5.86065670E-17
 -0.360000014       4.66337993E-17
 -0.319999993       1.69086917E-17
 -0.280000001      -3.08476859E-17
 -0.239999995      -9.23757059E-17
 -0.200000003      -1.58049850E-16
 -0.159999996      -2.13087046E-16
 -0.119999997      -2.39150462E-16
  -7.99999982E-02  -2.17492901E-16
  -3.99999991E-02  -1.33449591E-16
   2.77555756E-16   1.83206675E-17
   3.99999991E-02   2.28856973E-16
   7.99999982E-02   4.71500890E-16
  0.119999997       7.01497334E-16
  0.159999996       8.59786246E-16
  0.200000003       8.81593162E-16
  0.239999995       7.09492108E-16
  0.280000001       3.09439109E-16
  0.319999993      -3.12941087E-16
  0.360000014      -1.09950838E-15
  0.400000006      -1.93432870E-15
  0.439999998      -2.64970604E-15
  0.479999989      -3.04589448E-15
  0.519999981      -2.92451762E-15
  0.560000002      -2.13263372E-15
  0.600000024      -6.11054915E-16
  0.639999986       1.56239293E-15
  0.680000007       4.14568672E-15
  0.720000029       6.73229791E-15
  0.759999990       8.78590600E-15
  0.800000012       9.71307758E-15
  0.839999974       8.96956984E-15
  0.879999995       6.18752994E-15
  0.920000017       1.30287665E-15
  0.959999979      -5.34352810E-15
   1.00000000      -1.29590383E-14
   1.03999996      -2.03310201E-14
   1.08000004      -2.59518156E-14
   1.12000000      -2.82361025E-14
   1.15999997      -2.58109642E-14
   1.20000005      -1.78393643E-14
   1.24000001      -4.32141471E-15
   1.27999997       1.36912237E-14
   1.32000005       3.40306769E-14
   1.36000001       5.35461195E-14
   1.39999998       6.84555697E-14
   1.44000006       7.48992272E-14
   1.48000002       6.96347887E-14
   1.51999998       5.07750580E-14
   1.55999994       1.84388671E-14
   1.60000002      -2.48242419E-14
   1.63999999      -7.39614465E-14
   1.67999995      -1.21781735E-13
   1.72000003      -1.59779985E-13
   1.75999999      -1.79361192E-13
   1.79999995      -1.73321345E-13
   1.84000003      -1.37368808E-13
   1.88000000      -7.14228820E-14
   1.91999996       1.95795613E-14
   1.96000004       1.25597856E-13
   2.00000000       2.32260608E-13
   2.03999996       3.22508133E-13
   2.07999992       3.78963977E-13
   2.11999989       3.86744781E-13
   2.16000009       3.36299348E-13
   2.20000005       2.25799495E-13
   2.24000001       6.26154470E-14
   2.27999997      -1.36502558E-13
   2.31999993      -3.46745717E-13
   2.35999990      -5.38053272E-13
   2.40000010      -6.79135405E-13
   2.44000006      -7.42204367E-13
   2.48000002      -7.07727496E-13
   2.51999998      -5.68430665E-13
   2.55999994      -3.31818313E-13
   2.59999990      -2.06414187E-14
   2.64000010       3.28977053E-13
   2.68000007       6.71693116E-13
   2.72000003       9.58923587E-13
   2.75999999       1.14586823E-12
   2.79999995       1.19853986E-12
   2.83999991       1.09967515E-12
   2.88000011       8.52488382E-13
   2.92000008       4.81495540E-13
   2.96000004       3.00590343E-14
   3.00000000      -4.45181218E-13
   3.03999996      -8.82295105E-13
   3.07999992      -1.22331474E-12
   3.11999989      -1.42329800E-12
   3.16000009      -1.45767307E-12
   3.20000005      -1.32650943E-12
   3.24000001      -1.05478668E-12
   3.27999997      -6.88357195E-13
   3.31999993      -2.86026492E-13
   3.35999990       9.10928912E-14
   3.40000010       3.91208577E-13
   3.44000006       5.82362175E-13
   3.48000002       6.59725258E-13
   3.51999998       6.47934018E-13
   3.55999994       5.97438115E-13
   3.59999990       5.74826048E-13
   3.64000010       6.48215531E-13
   3.68000007       8.69876382E-13
   3.72000003       1.25910003E-12
   3.75999999       1.78875404E-12
   3.79999995       2.37884495E-12
   3.83999991       2.89967724E-12
   3.88000011       3.18589165E-12
   3.92000008       3.06092044E-12
   3.96000004       2.36944275E-12
   4.00000000       1.01354689E-12
   4.03999996      -1.01312860E-12
   4.07999992      -3.59973683E-12
   4.11999989      -6.50722835E-12
   4.15999985      -9.37688469E-12
   4.19999981      -1.17608319E-11
   4.23999977      -1.31737884E-11
   4.28000021      -1.31616818E-11
   4.32000017      -1.13792300E-11
   4.36000013      -7.66575605E-12
   4.40000010      -2.10697388E-12
   4.44000006       4.92940454E-12
   4.48000002       1.27942301E-11
   4.51999998       2.05996262E-11
   4.55999994       2.73042353E-11
   4.59999990       3.18348820E-11
   4.63999987       3.32321219E-11
   4.67999983       3.08015800E-11
   4.71999979       2.42497116E-11
   4.76000023       1.37818767E-11
   4.80000019       1.43462878E-13
   4.84000015      -1.54092676E-11
   4.88000011      -3.12131779E-11
   4.92000008      -4.53711270E-11
   4.96000004      -5.59768759E-11
   5.00000000      -6.13658499E-11
   5.03999996      -6.03587597E-11
   5.07999992      -5.24629819E-11
   5.11999989      -3.79990900E-11
   5.15999985      -1.81279609E-11
   5.19999981       5.23409311E-12
   5.23999977       2.96093185E-11
   5.28000021       5.22428212E-11
   5.32000017       7.04436440E-11
   5.36000013       8.19383103E-11
   5.40000010       8.51875168E-11
   5.44000006       7.96185826E-11
   5.48000002       6.57355698E-11
   5.51999998       4.50844397E-11
   5.55999994       2.00709085E-11
   5.59999990      -6.34996916E-12
   5.63999987      -3.10728734E-11
   5.67999983      -5.12750363E-11
   5.71999979      -6.48196843E-11
   5.76000023      -7.05679543E-11
   5.80000019      -6.85478757E-11
   5.84000015      -5.99478314E-11
   5.88000011      -4.69275209E-11
   5.92000008      -3.22671438E-11
   5.96000004      -1.89020275E-11
   6.00000000      -9.41078292E-12
   6.03999996      -5.53648707E-12
   6.07999992      -7.82056451E-12
   6.11999989      -1.54164684E-11
   6.15999985      -2.61267518E-11
   6.19999981      -3.66751178E-11
   6.23999977      -4.31890079E-11
   6.28000021      -4.18335713E-11
   6.32000017      -2.95095302E-11
   6.36000013      -4.51082791E-12
   6.40000010       3.29645859E-11
   6.44000006       8.05435996E-11
   6.48000002       1.33710612E-10
   6.51999998       1.86168331E-10
   6.55999994       2.30503880E-10
   6.59999990       2.59091582E-10
   6.63999987       2.65124145E-10
   6.67999983       2.43637360E-10
   6.71999979       1.92385871E-10
   6.76000023       1.12437712E-10
   6.80000019       8.38754326E-12
   6.84000015      -1.11865954E-10
   6.88000011      -2.37775993E-10
   6.92000008      -3.57176067E-10
   6.96000004      -4.57567151E-10
   7.00000000      -5.27511534E-10
   7.03999996      -5.57961732E-10
   7.07999992      -5.43357359E-10
   7.11999989      -4.82348050E-10
   7.15999985      -3.78049203E-10
   7.19999981      -2.37793008E-10
   7.23999977      -7.24054081E-11
   7.28000021       1.04904023E-10
   7.32000017       2.79900797E-10
   7.36000013       4.38768327E-10
   7.40000010       5.69462699E-10
   7.44000006       6.62824018E-10
   7.48000002       7.13325232E-10
   7.51999998       7.19389659E-10
   7.55999994       6.83265666E-10
   7.59999990       6.10499984E-10
   7.63999987       5.09098042E-10
   7.67999983       3.88488935E-10
   7.71999979       2.58426169E-10
   7.76000023       1.27950206E-10
   7.80000019       4.51993781E-12
   7.84000015      -1.06609208E-10
   7.88000011      -2.02716191E-10
   7.92000008      -2.83642582E-10
   7.96000004      -3.51533580E-10
   8.00000000      -4.10328160E-10
   8.03999996      -4.65047278E-10
   8.07999992      -5.20936960E-10
   8.11999989      -5.82526860E-10
   8.15999985      -6.52670362E-10
   8.19999981      -7.31636252E-10
   8.23999977      -8.16330559E-10
   8.27999973      -8.99733843E-10
   8.31999969      -9.70642122E-10
   8.35999966      -1.01379460E-09
   8.39999962      -1.01045539E-09
   8.43999958      -9.39484601E-10
   8.47999954      -7.78886344E-10
   8.52000046      -5.07766440E-10
   8.56000042      -1.08570763E-10
   8.60000038       4.30578767E-10
   8.64000034       1.11367782E-09
   8.68000031       1.93499172E-09
   8.72000027       2.87778534E-09
   8.76000023       3.91378085E-09
   8.80000019       5.00341013E-09
   8.84000015       6.09680972E-09
   8.88000011       7.13538073E-09
   8.92000008       8.05361378E-09
   8.96000004       8.78080364E-09
   9.00000000       9.24220611E-09
   9.03999996       9.35922007E-09
   9.07999992       9.04820840E-09
   9.11999989       8.21769941E-09
   9.15999985       6.76382328E-09
   9.19999981       4.56401539E-09
   9.23999977       1.46914625E-09
   9.27999973      -2.70569123E-09
   9.31999969      -8.19140045E-09
   9.35999966      -1.52759370E-08
   9.39999962      -2.43160017E-08
   9.43999958      -3.57494407E-08
   9.47999954      -5.01085893E-08
   9.52000046      -6.80351633E-08
   9.56000042      -9.02973127E-08
   9.60000038      -1.17810053E-07
   9.64000034      -1.51659577E-07
   9.68000031      -1.93133431E-07
   9.72000027      -2.43756489E-07
   9.76000023      -3.05334794E-07
   9.80000019      -3.80007322E-07
   9.84000015      -4.70306986E-07
   9.88000011      -5.79230061E-07
   9.92000008      -7.10315931E-07
   9.96000004      -8.67736219E-07
   10.0000000      -1.05639401E-06
   10.0400000      -1.28203465E-06
   10.0799999      -1.55136649E-06
   10.1199999      -1.87219280E-06
   10.1599998      -2.25356075E-06
   10.1999998      -2.70591840E-06
   10.2399998      -3.24129246E-06
   10.2799997      -3.87347927E-06
   10.3199997      -4.61825584E-06
   10.3599997      -5.49360811E-06
   10.3999996      -6.51997834E-06
   10.4399996      -7.72052499E-06
   10.4799995      -9.12141331E-06
   10.5200005      -1.07521018E-05
   10.5600004      -1.26456553E-05
   10.6000004      -1.48390636E-05
   10.6400003      -1.73735607E-05
   10.6800003      -2.02949414E-05
   10.7200003      -2.36538799E-05
   10.7600002      -2.75062357E-05
   10.8000002      -3.19133105E-05
   10.8400002      -3.69421250E-05
   10.8800001      -4.26656006E-05
   10.9200001      -4.91627325E-05
   10.9600000      -5.65186710E-05
   11.0000000      -6.48247369E-05
   11.0400000      -7.41783515E-05
   11.0799999      -8.46828189E-05
   11.1199999      -9.64470091E-05
   11.1599998      -1.09584878E-04
   11.1999998      -1.24214828E-04
   11.2399998      -1.40458898E-04
   11.2799997      -1.58441704E-04
   11.3199997      -1.78289149E-04
   11.3599997      -2.00127120E-04
   11.3999996      -2.24079646E-04
   11.4399996      -2.50267010E-04
   11.4799995      -2.78803636E-04
   11.5200005      -3.09795607E-04
   11.5600004      -3.43338295E-04
   11.6000004      -3.79513251E-04
   11.6400003      -4.18385520E-04
   11.6800003      -4.60000330E-04
   11.7200003      -5.04379976E-04
   11.7600002      -5.51520323E-04
   11.8000002      -6.01387699E-04
   11.8400002      -6.53915282E-04
   11.8800001      -7.09000044E-04
   11.9200001      -7.66499375E-04
   11.9600000      -8.26228643E-04
   12.0000000      -8.87958042E-04
   12.0400000      -9.51410679E-04
   12.0799999      -1.01626071E-03
   12.1199999      -1.08213210E-03
   12.1599998      -1.14859815E-03
   12.1999998      -1.21518085E-03
   12.2399998      -1.28135283E-03
   12.2799997      -1.34653796E-03
   12.3199997      -1.41011423E-03
   12.3599997      -1.47141737E-03
   12.3999996      -1.52974494E-03
   12.4399996      -1.58436119E-03
   12.4799995      -1.63450418E-03
   12.5200005      -1.67939218E-03
   12.5600004      -1.71823136E-03
   12.6000004      -1.75022567E-03
   12.6400003      -1.77458487E-03
   12.6800003      -1.79053552E-03
   12.7200003      -1.79733185E-03
   12.7600002      -1.79426605E-03
   12.8000002      -1.78068015E-03
   12.8400002      -1.75597693E-03
   12.8800001      -1.71963160E-03
   12.9200001      -1.67120202E-03
   12.9600000      -1.61033962E-03
   13.0000000      -1.53679878E-03
   13.0400000      -1.45044585E-03
   13.0799999      -1.35126640E-03
   13.1199999      -1.23937137E-03
   13.1599998      -1.11500302E-03
   13.1999998      -9.78537486E-04
   13.2399998      -8.30486242E-04
   13.2799997      -6.71496731E-04
   13.3199997      -5.02349634E-04
   13.3599997      -3.23955028E-04
   13.3999996      -1.37346564E-04
   13.4399996       5.63263020E-05
   13.4799995       2.55808351E-04
   13.5200005       4.59749659E-04
   13.5600004       6.66718988E-04
   13.6000004       8.75218189E-04
   13.6400003       1.08369812E-03
   13.6800003       1.29057548E-03
   13.7200003       1.49425026E-03
   13.7600002       1.69312430E-03
   13.8000002       1.88561983E-03
   13.8400002       2.07019737E-03
   13.8800001       2.24537426E-03
   13.9200001       2.40974221E-03
   13.9600000       2.56198319E-03
   14.0000000       2.70088552E-03
   14.0400000       2.82535772E-03
   14.0799999       2.93443981E-03
   14.1199999       3.02731548E-03
   14.1599998       3.10331909E-03
   14.1999998       3.16194259E-03
   14.2399998       3.20283999E-03
   14.2799997       3.22582875E-03
   14.3199997       3.23089072E-03
   14.3599997       3.21816793E-03
   14.3999996       3.18795908E-03
   14.4399996       3.14071379E-03
   14.4799995       3.07702250E-03
   14.5200005       2.99760816E-03
   14.5600004       2.90331384E-03
   14.6000004       2.79509020E-03
   14.6400003       2.67398218E-03
   14.6800003       2.54111527E-03
   14.7200003       2.39768042E-03
   14.7600002       2.24491907E-03
   14.8000002       2.08410923E-03
   14.8400002       1.91655138E-03
   14.8800001       1.74355297E-03
   14.9200001       1.56641798E-03
   14.9600000       1.38643268E-03
   15.0000000       1.20485551E-03
   15.0400000       1.02290709E-03
   15.0799999       8.41760833E-04
   15.1199999       6.62536011E-04
   15.1599998       4.86290694E-04
   15.1999998       3.14017234E-04
   15.2399998       1.46637642E-04
   15.2799997      -1.49988673E-05
   15.3199997      -1.70117972E-04
   15.3599997      -3.18021281E-04
   15.3999996      -4.58086724E-04
   15.4399996      -5.89767937E-04
   15.4799995      -7.12593785E-04
   15.5200005      -8.26166593E-04
   15.5600004      -9.30160924E-04
   15.6000004      -1.02432142E-03
   15.6400003      -1.10846153E-03
   15.6800003      -1.18246081E-03
   15.7200003      -1.24626351E-03
   15.7600002      -1.29987719E-03
   15.8000002      -1.34336948E-03
   15.8400002      -1.37686764E-03
   15.8800001      -1.40055618E-03
   15.9200001      -1.41467550E-03
   15.9600000      -1.41951989E-03
   16.0000000      -1.41543522E-03
   16.0400009      -1.40281755E-03
   16.0799999      -1.38211029E-03
   16.1200008      -1.35380123E-03
   16.1599998      -1.31842017E-03
   16.2000008      -1.27653487E-03
   16.2399998      -1.22874731E-03
   16.2800007      -1.17568905E-03
   16.3199997      -1.11801713E-03
   16.3600006      -1.05640781E-03
   16.3999996      -9.91551671E-04
   16.4400005      -9.24146676E-04
   16.4799995      -8.54892773E-04
   16.5200005      -7.84484029E-04
   16.5599995      -7.13602873E-04
   16.6000004      -6.42912462E-04
   16.6399994      -5.73050580E-04
   16.6800003      -5.04622585E-04
   16.7199993      -4.38195450E-04
   16.7600002      -3.74291791E-04
   16.7999992      -3.13384924E-04
   16.8400002      -2.55894091E-04
   16.8799992      -2.02180905E-04
   16.9200001      -1.52546447E-04
   16.9599991      -1.07229149E-04
   17.0000000      -6.64038744E-05
   17.0400009      -3.01817545E-05
   17.0799999       1.38891710E-06
   17.1200008       2.83208701E-05
   17.1599998       5.06851538E-05
   17.2000008       6.86075728E-05
   17.2399998       8.22643779E-05
   17.2800007       9.18772785E-05
   17.3199997       9.77078453E-05
   17.3600006       1.00051533E-04
   17.3999996       9.92313071E-05
   17.4400005       9.55911237E-05
   17.4799995       8.94893601E-05
   17.5200005       8.12923026E-05
   17.5599995       7.13677437E-05
   17.6000004       6.00790518E-05
   17.6399994       4.77793983E-05
   17.6800003       3.48066715E-05
   17.7199993       2.14788233E-05
   17.7600002       8.08981076E-06
   17.7999992      -5.09378015E-06
   17.8400002      -1.78354730E-05
   17.8799992      -2.99309413E-05
   17.9200001      -4.12093541E-05
   17.9599991      -5.15340507E-05
   18.0000000      -6.08025293E-05
   18.0400009      -6.89458102E-05
   18.0799999      -7.59272007E-05
   18.1200008      -8.17404871E-05
   18.1599998      -8.64077374E-05
   18.2000008      -8.99765655E-05
   18.2399998      -9.25171626E-05
   18.2800007      -9.41190374E-05
   18.3199997      -9.48875459E-05
   18.3600006      -9.49403038E-05
   18.3999996      -9.44035783E-05
   18.4400005      -9.34085256E-05
   18.4799995      -9.20876555E-05
   18.5200005      -9.05711568E-05
   18.5599995      -8.89834992E-05
   18.6000004      -8.74400212E-05
   18.6399994      -8.60438377E-05
   18.6800003      -8.48828859E-05
   18.7199993      -8.40272987E-05
   18.7600002      -8.35271276E-05
   18.7999992      -8.34104212E-05
   18.8400002      -8.36817781E-05
   18.8799992      -8.43213857E-05
   18.9200001      -8.52846206E-05
   18.9599991      -8.65021502E-05
   19.0000000      -8.78806677E-05
   19.0400009      -8.93042306E-05
   19.0799999      -9.06361674E-05
   19.1200008      -9.17215511E-05
   19.1599998      -9.23902990E-05
   19.2000008      -9.24607666E-05
   19.2399998      -9.17438520E-05
   19.2800007      -9.00475934E-05
   19.3199997      -8.71821539E-05
   19.3600006      -8.29651472E-05
   19.3999996      -7.72272615E-05
   19.4400005      -6.98179356E-05
   19.4799995      -6.06111716E-05
   19.5200005      -4.95112145E-05
   19.5599995      -3.64579573E-05
   19.6000004      -2.14319734E-05
   19.6399994      -4.45894739E-06
   19.6800003       1.43866100E-05
   19.7199993       3.49784605E-05
   19.7600002       5.71369092E-05
   19.7999992       8.06280368E-05
   19.8400002       1.05164341E-04
   19.8799992       1.30406537E-04
   19.9200001       1.55966831E-04
   19.9599991       1.81413590E-04
   20.0000000       2.06277255E-04
   20.0400009       2.30057602E-04
   20.0799999       2.52232363E-04
   20.1200008       2.72266770E-04
   20.1599998       2.89624324E-04
   20.2000008       3.03778041E-04
   20.2399998       3.14222532E-04
   20.2800007       3.20486288E-04
   20.3199997       3.22144217E-04
   20.3600006       3.18829610E-04
   20.3999996       3.10245960E-04
   20.4400005       2.96177954E-04
   20.4799995       2.76500999E-04
   20.5200005       2.51189776E-04
   20.5599995       2.20324931E-04
   20.6000004       1.84097866E-04
   20.6399994       1.42813355E-04
   20.6800003       9.68901441E-05
   20.7199993       4.68587823E-05
   20.7600002      -6.64274194E-06
   20.7999992      -6.28759444E-05
   20.8400002      -1.21011297E-04
   20.8799992      -1.80139876E-04
   20.9200001      -2.39287328E-04
   20.9599991      -2.97429709E-04
   21.0000000      -3.53511161E-04
   21.0400009      -4.06462903E-04
   21.0799999      -4.55223257E-04
   21.1200008      -4.98758745E-04
   21.1599998      -5.36084699E-04
   21.2000008      -5.66286501E-04
   21.2399998      -5.88539871E-04
   21.2800007      -6.02130021E-04
   21.3199997      -6.06469577E-04
   21.3600006      -6.01114589E-04
   21.3999996      -5.85778209E-04
   21.4400005      -5.60341578E-04
   21.4799995      -5.24862087E-04
   21.5200005      -4.79578361E-04
   21.5599995      -4.24911850E-04
   21.6000004      -3.61464947E-04
   21.6399994      -2.90015567E-04
   21.6800003      -2.11508101E-04
   21.7199993      -1.27041305E-04
   21.7600002      -3.78524892E-05
   21.7999992       5.47009840E-05
   21.8400002       1.49163156E-04
   21.8799992       2.44003240E-04
   21.9200001       3.37641250E-04
   21.9599991       4.28475527E-04
   22.0000000       5.14910847E-04
   22.0400009       5.95387712E-04
   22.0799999       6.68411143E-04
   22.1200008       7.32579327E-04
   22.1599998       7.86611170E-04
   22.2000008       8.29372148E-04
   22.2399998       8.59898631E-04
   22.2800007       8.77418846E-04
   22.3199997       8.81371554E-04
   22.3600006       8.71421129E-04
   22.3999996       8.47469026E-04
   22.4400005       8.09660938E-04
   22.4799995       7.58390699E-04
   22.5200005       6.94299175E-04
   22.5599995       6.18269027E-04
   22.6000004       5.31415746E-04
   22.6399994       4.35074093E-04
   22.6800003       3.30781273E-04
   22.7199993       2.20255781E-04
   22.7600002       1.05373489E-04
   22.7999992      -1.18592880E-05
   22.8400002      -1.29335167E-04
   22.8799992      -2.44877156E-04
   22.9200001      -3.56271456E-04
   22.9599991      -4.61301184E-04
   23.0000000      -5.57780615E-04
   23.0400009      -6.43589010E-04
   23.0799999      -7.16703827E-04
   23.1200008      -7.75232620E-04
   23.1599998      -8.17442895E-04
   23.2000008      -8.41789879E-04
   23.2399998      -8.46941432E-04
   23.2800007      -8.31799814E-04
   23.3199997      -7.95519911E-04
   23.3600006      -7.37523485E-04
   23.3999996      -6.57509954E-04
   23.4400005      -5.55462961E-04
   23.4799995      -4.31652210E-04
   23.5200005      -2.86632014E-04
   23.5599995      -1.21235251E-04
   23.6000004       6.34365351E-05
   23.6399994       2.66026269E-04
   23.6800003       4.84938442E-04
   23.7199993       7.18358671E-04
   23.7600002       9.64276667E-04
   23.7999992       1.22051116E-03
   23.8400002       1.48473657E-03
   23.8799992       1.75451115E-03
   23.9200001       2.02730694E-03
   23.9599991       2.30053905E-03
   24.0000000       2.57159537E-03
   24.0400009       2.83786817E-03
   24.0799999       3.09677981E-03
   24.1200008       3.34581314E-03
   24.1599998       3.58253648E-03
   24.2000008       3.80462850E-03
   24.2399998       4.00990015E-03
   24.2800007       4.19631461E-03
   24.3199997       4.36200667E-03
   24.3600006       4.50529391E-03
   24.3999996       4.62469272E-03
   24.4400005       4.71892674E-03
   24.4799995       4.78693238E-03
   24.5200005       4.82786493E-03
   24.5599995       4.84109903E-03
   24.6000004       4.82622860E-03
   24.6399994       4.78306459E-03
   24.6800003       4.71162843E-03
   24.7199993       4.61214501E-03
   24.7600002       4.48503532E-03
   24.7999992       4.33090469E-03
   24.8400002       4.15053265E-03
   24.8799992       3.94486077E-03
   24.9200001       3.71497776E-03
   24.9599991       3.46210762E-03
   25.0000000       3.18759517E-03
   25.0400009       2.89289048E-03
   25.0799999       2.57953699E-03
   25.1200008       2.24915682E-03
   25.1599998       1.90343696E-03
   25.2000008       1.54411641E-03
   25.2399998       1.17297529E-03
   25.2800007       7.91822735E-04
   25.3199997       4.02486621E-04
   25.3600006       6.80429639E-06
   25.3999996      -3.93386581E-04
   25.4400005      -7.96254142E-04
   25.4799995      -1.19998050E-03
   25.5200005      -1.60276622E-03
   25.5599995      -2.00283597E-03
   25.6000004      -2.39844178E-03
   25.6399994      -2.78786803E-03
   25.6800003      -3.16943275E-03
   25.7199993      -3.54149123E-03
   25.7600002      -3.90243880E-03
   25.7999992      -4.25071130E-03
   25.8400002      -4.58478834E-03
   25.8799992      -4.90319682E-03
   25.9200001      -5.20451041E-03
   25.9599991      -5.48735633E-03
   26.0000000      -5.75041538E-03
   26.0400009      -5.99242887E-03
   26.0799999      -6.21220097E-03
   26.1200008      -6.40860759E-03
   26.1599998      -6.58059865E-03
   26.2000008      -6.72720838E-03
   26.2399998      -6.84756413E-03
   26.2800007      -6.94089243E-03
   26.3199997      -7.00652972E-03
   26.3600006      -7.04393303E-03
   26.3999996      -7.05268746E-03
   26.4400005      -7.03251874E-03
   26.4799995      -6.98330021E-03
   26.5200005      -6.90506632E-03
   26.5599995      -6.79801451E-03
   26.6000004      -6.66251965E-03
   26.6399994      -6.49913494E-03
   26.6800003      -6.30859984E-03
   26.7199993      -6.09184150E-03
   26.7600002      -5.84997609E-03
   26.7999992      -5.58430888E-03
   26.8400002      -5.29632904E-03
   26.8799992      -4.98770643E-03
   26.9200001      -4.66027949E-03
   26.9599991      -4.31604777E-03
   27.0000000      -3.95715656E-03
   27.0400009      -3.58588155E-03
   27.0799999      -3.20461043E-03
   27.1200008      -2.81582121E-03
   27.1599998      -2.42206198E-03
   27.2000008      -2.02592439E-03
   27.2399998      -1.63001975E-03
   27.2800007      -1.23695214E-03
   27.3199997      -8.49292031E-04
   27.3600006      -4.69548890E-04
   27.3999996      -1.00144287E-04
   27.4400005       2.56613479E-04
   27.4799995       5.98554441E-04
   27.5200005       9.23670654E-04
   27.5599995       1.23013684E-03
   27.6000004       1.51633006E-03
   27.6399994       1.78084627E-03
   27.6800003       2.02251342E-03
   27.7199993       2.24040286E-03
   27.7600002       2.43383599E-03
   27.7999992       2.60239001E-03
   27.8400002       2.74589588E-03
   27.8799992       2.86443904E-03
   27.9200001       2.95835105E-03
   27.9599991       3.02820140E-03
   28.0000000       3.07478546E-03
   28.0400009       3.09910905E-03
   28.0799999       3.10237007E-03
   28.1200008       3.08594038E-03
   28.1599998       3.05134361E-03
   28.2000008       3.00023006E-03
   28.2399998       2.93435436E-03
   28.2800007       2.85554933E-03
   28.3199997       2.76570045E-03
   28.3600006       2.66672089E-03
   28.3999996       2.56052497E-03
   28.4400005       2.44900468E-03
   28.4799995       2.33400660E-03
   28.5200005       2.21730955E-03
   28.5599995       2.10060482E-03
   28.6000004       1.98547705E-03
   28.6399994       1.87338912E-03
   28.6800003       1.76566793E-03
   28.7199993       1.66349229E-03
   28.7600002       1.56788481E-03
   28.7999992       1.47970533E-03
   28.8400002       1.39964651E-03
   28.8799992       1.32823188E-03
   28.9200001       1.26581779E-03
   28.9599991       1.21259561E-03
   29.0000000       1.16859749E-03
   29.0400009       1.13370316E-03
   29.0799999       1.10764964E-03
   29.1200008       1.09004066E-03
   29.1599998       1.08035957E-03
   29.2000008       1.07798178E-03
   29.2399998       1.08218892E-03
   29.2800007       1.09218271E-03
   29.3199997       1.10710040E-03
   29.3600006       1.12602941E-03
   29.3999996       1.14802201E-03
   29.4400005       1.17211021E-03
   29.4799995       1.19731971E-03