  -4.80000019       0.00000000
  -4.76000023       0.00000000
  -4.71999979       0.00000000
  -4.67999983       0.00000000
  -4.63999987       0.00000000
  -4.59999990       0.00000000
  -4.55999994       0.00000000
  -4.51999998       0.00000000
  -4.48000002       0.00000000
  -4.44000006       0.00000000
  -4.40000010       0.00000000
  -4.36000013      -2.02471653E-39
  -4.32000017      -4.72797822E-38
  -4.28000021      -5.68599430E-37
  -4.23999977      -4.68387110E-36
  -4.19999981      -2.96630690E-35
  -4.15999985      -1.53714563E-34
  -4.11999989      -6.77493093E-34
  -4.07999992      -2.60673568E-33
  -4.03999996      -8.91864535E-33
  -4.00000000      -2.75008667E-32
  -3.96000004      -7.71848281E-32
  -3.92000008      -1.98591307E-31
  -3.88000011      -4.70681621E-31
  -3.83999991      -1.03028055E-30
  -3.79999995      -2.08288872E-30
  -3.75999999      -3.87598705E-30
  -3.72000003      -6.57904741E-30
  -3.68000007      -9.97965138E-30
  -3.64000010      -1.28716443E-29
  -3.59999990      -1.19983735E-29
  -3.55999994      -4.51674112E-31
  -3.51999998       3.44494129E-29
  -3.48000002       1.13536917E-28
  -3.44000006       2.67807588E-28
  -3.40000010       5.39006065E-28
  -3.35999990       9.77292254E-28
  -3.31999993       1.63424227E-27
  -3.27999997       2.54952815E-27
  -3.24000001       3.73021353E-27
  -3.20000005       5.12279570E-27
  -3.16000009       6.57992733E-27
  -3.11999989       7.82612572E-27
  -3.07999992       8.42973528E-27
  -3.03999996       7.79214461E-27
  -3.00000000       5.17013582E-27
  -2.96000004      -2.46682111E-28
  -2.92000008      -9.17477820E-27
  -2.88000011      -2.19593392E-26
  -2.83999991      -3.81527893E-26
  -2.79999995      -5.59453190E-26
  -2.75999999      -7.14992586E-26
  -2.72000003      -7.83368400E-26
  -2.68000007      -6.70701066E-26
  -2.64000010      -2.59189834E-26
  -2.59999990       5.74168589E-26
  -2.55999994       1.91979273E-25
  -2.51999998       3.77576735E-25
  -2.48000002       5.96954614E-25
  -2.44000006       8.07499026E-25
  -2.40000010       9.35239075E-25
  -2.35999990       8.75312862E-25
  -2.31999993       5.03942638E-25
  -2.27999997      -2.93454433E-25
  -2.24000001      -1.57590299E-24
  -2.20000005      -3.28533864E-24
  -2.16000009      -5.18080061E-24
  -2.11999989      -6.78855199E-24
  -2.07999992      -7.39670379E-24
  -2.03999996      -6.12663142E-24
  -2.00000000      -2.10816589E-24
  -1.96000004       5.23272698E-24
  -1.91999996       1.57979005E-23
  -1.88000000       2.84216108E-23
  -1.84000003       4.05734577E-23
  -1.79999995       4.83154017E-23
  -1.75999999       4.66770638E-23
  -1.72000003       3.05726420E-23
  -1.67999995      -3.72112276E-24
  -1.63999999      -5.66738248E-23
  -1.60000002      -1.23555459E-22
  -1.55999994      -1.93002103E-22
  -1.51999998      -2.46798555E-22
  -1.48000002      -2.61573175E-22
  -1.44000006      -2.12870569E-22
  -1.39999998      -8.15830987E-23
  -1.36000001       1.37991424E-22
  -1.32000005       4.30030269E-22
  -1.27999997       7.51320163E-22
  -1.24000001       1.03037179E-21
  -1.20000005       1.17402809E-21
  -1.15999997       1.08304478E-21
  -1.12000000       6.76199401E-22
  -1.08000004      -8.01279911E-23
  -1.03999996      -1.14279081E-21
  -1.00000000      -2.37133517E-21
 -0.959999979      -3.52522486E-21
 -0.920000017      -4.28667208E-21
 -0.879999995      -4.31293627E-21
 -0.839999974      -3.31528517E-21
 -0.800000012      -1.15346671E-21
 -0.759999990       2.07390275E-21
 -0.720000029       5.96868731E-21
 -0.680000007       9.82914973E-21
 -0.639999986       1.27234450E-20
 -0.600000024       1.36479615E-20
 -0.560000002       1.17572682E-20
 -0.519999981       6.62844139E-21
 -0.479999989      -1.49942612E-21
 -0.439999998      -1.15826838E-20
 -0.400000006      -2.17971252E-20
 -0.360000014      -2.97753710E-20
 -0.319999993      -3.30609971E-20
 -0.280000001      -2.97240729E-20
 -0.239999995      -1.90197176E-20
 -0.200000003      -1.92082304E-21
 -0.159999996       1.86641221E-20
 -0.119999997       3.81506394E-20
  -7.99999982E-02   5.10969659E-20
  -3.99999991E-02   5.25311162E-20
   2.77555756E-16   3.95741170E-20
   3.99999991E-02   1.29874416E-20
   7.99999982E-02  -2.18337182E-20
  0.119999997      -5.49125659E-20
  0.159999996      -7.31554139E-20
  0.200000003      -6.33269767E-20
  0.239999995      -1.62408690E-20
  0.280000001       6.85834510E-20
  0.319999993       1.78958548E-19
  0.360000014       2.88169227E-19
  0.400000006       3.56578511E-19
  0.439999998       3.37642227E-19
  0.479999989       1.88446801E-19
  0.519999981      -1.16265870E-19
  0.560000002      -5.68932551E-19
  0.600000024      -1.11639335E-18
  0.639999986      -1.65376534E-18
  0.680000007      -2.02915552E-18
  0.720000029      -2.06229382E-18
  0.759999990      -1.57791981E-18
  0.800000012      -4.51532616E-19
  0.839999974       1.33872761E-18
  0.879999995       3.66393738E-18
  0.920000017       6.21262064E-18
  0.959999979       8.48875078E-18
   1.00000000       9.85104446E-18
   1.03999996       9.59994055E-18
   1.08000004       7.11051816E-18
   1.12000000       1.99901347E-18
   1.15999997      -5.70091679E-18
   1.20000005      -1.53862360E-17
   1.24000001      -2.57976176E-17
   1.27999997      -3.50386825E-17
   1.32000005      -4.07346681E-17
   1.36000001      -4.03464656E-17
   1.39999998      -3.16300334E-17
   1.44000006      -1.31983392E-17
   1.48000002       1.48918021E-17
   1.51999998       5.06366520E-17
   1.55999994       8.97945782E-17
   1.60000002       1.25936753E-16
   1.63999999       1.50944726E-16
   1.67999995       1.56007918E-16
   1.72000003       1.33094366E-16
   1.75999999       7.67663644E-17
   1.79999995      -1.38951619E-17
   1.84000003      -1.33592832E-16
   1.88000000      -2.69742804E-16
   1.91999996      -4.02442320E-16
   1.96000004      -5.05818218E-16
   2.00000000      -5.50945116E-16
   2.03999996      -5.10279752E-16
   2.07999992      -3.63254420E-16
   2.11999989      -1.02333346E-16
   2.16000009       2.61467080E-16
   2.20000005       6.94801168E-16
   2.24000001       1.14121098E-15
   2.27999997       1.52439725E-15
   2.31999993       1.75616008E-15
   2.35999990       1.74892250E-15
   2.40000010       1.43186314E-15
   2.44000006       7.68714057E-16
   2.48000002      -2.25591185E-16
   2.51999998      -1.47283741E-15
   2.55999994      -2.82753087E-15
   2.59999990      -4.08399519E-15
   2.64000010      -4.99632125E-15
   2.68000007      -5.31103846E-15
   2.72000003      -4.80997442E-15
   2.75999999      -3.35822581E-15
   2.79999995      -9.49878417E-16
   2.83999991       2.25735720E-15
   2.88000011       5.92766404E-15
   2.92000008       9.56045410E-15
   2.96000004       1.25360249E-14
   3.00000000       1.41932695E-14
   3.03999996       1.39333303E-14
   3.07999992       1.13369710E-14
   3.11999989       6.27814298E-15
   3.16000009      -9.87084339E-16
   3.20000005      -9.77735213E-15
   3.24000001      -1.90062301E-14
   3.27999997      -2.72760584E-14
   3.31999993      -3.30448153E-14
   3.35999990      -3.48524547E-14
   3.40000010      -3.15799260E-14
   3.44000006      -2.27030258E-14
   3.48000002      -8.49665695E-15
   3.51999998       9.85495051E-15
   3.55999994       3.02785446E-14
   3.59999990       4.99834345E-14
   3.64000010       6.57828758E-14
   3.68000007       7.45376729E-14
   3.72000003       7.36687255E-14
   3.75999999       6.16644458E-14
   3.79999995       3.84974103E-14
   3.83999991       5.86618300E-15
   3.88000011      -3.28053828E-14
   3.92000008      -7.26484777E-14
   3.96000004      -1.07904666E-13
   4.00000000      -1.32704381E-13
   4.03999996      -1.41971409E-13
   4.07999992      -1.32321522E-13
   4.11999989      -1.02806022E-13
   4.15999985      -5.53572860E-14
   4.19999981       5.17471782E-15
   4.23999977       7.14513491E-14
   4.28000021       1.34523658E-13
   4.32000017       1.85066399E-13
   4.36000013       2.14802094E-13
   4.40000010       2.17897681E-13
   4.44000006       1.92096298E-13
   4.48000002       1.39365705E-13
   4.51999998       6.59037576E-14
   4.55999994      -1.85640806E-14
   4.59999990      -1.02144042E-13
   4.63999987      -1.72618118E-13
   4.67999983      -2.19496242E-13
   4.71999979      -2.35933072E-13
   4.76000023      -2.20151818E-13
   4.80000019      -1.76066071E-13
   4.84000015      -1.12900493E-13
   4.88000011      -4.37698617E-14
   4.92000008       1.66385782E-14
   4.96000004       5.49512658E-14
   5.00000000       6.20885518E-14
   5.03999996       3.57831203E-14
   5.07999992      -1.79103423E-14
   5.11999989      -8.45542508E-14
   5.15999985      -1.42955052E-13
   5.19999981      -1.68445959E-13
   5.23999977      -1.37488396E-13
   5.28000021      -3.29660649E-14
   5.32000017       1.50679342E-13
   5.36000013       4.03432279E-13
   5.40000010       6.97733375E-13
   5.44000006       9.89283416E-13
   5.48000002       1.22100474E-12
   5.51999998       1.33007646E-12
   5.55999994       1.25744489E-12
   5.59999990       9.58707180E-13
   5.63999987       4.14865435E-13
   5.67999983      -3.58778437E-13
   5.71999979      -1.30730984E-12
   5.76000023      -2.33592399E-12
   5.80000019      -3.31560994E-12
   5.84000015      -4.09498390E-12
   5.88000011      -4.51758856E-12
   5.92000008      -4.44307828E-12
   5.96000004      -3.76992621E-12
   6.00000000      -2.45671972E-12
   6.03999996      -5.38889517E-13
   6.07999992       1.86211723E-12
   6.11999989       4.53958659E-12
   6.15999985       7.21358346E-12
   6.19999981       9.55435210E-12
   6.23999977       1.12156482E-11
   6.28000021       1.18751172E-11
   6.32000017       1.12775492E-11
   6.36000013       9.27599664E-12
   6.40000010       5.86538760E-12
   6.44000006       1.20357413E-12
   6.48000002      -4.38424427E-12
   6.51999998      -1.04202168E-11
   6.55999994      -1.63080903E-11
   6.59999990      -2.13851627E-11
   6.63999987      -2.49877567E-11
   6.67999983      -2.65241041E-11
   6.71999979      -2.55470298E-11
   6.76000023      -2.18182521E-11
   6.80000019      -1.53563516E-11
   6.84000015      -6.46173479E-12
   6.88000011       4.28594573E-12
   6.92000008       1.60597213E-11
   6.96000004       2.78451723E-11
   7.00000000       3.85236842E-11
   7.03999996       4.69717321E-11
   7.07999992       5.21668299E-11
   7.11999989       5.32896921E-11
   7.15999985       4.98123834E-11
   7.19999981       4.15634992E-11
   7.23999977       2.87638940E-11
   7.28000021       1.20295397E-11
   7.32000017      -7.65842598E-12
   7.36000013      -2.90130229E-11
   7.40000010      -5.05240745E-11
   7.44000006      -7.05562761E-11
   7.48000002      -8.74543285E-11
   7.51999998      -9.96475055E-11
   7.55999994      -1.05747695E-10
   7.59999990      -1.04637563E-10
   7.63999987      -9.55476670E-11
   7.67999983      -7.81238338E-11
   7.71999979      -5.24864839E-11
   7.76000023      -1.92834030E-11
   7.80000019       2.02650917E-11
   7.84000015       6.43330736E-11
   7.88000011       1.10477141E-10
   7.92000008       1.55659152E-10
   7.96000004       1.96319877E-10
   8.00000000       2.28520453E-10
   8.03999996       2.48165238E-10
   8.07999992       2.51312138E-10
   8.11999989       2.34565228E-10
   8.15999985       1.95528732E-10
   8.19999981       1.33285272E-10
   8.23999977       4.88449697E-11
   8.27999973      -5.45008136E-11
   8.31999969      -1.70992442E-10
   8.35999966      -2.92450009E-10
   8.39999962      -4.08609896E-10
   8.43999958      -5.07776377E-10
   8.47999954      -5.77780102E-10
   8.52000046      -6.07188966E-10
   8.56000042      -5.86675708E-10
   8.60000038      -5.10401110E-10
   8.64000034      -3.77245679E-10
   8.68000031      -1.91709398E-10
   8.72000027       3.56911167E-11
   8.76000023       2.88660956E-10
   8.80000019       5.46074852E-10
   8.84000015       7.83627996E-10
   8.88000011       9.76091763E-10
   8.92000008       1.09998244E-09
   8.96000004       1.13637288E-09
   9.00000000       1.07351883E-09
   9.03999996       9.08952580E-10
   9.07999992       6.50724585E-10
   9.11999989       3.17535137E-10
   9.15999985      -6.23793031E-11
   9.19999981      -4.53606402E-10
   9.23999977      -8.16999968E-10
   9.27999973      -1.11388676E-09
   9.31999969      -1.31058953E-09
   9.35999966      -1.38273226E-09
   9.39999962      -1.31877365E-09
   9.43999958      -1.12225584E-09
   9.47999954      -8.12380607E-10
   9.52000046      -4.22696600E-10
   9.56000042       2.09270058E-12
   9.60000038       4.10956297E-10
   9.64000034       7.52527374E-10
   9.68000031       9.81609571E-10
   9.72000027       1.06543674E-09
   9.76000023       9.88904292E-10
   9.80000019       7.58064278E-10
   9.84000015       4.01347372E-10
   9.88000011      -3.17843009E-11
   9.92000008      -4.74754958E-10
   9.96000004      -8.50061910E-10
   10.0000000      -1.07714992E-09
   10.0400000      -1.08117670E-09
   10.0799999      -8.01745725E-10
   10.1199999      -2.00672243E-10
   10.1599998       7.32056804E-10
   10.1999998       1.97475636E-09
   10.2399998       3.47329543E-09
   10.2799997       5.14313703E-09
   10.3199997       6.87383439E-09
   10.3599997       8.53535109E-09
   10.3999996       9.98533523E-09
   10.4399996       1.10763398E-08
   10.4799995       1.16619736E-08
   10.5200005       1.16010268E-08
   10.5600004       1.07588534E-08
   10.6000004       9.00548258E-09
   10.6400003       6.21026741E-09
   10.6800003       2.23314434E-09
   10.7200003      -3.08719006E-09
   10.7600002      -9.94771820E-09
   10.8000002      -1.85976088E-08
   10.8400002      -2.93563023E-08
   10.8800001      -4.26328128E-08
   10.9200001      -5.89460569E-08
   10.9600000      -7.89464210E-08
   11.0000000      -1.03438850E-07
   11.0400000      -1.33408250E-07
   11.0799999      -1.70048011E-07
   11.1199999      -2.14792848E-07
   11.1599998      -2.69357145E-07
   11.1999998      -3.35779873E-07
   11.2399998      -4.16477548E-07
   11.2799997      -5.14306009E-07
   11.3199997      -6.32632293E-07
   11.3599997      -7.75417050E-07
   11.3999996      -9.47308195E-07
   11.4399996      -1.15374712E-06
   11.4799995      -1.40108716E-06
   11.5200005      -1.69672512E-06
   11.5600004      -2.04924709E-06
   11.6000004      -2.46858758E-06
   11.6400003      -2.96620465E-06
   11.6800003      -3.55526959E-06
   11.7200003      -4.25087364E-06
   11.7600002      -5.07024924E-06
   11.8000002      -6.03301169E-06
   11.8400002      -7.16141403E-06
   11.8800001      -8.48061973E-06
   11.9200001      -1.00189900E-05
   11.9600000      -1.18083872E-05
   12.0000000      -1.38844835E-05
   12.0400000      -1.62870801E-05
   12.0799999      -1.90604278E-05
   12.1199999      -2.22535418E-05
   12.1599998      -2.59205008E-05
   12.1999998      -3.01207347E-05
   12.2399998      -3.49192742E-05
   12.2799997      -4.03869672E-05
   12.3199997      -4.66006240E-05
   12.3599997      -5.36431180E-05
   12.3999996      -6.16033867E-05
   12.4399996      -7.05763450E-05
   12.4799995      -8.06626922E-05
   12.5200005      -9.19686136E-05
   12.5600004      -1.04605308E-04
   12.6000004      -1.18688331E-04
   12.6400003      -1.34336893E-04
   12.6800003      -1.51672881E-04
   12.7200003      -1.70819680E-04
   12.7600002      -1.91900835E-04
   12.8000002      -2.15038497E-04
   12.8400002      -2.40351612E-04
   12.8800001      -2.67953932E-04
   12.9200001      -2.97951803E-04
   12.9600000      -3.30441631E-04
   13.0000000      -3.65507469E-04
   13.0400000      -4.03217884E-04
   13.0799999      -4.43623168E-04
   13.1199999      -4.86752135E-04
   13.1599998      -5.32608945E-04
   13.1999998      -5.81169734E-04
   13.2399998      -6.32379611E-04
   13.2799997      -6.86148996E-04
   13.3199997      -7.42350938E-04
   13.3599997      -8.00817972E-04
   13.3999996      -8.61339504E-04
   13.4399996      -9.23659536E-04
   13.4799995      -9.87474574E-04
   13.5200005      -1.05243246E-03
   13.5600004      -1.11813110E-03
   13.6000004      -1.18411845E-03
   13.6400003      -1.24989264E-03
   13.6800003      -1.31490373E-03
   13.7200003      -1.37855508E-03
   13.7600002      -1.44020654E-03
   13.8000002      -1.49917766E-03
   13.8400002      -1.55475305E-03
   13.8800001      -1.60618767E-03
   13.9200001      -1.65271293E-03
   13.9600000      -1.69354456E-03
   14.0000000      -1.72789069E-03
   14.0400000      -1.75496039E-03
   14.0799999      -1.77397393E-03
   14.1199999      -1.78417284E-03
   14.1599998      -1.78483012E-03
   14.1999998      -1.77526160E-03
   14.2399998      -1.75483711E-03
   14.2799997      -1.72299158E-03
   14.3199997      -1.67923572E-03
   14.3599997      -1.62316684E-03
   14.3999996      -1.55447889E-03
   14.4399996      -1.47297117E-03
   14.4799995      -1.37855799E-03
   14.5200005      -1.27127429E-03
   14.5600004      -1.15128327E-03
   14.6000004      -1.01887935E-03
   14.6400003      -8.74492223E-04
   14.6800003      -7.18687894E-04
   14.7200003      -5.52167941E-04
   14.7600002      -3.75767471E-04
   14.8000002      -1.90450213E-04
   14.8400002       2.69711813E-06
   14.8800001       2.02473224E-04
   14.9200001       4.07572108E-04
   14.9600000       6.16594858E-04
   15.0000000       8.28062650E-04
   15.0400000       1.04043179E-03
   15.0799999       1.25210942E-03
   15.1199999       1.46147073E-03
   15.1599998       1.66687660E-03
   15.1999998       1.86669175E-03
   15.2399998       2.05930346E-03
   15.2799997       2.24314025E-03
   15.3199997       2.41668965E-03
   15.3599997       2.57851626E-03
   15.3999996       2.72727758E-03
   15.4399996       2.86174193E-03
   15.4799995       2.98079965E-03
   15.5200005       3.08347843E-03
   15.5600004       3.16895265E-03
   15.6000004       3.23655456E-03
   15.6400003       3.28577915E-03
   15.6800003       3.31629044E-03
   15.7200003       3.32792359E-03
   15.7600002       3.32068652E-03
   15.8000002       3.29475640E-03
   15.8400002       3.25047853E-03
   15.8800001       3.18835722E-03
   15.9200001       3.10905115E-03
   15.9600000       3.01336194E-03
   16.0000000       2.90222466E-03
   16.0400009       2.77669355E-03
   16.0799999       2.63793068E-03
   16.1200008       2.48718983E-03
   16.1599998       2.32580327E-03
   16.2000008       2.15516449E-03
   16.2399998       1.97671331E-03
   16.2800007       1.79192133E-03
   16.3199997       1.60227460E-03
   16.3600006       1.40925974E-03
   16.3999996       1.21434953E-03
   16.4400005       1.01898855E-03
   16.4799995       8.24580784E-04
   16.5200005       6.32477750E-04
   16.5599995       4.43967205E-04
   16.6000004       2.60264060E-04
   16.6399994       8.25013412E-05
   16.6800003      -8.82767708E-05
   16.7199993      -2.51121091E-04
   16.7600002      -4.05182102E-04
   16.7999992      -5.49713906E-04
   16.8400002      -6.84076280E-04
   16.8799992      -8.07736651E-04
   16.9200001      -9.20270104E-04
   16.9599991      -1.02135923E-03
   17.0000000      -1.11079263E-03
   17.0400009      -1.18846283E-03
   17.0799999      -1.25436333E-03
   17.1200008      -1.30858528E-03
   17.1599998      -1.35131297E-03
   17.2000008      -1.38281949E-03
   17.2399998      -1.40346133E-03
   17.2800007      -1.41367211E-03
   17.3199997      -1.41395710E-03
   17.3600006      -1.40488544E-03
   17.3999996      -1.38708355E-03
   17.4400005      -1.36122736E-03
   17.4799995      -1.32803386E-03
   17.5200005      -1.28825335E-03
   17.5599995      -1.24266057E-03
   17.6000004      -1.19204610E-03
   17.6399994      -1.13720750E-03
   17.6800003      -1.07894070E-03
   17.7199993      -1.01803103E-03
   17.7600002      -9.55245749E-04
   17.7999992      -8.91324657E-04
   17.8400002      -8.26973468E-04
   17.8799992      -7.62856624E-04
   17.9200001      -6.99590659E-04
   17.9599991      -6.37738674E-04
   18.0000000      -5.77805506E-04
   18.0400009      -5.20233763E-04
   18.0799999      -4.65400779E-04
   18.1200008      -4.13616945E-04
   18.1599998      -3.65124666E-04
   18.2000008      -3.20098858E-04
   18.2399998      -2.78648367E-04
   18.2800007      -2.40818452E-04
   18.3199997      -2.06594646E-04
   18.3600006      -1.75907349E-04
   18.3999996      -1.48637511E-04
   18.4400005      -1.24622966E-04
   18.4799995      -1.03665458E-04
   18.5200005      -8.55381804E-05
   18.5599995      -6.99934826E-05
   18.6000004      -5.67706993E-05
   18.6399994      -4.56038797E-05
   18.6800003      -3.62291867E-05
   18.7199993      -2.83918489E-05
   18.7600002      -2.18524474E-05
   18.7999992      -1.63924251E-05
   18.8400002      -1.18187008E-05
   18.8799992      -7.96726181E-06
   18.9200001      -4.70566783E-06
   18.9599991      -1.93440633E-06
   19.0000000       4.12897549E-07
   19.0400009       2.37042423E-06
   19.0799999       3.94221343E-06
   19.1200008       5.10524023E-06
   19.1599998       5.81341010E-06
   19.2000008       6.00233307E-06
   19.2399998       5.59471118E-06
   19.2800007       4.50616380E-06
   19.3199997       2.65128801E-06
   19.3600006      -5.02528721E-08
   19.3999996      -3.66779841E-06
   19.4400005      -8.25411917E-06
   19.4799995      -1.38403866E-05
   19.5200005      -2.04318512E-05
   19.5599995      -2.80043478E-05
   19.6000004      -3.65018059E-05
   19.6399994      -4.58347640E-05
   19.6800003      -5.58800821E-05
   19.7199993      -6.64817417E-05
   19.7600002      -7.74528671E-05
   19.7999992      -8.85788395E-05
   19.8400002      -9.96214876E-05
   19.8799992      -1.10324276E-04
   19.9200001      -1.20418204E-04
   19.9599991      -1.29628519E-04
   20.0000000      -1.37681753E-04
   20.0400009      -1.44313148E-04
   20.0799999      -1.49274027E-04
   20.1200008      -1.52339082E-04
   20.1599998      -1.53313304E-04
   20.2000008      -1.52038192E-04
   20.2399998      -1.48397390E-04
   20.2800007      -1.42321369E-04
   20.3199997      -1.33791051E-04
   20.3600006      -1.22840211E-04
   20.3999996      -1.09556851E-04
   20.4400005      -9.40830942E-05
   20.4799995      -7.66138255E-05
   20.5200005      -5.73941397E-05
   20.5599995      -3.67153407E-05
   20.6000004      -1.49098496E-05
   20.6399994       7.65505956E-06
   20.6800003       3.05844951E-05
   20.7199993       5.34640531E-05
   20.7600002       7.58685637E-05
   20.7999992       9.73713177E-05
   20.8400002       1.17553522E-04
   20.8799992       1.36013812E-04
   20.9200001       1.52377455E-04
   20.9599991       1.66305297E-04
   21.0000000       1.77501846E-04
   21.0400009       1.85722645E-04
   21.0799999       1.90780629E-04
   21.1200008       1.92551117E-04
   21.1599998       1.90975683E-04
   21.2000008       1.86064484E-04
   21.2399998       1.77897164E-04
   21.2800007       1.66622136E-04
   21.3199997       1.52454304E-04
   21.3600006       1.35671435E-04
   21.3999996       1.16608775E-04
   21.4400005       9.56524527E-05
   21.4799995       7.32315602E-05
   21.5200005       4.98091140E-05
   21.5599995       2.58719920E-05
   21.6000004       1.92025095E-06
   21.6399994      -2.15441669E-05
   21.6800003      -4.40289368E-05
   21.7199993      -6.50629008E-05
   21.7600002      -8.42072768E-05
   21.7999992      -1.01066435E-04
   21.8400002      -1.15297727E-04
   21.8799992      -1.26620391E-04
   21.9200001      -1.34823029E-04
   21.9599991      -1.39769661E-04
   22.0000000      -1.41403973E-04
   22.0400009      -1.39751850E-04
   22.0799999      -1.34921793E-04
   22.1200008      -1.27103500E-04
   22.1599998      -1.16564319E-04
   22.2000008      -1.03643717E-04
   22.2399998      -8.87458882E-05
   22.2800007      -7.23306221E-05
   22.3199997      -5.49025572E-05
   22.3600006      -3.69990776E-05
   22.3999996      -1.91771560E-05
   22.4400005      -1.99935153E-06
   22.4799995       1.39806807E-05
   22.5200005       2.82328401E-05
   22.5599995       4.02650439E-05
   22.6000004       4.96371613E-05
   22.6399994       5.59740402E-05
   22.6800003       5.89773190E-05
   22.7199993       5.84356712E-05
   22.7600002       5.42331982E-05
   22.7999992       4.63556426E-05
   22.8400002       3.48943358E-05
   22.8799992       2.00475424E-05
   22.9200001       2.11915926E-06
   22.9599991      -1.84852488E-05
   23.0000000      -4.12651352E-05
   23.0400009      -6.56342745E-05
   23.0799999      -9.09325099E-05
   23.1200008      -1.16439747E-04
   23.1599998      -1.41391953E-04
   23.2000008      -1.64998783E-04
   23.2399998      -1.86462421E-04
   23.2800007      -2.04997414E-04
   23.3199997      -2.19850685E-04
   23.3600006      -2.30321704E-04
   23.3999996      -2.35781888E-04
   23.4400005      -2.35693122E-04
   23.4799995      -2.29624638E-04
   23.5200005      -2.17268025E-04
   23.5599995      -1.98449867E-04
   23.6000004      -1.73141598E-04
   23.6399994      -1.41466298E-04
   23.6800003      -1.03702281E-04
   23.7199993      -6.02831024E-05
   23.7600002      -1.17940490E-05
   23.7999992       4.10349130E-05
   23.8400002       9.73397910E-05
   23.8799992       1.56136579E-04
   23.9200001       2.16338391E-04
   23.9599991       2.76775361E-04
   24.0000000       3.36217141E-04
   24.0400009       3.93397437E-04
   24.0799999       4.47039754E-04
   24.1200008       4.95884742E-04
   24.1599998       5.38717431E-04
   24.2000008       5.74394595E-04
   24.2399998       6.01871347E-04
   24.2800007       6.20226609E-04
   24.3199997       6.28686335E-04
   24.3600006       6.26644818E-04
   24.3999996       6.13682787E-04
   24.4400005       5.89582371E-04
   24.4799995       5.54338447E-04
   24.5200005       5.08166209E-04
   24.5599995       4.51504136E-04
   24.6000004       3.85013380E-04
   24.6399994       3.09572206E-04
   24.6800003       2.26266726E-04
   24.7199993       1.36377246E-04
   24.7600002       4.13608905E-05
   24.7999992      -5.71695455E-05
   24.8400002      -1.57469840E-04
   24.8799992      -2.57691514E-04
   24.9200001      -3.55911179E-04
   24.9599991      -4.50161984E-04
   25.0000000      -5.38466033E-04
   25.0400009      -6.18867576E-04
   25.0799999      -6.89466542E-04
   25.1200008      -7.48451159E-04
   25.1599998      -7.94129854E-04
   25.2000008      -8.24961404E-04
   25.2399998      -8.39582761E-04
   25.2800007      -8.36834777E-04
   25.3199997      -8.15784151E-04
   25.3600006      -7.75742810E-04
   25.3999996      -7.16282986E-04
   25.4400005      -6.37248624E-04
   25.4799995      -5.38763066E-04
   25.5200005      -4.21231874E-04
   25.5599995      -2.85342016E-04
   25.6000004      -1.32056841E-04
   25.6399994       3.73930343E-05
   25.6800003       2.21522670E-04
   25.7199993       4.18609445E-04
   25.7600002       6.26713037E-04
   25.7999992       8.43698392E-04
   25.8400002       1.06726144E-03
   25.8799992       1.29495736E-03
   25.9200001       1.52423058E-03
   25.9599991       1.75244641E-03
   26.0000000       1.97692402E-03
   26.0400009       2.19496991E-03
   26.0799999       2.40391120E-03
   26.1200008       2.60112924E-03
   26.1599998       2.78409361E-03
   26.2000008       2.95039313E-03
   26.2399998       3.09776678E-03
   26.2800007       3.22413258E-03
   26.3199997       3.32761533E-03
   26.3600006       3.40656936E-03
   26.3999996       3.45960306E-03
   26.4400005       3.48559441E-03
   26.4799995       3.48370918E-03
   26.5200005       3.45341163E-03
   26.5599995       3.39447451E-03
   26.6000004       3.30698257E-03
   26.6399994       3.19133513E-03
   26.6800003       3.04824230E-03
   26.7199993       2.87871924E-03
   26.7600002       2.68407585E-03
   26.7999992       2.46590236E-03
   26.8400002       2.22605350E-03
   26.8799992       1.96662499E-03
   26.9200001       1.68993254E-03
   26.9599991       1.39848317E-03
   27.0000000       1.09494710E-03
   27.0400009       7.82125164E-04
   27.0799999       4.62916796E-04
   27.1200008       1.40284479E-04
   27.1599998      -1.82781427E-04
   27.2000008      -5.03298710E-04
   27.2399998      -8.18329398E-04
   27.2800007      -1.12501509E-03
   27.3199997      -1.42061198E-03
   27.3600006      -1.70252344E-03
   27.3999996      -1.96833187E-03
   27.4400005      -2.21582735E-03
   27.4799995      -2.44303397E-03
   27.5200005      -2.64823181E-03
   27.5599995      -2.82997778E-03
   27.6000004      -2.98712077E-03
   27.6399994      -3.11881257E-03
   27.6800003      -3.22451605E-03
   27.7199993      -3.30400816E-03
   27.7600002      -3.35737783E-03
   27.7999992      -3.38502135E-03
   27.8400002      -3.38763208E-03
   27.8799992      -3.36618675E-03
   27.9200001      -3.32192774E-03
   27.9599991      -3.25634121E-03
   28.0000000      -3.17113334E-03
   28.0400009      -3.06820218E-03
   28.0799999      -2.94960802E-03
   28.1200008      -2.81754020E-03
   28.1599998      -2.67428439E-03
   28.2000008      -2.52218824E-03
   28.2399998      -2.36362428E-03
   28.2800007      -2.20095669E-03
   28.3199997      -2.03650515E-03
   28.3600006      -1.87251111E-03
   28.3999996      -1.71110604E-03
   28.4400005      -1.55428052E-03
   28.4799995      -1.40385702E-03
   28.5200005      -1.26146479E-03
   28.5599995      -1.12851826E-03
   28.6000004      -1.00619881E-03
   28.6399994      -8.95440928E-04
   28.6800003      -7.96921609E-04
   28.7199993      -7.11054716E-04
   28.7600002      -6.37989375E-04
   28.7999992      -5.77612722E-04
   28.8400002      -5.29557001E-04
   28.8799992      -4.93210624E-04
   28.9200001      -4.67733771E-04
   28.9599991      -4.52077278E-04
   29.0000000      -4.45005484E-04
   29.0400009      -4.45121754E-04
   29.0799999      -4.50897351E-04
   29.1200008      -4.60701936E-04
   29.1599998      -4.72836546E-04
   29.2000008      -4.85567143E-04
   29.2399998      -4.97159432E-04
   29.2800007      -5.05913340E-04
   29.3199997      -5.10197540E-04
   29.3600006      -5.08481928E-04
   29.3999996      -4.99369286E-04
   29.4400005      -4.81624185E-04
   29.4799995      -4.54198773E-04