  -4.80000019       0.00000000
  -4.76000023       0.00000000
  -4.71999979       0.00000000
  -4.67999983       0.00000000
  -4.63999987       0.00000000
  -4.59999990       0.00000000
  -4.55999994       0.00000000
  -4.51999998       0.00000000
  -4.48000002       0.00000000
  -4.44000006      -7.71539448E-35
  -4.40000010       3.64948201E-34
  -4.36000013       2.00394530E-33
  -4.32000017      -7.59241663E-33
  -4.28000021      -2.03547896E-31
  -4.23999977       7.57955936E-31
  -4.19999981       1.99121107E-30
  -4.15999985       3.92274290E-31
  -4.11999989      -7.64622024E-30
  -4.07999992      -1.76059382E-29
  -4.03999996      -4.44584414E-30
  -4.00000000       7.35111029E-29
  -3.96000004      -3.06059849E-29
  -3.92000008       2.82208802E-28
  -3.88000011       1.15284009E-27
  -3.83999991       1.97852786E-27
  -3.79999995       3.62481547E-27
  -3.75999999       5.56072636E-27
  -3.72000003       1.26743508E-26
  -3.68000007       1.61070390E-26
  -3.64000010       2.38613337E-26
  -3.59999990       1.13419910E-26
  -3.55999994       1.79300707E-27
  -3.51999998       4.98413598E-26
  -3.48000002       7.21107861E-26
  -3.44000006       5.60478093E-26
  -3.40000010       1.15781016E-25
  -3.35999990       1.65069144E-25
  -3.31999993       7.02152371E-25
  -3.27999997       9.08629121E-25
  -3.24000001       1.21510020E-24
  -3.20000005       1.70579397E-24
  -3.16000009       1.58757291E-24
  -3.11999989       1.07910315E-24
  -3.07999992      -7.19442501E-26
  -3.03999996      -3.18859211E-26
  -3.00000000      -2.44596505E-25
  -2.96000004      -2.32038465E-24
  -2.92000008      -1.01489196E-23
  -2.88000011      -1.54466870E-23
  -2.83999991      -5.95534511E-23
  -2.79999995      -1.01305808E-22
  -2.75999999      -9.54417313E-23
  -2.72000003      -9.09371147E-23
  -2.68000007      -8.45557790E-23
  -2.64000010       3.95530787E-23
  -2.59999990       1.75524909E-22
  -2.55999994       3.22671575E-22
  -2.51999998       5.19946326E-22
  -2.48000002       6.85304698E-22
  -2.44000006       7.65105514E-22
  -2.40000010       7.72950351E-22
  -2.35999990       7.61523555E-22
  -2.31999993       6.21897611E-23
  -2.27999997      -1.18587519E-21
  -2.24000001      -1.96594457E-21
  -2.20000005      -2.98828407E-21
  -2.16000009      -3.36938290E-21
  -2.11999989      -4.76049793E-21
  -2.07999992      -5.48566391E-21
  -2.03999996      -4.06617917E-21
  -2.00000000       9.42748811E-22
  -1.96000004       8.85057002E-21
  -1.91999996       2.01866223E-20
  -1.88000000       3.44190176E-20
  -1.84000003       4.71330938E-20
  -1.79999995       5.66431311E-20
  -1.75999999       5.78729872E-20
  -1.72000003       4.89294619E-20
  -1.67999995       2.10295565E-20
  -1.63999999      -2.44809272E-20
  -1.60000002      -8.36713804E-20
  -1.55999994      -1.66449393E-19
  -1.51999998      -2.53160901E-19
  -1.48000002      -3.19322917E-19
  -1.44000006      -3.51757108E-19
  -1.39999998      -2.97505692E-19
  -1.36000001      -1.35614995E-19
  -1.32000005       1.51583923E-19
  -1.27999997       5.30936681E-19
  -1.24000001       9.74799988E-19
  -1.20000005       1.38210879E-18
  -1.15999997       1.68609984E-18
  -1.12000000       1.74347132E-18
  -1.08000004       1.43546101E-18
  -1.03999996       6.77159259E-19
  -1.00000000      -5.68253384E-19
 -0.959999979      -2.13766776E-18
 -0.920000017      -3.85815815E-18
 -0.879999995      -5.34356525E-18
 -0.839999974      -6.27049888E-18
 -0.800000012      -6.21466833E-18
 -0.759999990      -5.00909105E-18
 -0.720000029      -2.42546437E-18
 -0.680000007       1.42009396E-18
 -0.639999986       6.13870130E-18
 -0.600000024       1.10229733E-17
 -0.560000002       1.52892474E-17
 -0.519999981       1.79688262E-17
 -0.479999989       1.81274398E-17
 -0.439999998       1.52879736E-17
 -0.400000006       9.05918612E-18
 -0.360000014       1.34152035E-19
 -0.319999993      -1.03690225E-17
 -0.280000001      -2.09881778E-17
 -0.239999995      -2.98530972E-17
 -0.200000003      -3.53440644E-17
 -0.159999996      -3.59630933E-17
 -0.119999997      -3.14317482E-17
  -7.99999982E-02  -2.24754088E-17
  -3.99999991E-02  -1.07831711E-17
   2.77555756E-16   1.15998494E-18
   3.99999991E-02   1.07342426E-17
   7.99999982E-02   1.64162513E-17
  0.119999997       1.82397362E-17
  0.159999996       1.82203950E-17
  0.200000003       2.06492852E-17
  0.239999995       2.97653234E-17
  0.280000001       5.13993489E-17
  0.319999993       8.79787314E-17
  0.360000014       1.36437010E-16
  0.400000006       1.87048684E-16
  0.439999998       2.23955379E-16
  0.479999989       2.25383926E-16
  0.519999981       1.67551878E-16
  0.560000002       3.24994167E-17
  0.600000024      -1.88577102E-16
  0.639999986      -4.84898622E-16
  0.680000007      -8.22764236E-16
  0.720000029      -1.14212334E-15
  0.759999990      -1.36408145E-15
  0.800000012      -1.39835388E-15
  0.839999974      -1.16256490E-15
  0.879999995      -6.04741079E-16
  0.920000017       2.79006618E-16
  0.959999979       1.42702192E-15
   1.00000000       2.69755642E-15
   1.03999996       3.88739249E-15
   1.08000004       4.74402444E-15
   1.12000000       5.01072166E-15
   1.15999997       4.47172833E-15
   1.20000005       3.01414980E-15
   1.24000001       6.63307266E-16
   1.27999997      -2.38655768E-15
   1.32000005      -5.77115946E-15
   1.36000001      -8.98620642E-15
   1.39999998      -1.14617559E-14
   1.44000006      -1.26519109E-14
   1.48000002      -1.21377551E-14
   1.51999998      -9.72379424E-15
   1.55999994      -5.49177708E-15
   1.60000002       1.63920463E-16
   1.63999999       6.58340942E-15
   1.67999995       1.29274956E-14
   1.72000003       1.83009651E-14
   1.75999999       2.19055815E-14
   1.79999995       2.31752077E-14
   1.84000003       2.18642074E-14
   1.88000000       1.81067218E-14
   1.91999996       1.23444888E-14
   1.96000004       5.25067635E-15
   2.00000000      -2.42481392E-15
   2.03999996      -9.98950424E-15
   2.07999992      -1.69423733E-14
   2.11999989      -2.30377952E-14
   2.16000009      -2.82375272E-14
   2.20000005      -3.25973108E-14
   2.24000001      -3.61100107E-14
   2.27999997      -3.85629164E-14
   2.31999993      -3.94152958E-14
   2.35999990      -3.77688196E-14
   2.40000010      -3.24815350E-14
   2.44000006      -2.24321446E-14
   2.48000002      -6.84138093E-15
   2.51999998       1.43478335E-14
   2.55999994       4.02284746E-14
   2.59999990       6.86963710E-14
   2.64000010       9.66198963E-14
   2.68000007       1.20115343E-13
   2.72000003       1.35056205E-13
   2.75999999       1.37774761E-13
   2.79999995       1.25623592E-13
   2.83999991       9.75404517E-14
   2.88000011       5.43466842E-14
   2.92000008      -1.26477594E-15
   2.96000004      -6.50514121E-14
   3.00000000      -1.31718949E-13
   3.03999996      -1.95425476E-13
   3.07999992      -2.50353720E-13
   3.11999989      -2.91025721E-13
   3.16000009      -3.12515096E-13
   3.20000005      -3.10446682E-13
   3.24000001      -2.81081392E-13
   3.27999997      -2.21360338E-13
   3.31999993      -1.29531829E-13
   3.35999990      -6.15220358E-15
   3.40000010       1.44617405E-13
   3.44000006       3.13748078E-13
   3.48000002       4.86201249E-13
   3.51999998       6.41213428E-13
   3.55999994       7.53510644E-13
   3.59999990       7.96161151E-13
   3.64000010       7.45507063E-13
   3.68000007       5.86541558E-13
   3.72000003       3.18660571E-13
   3.75999999      -4.00390611E-14
   3.79999995      -4.51259310E-13
   3.83999991      -8.58575147E-13
   3.88000011      -1.19427753E-12
   3.92000008      -1.39004552E-12
   3.96000004      -1.39055510E-12
   4.00000000      -1.16681133E-12
   4.03999996      -7.27512072E-13
   4.07999992      -1.24652513E-13
   4.11999989       5.49078090E-13
   4.15999985       1.17177188E-12
   4.19999981       1.61261976E-12
   4.23999977       1.75743057E-12
   4.28000021       1.53573649E-12
   4.32000017       9.43369731E-13
   4.36000013       5.53727325E-14
   4.40000010      -9.76935438E-13
   4.44000006      -1.94445523E-12
   4.48000002      -2.61588863E-12
   4.51999998      -2.78307043E-12
   4.55999994      -2.31053566E-12
   4.59999990      -1.17706788E-12
   4.63999987       4.99858564E-13
   4.67999983       2.46509800E-12
   4.71999979       4.35600557E-12
   4.76000023       5.76082411E-12
   4.80000019       6.29641001E-12
   4.84000015       5.69116499E-12
   4.88000011       3.86040852E-12
   4.92000008       9.51039811E-13
   4.96000004      -2.65225992E-12
   5.00000000      -6.37157905E-12
   5.03999996      -9.52032897E-12
   5.07999992      -1.14255480E-11
   5.11999989      -1.15644673E-11
   5.15999985      -9.68221423E-12
   5.19999981      -5.87666981E-12
   5.23999977      -6.17284273E-13
   5.28000021       5.30148191E-12
   5.32000017       1.08740942E-11
   5.36000013       1.50525183E-11
   5.40000010       1.69392122E-11
   5.44000006       1.59811626E-11
   5.48000002       1.21040799E-11
   5.51999998       5.77839512E-12
   5.55999994      -2.04423371E-12
   5.59999990      -1.00581357E-11
   5.63999987      -1.67945258E-11
   5.67999983      -2.09105545E-11
   5.71999979      -2.14597107E-11
   5.76000023      -1.80662221E-11
   5.80000019      -1.10488892E-11
   5.84000015      -1.46685333E-12
   5.88000011       9.09508319E-12
   5.92000008       1.87495748E-11
   5.96000004       2.56679730E-11
   6.00000000       2.84591309E-11
   6.03999996       2.64411756E-11
   6.07999992       1.95887473E-11
   6.11999989       8.66694216E-12
   6.15999985      -4.73148907E-12
   6.19999981      -1.86732418E-11
   6.23999977      -3.09788896E-11
   6.28000021      -3.98612185E-11
   6.32000017      -4.35547189E-11
   6.36000013      -4.12644675E-11
   6.40000010      -3.28901906E-11
   6.44000006      -1.89633864E-11
   6.48000002      -9.39162485E-13
   6.51999998       1.96840304E-11
   6.55999994       4.05190742E-11
   6.59999990       5.87535298E-11
   6.63999987       7.11471576E-11
   6.67999983       7.54573348E-11
   6.71999979       7.03414896E-11
   6.76000023       5.58192624E-11
   6.80000019       3.18850120E-11
   6.84000015       1.99167831E-13
   6.88000011      -3.54084123E-11
   6.92000008      -6.98335556E-11
   6.96000004      -9.88142623E-11
   7.00000000      -1.17436269E-10
   7.03999996      -1.20507826E-10
   7.07999992      -1.06814606E-10
   7.11999989      -7.60793303E-11
   7.15999985      -3.10793405E-11
   7.19999981       2.23842906E-11
   7.23999977       7.96286578E-11
   7.28000021       1.30694372E-10
   7.32000017       1.70461215E-10
   7.36000013       1.91074240E-10
   7.40000010       1.89205623E-10
   7.44000006       1.63582717E-10
   7.48000002       1.14423082E-10
   7.51999998       4.96977112E-11
   7.55999994      -2.64448342E-11
   7.59999990      -1.00224939E-10
   7.63999987      -1.63346323E-10
   7.67999983      -2.01561615E-10
   7.71999979      -2.10836834E-10
   7.76000023      -1.85728474E-10
   7.80000019      -1.13071164E-10
   7.84000015      -3.84654721E-12
   7.88000011       1.28165714E-10
   7.92000008       2.62459304E-10
   7.96000004       3.73643616E-10
   8.00000000       4.33871439E-10
   8.03999996       4.11477352E-10
   8.07999992       3.00840158E-10
   8.11999989       1.12797605E-10
   8.15999985      -1.19423180E-10
   8.19999981      -3.61313424E-10
   8.23999977      -5.57641322E-10
   8.27999973      -6.63468003E-10
   8.31999969      -6.48828047E-10
   8.35999966      -5.08236453E-10
   8.39999962      -2.81712570E-10
   8.43999958       1.10671871E-11
   8.47999954       3.28955974E-10
   8.52000046       6.08270045E-10
   8.56000042       7.97078181E-10
   8.60000038       8.54966709E-10
   8.64000034       7.53666907E-10
   8.68000031       5.17433596E-10
   8.72000027       1.25506591E-10
   8.76000023      -3.66350700E-10
   8.80000019      -8.25585156E-10
   8.84000015      -1.21173649E-09
   8.88000011      -1.47898038E-09
   8.92000008      -1.61746117E-09
   8.96000004      -1.59483959E-09
   9.00000000      -1.43976320E-09
   9.03999996      -1.20760679E-09
   9.07999992      -9.27710075E-10
   9.11999989      -6.98199776E-10
   9.15999985      -5.06963804E-10
   9.19999981      -3.86362636E-10
   9.23999977      -3.15362236E-10
   9.27999973      -2.52332627E-10
   9.31999969      -1.00943184E-10
   9.35999966       1.33645095E-10
   9.39999962       4.77194118E-10
   9.43999958       9.25995225E-10
   9.47999954       1.37148437E-09
   9.52000046       1.69559622E-09
   9.56000042       1.80697723E-09
   9.60000038       1.69003522E-09
   9.64000034       1.33718092E-09
   9.68000031       7.47262363E-10
   9.72000027       4.38761735E-11
   9.76000023      -6.52308152E-10
   9.80000019      -1.14850185E-09
   9.84000015      -1.32792244E-09
   9.88000011      -1.14759557E-09
   9.92000008      -6.48113563E-10
   9.96000004       7.66767969E-11
   10.0000000       8.83668028E-10
   10.0400000       1.60216673E-09
   10.0799999       2.06109885E-09
   10.1199999       2.13073559E-09
   10.1599998       1.73602932E-09
   10.1999998       9.13266684E-10
   10.2399998      -1.80125290E-10
   10.2799997      -1.41421308E-09
   10.3199997      -2.57016186E-09
   10.3599997      -3.44695961E-09
   10.3999996      -3.85850951E-09
   10.4399996      -3.74885056E-09
   10.4799995      -3.12190829E-09
   10.5200005      -2.06704276E-09
   10.5600004      -7.18966997E-10
   10.6000004       7.75093600E-10
   10.6400003       2.12760765E-09
   10.6800003       3.21382254E-09
   10.7200003       3.88204846E-09
   10.7600002       4.07880840E-09
   10.8000002       3.92764132E-09
   10.8400002       3.42707551E-09
   10.8800001       2.88001023E-09
   10.9200001       2.30673725E-09
   10.9600000       1.86081006E-09
   11.0000000       1.32174038E-09
   11.0400000       8.19893209E-10
   11.0799999       3.47510687E-10
   11.1199999      -4.74707496E-11
   11.1599998      -3.55765806E-10
   11.1999998      -5.77561943E-10
   11.2399998      -7.64281416E-10
   11.2799997      -9.51715262E-10
   11.3199997      -1.01158903E-09
   11.3599997      -1.04421505E-09
   11.3999996      -1.20975618E-09
   11.4399996      -1.47732671E-09
   11.4799995      -1.85061322E-09
   11.5200005      -2.30717223E-09
   11.5600004      -2.76719381E-09
   11.6000004      -3.19488813E-09
   11.6400003      -3.50382923E-09
   11.6800003      -3.57482000E-09
   11.7200003      -3.31859118E-09
   11.7600002      -2.70957989E-09
   11.8000002      -1.71751147E-09
   11.8400002      -4.18514640E-10
   11.8800001       1.07710163E-09
   11.9200001       2.61678879E-09
   11.9600000       4.03193523E-09
   12.0000000       5.18463272E-09
   12.0400000       5.95281202E-09
   12.0799999       6.27696872E-09
   12.1199999       6.16879792E-09
   12.1599998       5.66787772E-09
   12.1999998       4.85066476E-09
   12.2399998       3.88467525E-09
   12.2799997       2.87805513E-09
   12.3199997       1.94732985E-09
   12.3599997       1.14579479E-09
   12.3999996       4.71905015E-10
   12.4399996      -8.35972819E-11
   12.4799995      -5.42633161E-10
   12.5200005      -1.02998277E-09
   12.5600004      -1.54794133E-09
   12.6000004      -2.09639661E-09
   12.6400003      -2.64238653E-09
   12.6800003      -3.16286108E-09
   12.7200003      -3.56102059E-09
   12.7600002      -3.76834342E-09
   12.8000002      -3.65300612E-09
   12.8400002      -3.15749404E-09
   12.8800001      -2.27301777E-09
   12.9200001      -1.09392551E-09
   12.9600000       2.58116306E-10
   13.0000000       1.63423775E-09
   13.0400000       2.80034418E-09
   13.0799999       3.51368201E-09
   13.1199999       3.59411434E-09
   13.1599998       3.04406322E-09
   13.1999998       1.93507232E-09
   13.2399998       4.94619568E-10
   13.2799997      -1.00515152E-09
   13.3199997      -2.27233810E-09
   13.3599997      -3.05810288E-09
   13.3999996      -3.14979554E-09
   13.4399996      -2.50229104E-09
   13.4799995      -1.16799159E-09
   13.5200005       6.69662215E-10
   13.5600004       2.71674927E-09
   13.6000004       4.61411886E-09
   13.6400003       6.03932326E-09
   13.6800003       6.73516043E-09
   13.7200003       6.53535448E-09
   13.7600002       5.45407275E-09
   13.8000002       3.65408437E-09
   13.8400002       1.42933576E-09
   13.8800001      -8.53287607E-10
   13.9200001      -2.81221091E-09
   13.9600000      -4.12112211E-09
   14.0000000      -4.58326355E-09
   14.0400000      -4.15526280E-09
   14.0799999      -2.96930103E-09
   14.1199999      -1.30942279E-09
   14.1599998       4.57416244E-10
   14.1999998       1.95851757E-09
   14.2399998       2.88057689E-09
   14.2799997       3.03813752E-09
   14.3199997       2.39741405E-09
   14.3599997       1.09336074E-09
   14.3999996      -6.07189798E-10
   14.4399996      -2.35728703E-09
   14.4799995      -3.79813203E-09
   14.5200005      -4.62463534E-09
   14.5600004      -4.65082595E-09
   14.6000004      -3.83926047E-09
   14.6400003      -2.30315989E-09
   14.6800003      -2.88293500E-10
   14.7200003       1.88216243E-09
   14.7600002       3.86072374E-09
   14.8000002       5.34182609E-09
   14.8400002       6.11777740E-09
   14.8800001       6.10878637E-09
   14.9200001       5.37250688E-09
   14.9600000       4.08456469E-09
   15.0000000       2.50152143E-09
   15.0400000       9.07099729E-10
   15.0799999      -4.37999859E-10
   15.1199999      -1.33780864E-09
   15.1599998      -1.69499159E-09
   15.1999998      -1.52669277E-09
   15.2399998      -9.50028833E-10
   15.2799997      -1.53967256E-10
   15.3199997       6.36187991E-10
   15.3599997       1.19738519E-09
   15.3999996       1.34617772E-09
   15.4399996       9.69389236E-10
   15.4799995       4.23521322E-11
   15.5200005      -1.36922329E-09
   15.5600004      -3.11849924E-09
   15.6000004      -4.99636998E-09
   15.6400003      -6.76109435E-09
   15.6800003      -8.17167489E-09
   15.7200003      -9.01606967E-09
   15.7600002      -9.14302234E-09
   15.8000002      -8.48579784E-09
   15.8400002      -7.07358305E-09
   15.8800001      -5.03482189E-09
   15.9200001      -2.58263344E-09
   15.9600000       7.51720387E-12
   16.0000000       2.43030085E-09
   16.0400009       4.39605152E-09
   16.0799999       5.66945424E-09
   16.1200008       6.11343376E-09
   16.1599998       5.71096725E-09
   16.2000008       4.57492311E-09
   16.2399998       2.93572433E-09
   16.2800007       1.11160403E-09
   16.3199997      -5.46796552E-10
   16.3600006      -1.71239423E-09
   16.3999996      -2.15017182E-09
   16.4400005      -1.75917214E-09
   16.4799995      -6.07550621E-10
   16.5200005       1.07288411E-09
   16.5599995       2.91484814E-09
   16.6000004       4.47891768E-09
   16.6399994       5.33705835E-09
   16.6800003       5.15147480E-09
   16.7199993       3.76631526E-09
   16.7600002       1.24033583E-09
   16.7999992      -2.13692797E-09
   16.8400002      -5.87785509E-09
   16.8799992      -9.37109945E-09
   16.9200001      -1.19725332E-08
   16.9599991      -1.31323947E-08
   17.0000000      -1.25027455E-08
   17.0400009      -1.00132986E-08
   17.0799999      -5.90366112E-09
   17.1200008      -6.94140467E-10
   17.1599998       4.87736340E-09
   17.2000008       9.97867655E-09
   17.2399998       1.38204728E-08
   17.2800007       1.58033870E-08
   17.3199997       1.56212359E-08
   17.3600006       1.33137332E-08
   17.3999996       9.27743482E-09
   17.4400005       4.19286605E-09
   17.4799995      -1.08451670E-09
   17.5200005      -5.67244030E-09
   17.5599995      -8.81645068E-09
   17.6000004      -1.00167137E-08
   17.6399994      -9.13013398E-09
   17.6800003      -6.40170672E-09
   17.7199993      -2.40304865E-09
   17.7600002       2.05491379E-09
   17.7999992       6.06420114E-09
   17.8400002       8.79235884E-09
   17.8799992       9.62301971E-09
   17.9200001       8.24495849E-09
   17.9599991       4.75599693E-09
   18.0000000      -3.98141714E-10
   18.0400009      -6.46825482E-09
   18.0799999      -1.25178303E-08
   18.1200008      -1.76090218E-08
   18.1599998      -2.09586251E-08
   18.2000008      -2.20229737E-08
   18.2399998      -2.06091286E-08
   18.2800007      -1.69002696E-08
   18.3199997      -1.13872316E-08
   18.3600006      -4.86505902E-09
   18.3999996       1.75282577E-09
   18.4400005       7.60992336E-09
   18.4799995       1.19541825E-08
   18.5200005       1.43389061E-08
   18.5599995       1.46251971E-08
   18.6000004       1.29811228E-08
   18.6399994       9.86276660E-09
   18.6800003       5.93757887E-09
   18.7199993       1.92747307E-09
   18.7600002      -1.47842028E-09
   18.7999992      -3.70706177E-09
   18.8400002      -4.45300286E-09
   18.8799992      -3.70138298E-09
   18.9200001      -1.72486803E-09
   18.9599991       1.00438868E-09
   19.0000000       3.86889987E-09
   19.0400009       6.21374063E-09
   19.0799999       7.46193685E-09
   19.1200008       7.26991312E-09
   19.1599998       5.53129054E-09
   19.2000008       2.39964293E-09
   19.2399998      -1.74491233E-09
   19.2800007      -6.34757225E-09
   19.3199997      -1.07137348E-08
   19.3600006      -1.42046712E-08
   19.3999996      -1.62904001E-08
   19.4400005      -1.66214509E-08
   19.4799995      -1.51745496E-08
   19.5200005      -1.22032766E-08
   19.5599995      -8.14966317E-09
   19.6000004      -3.59258934E-09
   19.6399994       8.43869030E-10
   19.6800003       4.58972993E-09
   19.7199993       7.18558857E-09
   19.7600002       8.38485725E-09
   19.7999992       8.15747203E-09
   19.8400002       6.72945566E-09
   19.8799992       4.49721949E-09
   19.9200001       1.91920635E-09
   19.9599991      -4.90577523E-10
   20.0000000      -2.31445618E-09
   20.0400009      -3.27993610E-09
   20.0799999      -3.36726957E-09
   20.1200008      -2.69237255E-09
   20.1599998      -1.53061031E-09
   20.2000008      -2.18114360E-10
   20.2399998       8.87592000E-10
   20.2800007       1.46514589E-09
   20.3199997       1.39223022E-09
   20.3600006       7.47512052E-10
   20.3999996      -2.64596928E-10
   20.4400005      -1.34784517E-09
   20.4799995      -2.18318363E-09
   20.5200005      -2.47806198E-09
   20.5599995      -2.16024043E-09
   20.6000004      -1.27555255E-09
   20.6399994      -8.18818624E-11
   20.6800003       9.99958893E-10
   20.7199993       1.51696100E-09
   20.7600002       1.05752329E-09
   20.7999992      -6.01156291E-10
   20.8400002      -3.43957263E-09
   20.8799992      -7.16563964E-09
   20.9200001      -1.12809655E-08
   20.9599991      -1.50698014E-08
   21.0000000      -1.77419324E-08
   21.0400009      -1.86018347E-08
   21.0799999      -1.71987313E-08
   21.1200008      -1.33612161E-08
   21.1599998      -7.33795336E-09
   21.2000008       2.73821632E-10
   21.2399998       8.63876259E-09
   21.2800007       1.67199996E-08
   21.3199997       2.34999451E-08
   21.3600006       2.80915717E-08
   21.3999996       2.99861327E-08
   21.4400005       2.90180093E-08
   21.4799995       2.54776324E-08
   21.5200005       1.99826165E-08
   21.5599995       1.34571225E-08
   21.6000004       6.91399871E-09
   21.6399994       1.32707256E-09
   21.6800003      -2.55156585E-09
   21.7199993      -4.26073532E-09
   21.7600002      -3.73689435E-09
   21.7999992      -1.25630129E-09
   21.8400002       2.54793409E-09
   21.8799992       6.84447476E-09
   21.9200001       1.07597442E-08
   21.9599991       1.35003653E-08
   22.0000000       1.44791565E-08
   22.0400009       1.33861304E-08
   22.0799999       1.02833333E-08
   22.1200008       5.53796564E-09
   22.1599998      -1.91179850E-10
   22.2000008      -6.12480333E-09
   22.2399998      -1.14137952E-08
   22.2800007      -1.53049129E-08
   22.3199997      -1.72737824E-08
   22.3600006      -1.70550525E-08
   22.3999996      -1.46938310E-08
   22.4400005      -1.04934141E-08
   22.4799995      -5.00540454E-09
   22.5200005       1.08315212E-09
   22.5599995       7.03156910E-09
   22.6000004       1.21353265E-08
   22.6399994       1.58309135E-08
   22.6800003       1.77715442E-08
   22.7199993       1.78330595E-08
   22.7600002       1.61497784E-08
   22.7999992       1.30357014E-08
   22.8400002       8.97878749E-09
   22.8799992       4.53586857E-09
   22.9200001       2.60407779E-10
   22.9599991      -3.35663808E-09
   23.0000000      -5.96256733E-09
   23.0400009      -7.36270156E-09
   23.0799999      -7.55032659E-09
   23.1200008      -6.67782984E-09
   23.1599998      -5.02225106E-09
   23.2000008      -2.93479085E-09
   23.2399998      -7.94841470E-10
   23.2800007       1.06665676E-09
   23.3199997       2.39341591E-09
   23.3600006       3.04419800E-09
   23.3999996       3.00517011E-09
   23.4400005       2.37410158E-09
   23.4799995       1.32403333E-09
   23.5200005       7.21752380E-11
   23.5599995      -1.17567178E-09
   23.6000004      -2.25508856E-09
   23.6399994      -3.06376657E-09
   23.6800003      -3.57254892E-09
   23.7199993      -3.81279364E-09
   23.7600002      -3.84343313E-09
   23.7999992      -3.71927045E-09
   23.8400002      -3.47153217E-09
   23.8799992      -3.08299342E-09
   23.9200001      -2.48943288E-09
   23.9599991      -1.59450053E-09
   24.0000000      -3.04768211E-10
   24.0400009       1.42389955E-09
   24.0799999       3.54904928E-09
   24.1200008       5.92180216E-09
   24.1599998       8.27883273E-09
   24.2000008       1.02759428E-08
   24.2399998       1.15377130E-08
   24.2800007       1.17284751E-08
   24.3199997       1.06264038E-08
   24.3600006       8.18368573E-09
   24.3999996       4.56783766E-09
   24.4400005       1.65812086E-10
   24.4799995      -4.45917570E-09
   24.5200005      -8.64063754E-09
   24.5599995      -1.17159118E-08
   24.6000004      -1.31355611E-08
   24.6399994      -1.25667832E-08
   24.6800003      -9.96873251E-09
   24.7199993      -5.60922420E-09
   24.7600002      -4.12905231E-11
   24.7999992       5.96943739E-09
   24.8400002       1.15682370E-08
   24.8799992       1.59460249E-08
   24.9200001       1.84744255E-08
   24.9599991       1.88023144E-08
   25.0000000       1.69147913E-08
   25.0400009       1.31259981E-08
   25.0799999       8.02669931E-09
   25.1200008       2.37453968E-09
   25.1599998      -3.02950220E-09
   25.2000008      -7.46668505E-09
   25.2399998      -1.04224984E-08
   25.2800007      -1.16467804E-08
   25.3199997      -1.11707052E-08
   25.3600006      -9.28043775E-09
   25.3999996      -6.44120979E-09
   25.4400005      -3.20555427E-09
   25.4799995      -1.05703585E-10
   25.5200005       2.43374010E-09
   25.5599995       4.14460155E-09
   25.6000004       4.94394525E-09
   25.6399994       4.91044938E-09
   25.6800003       4.23561231E-09
   25.7199993       3.17208548E-09
   25.7600002       1.95565542E-09
   25.7999992       7.71909536E-10
   25.8400002      -2.85249990E-10
   25.8799992      -1.20060639E-09
   25.9200001      -2.02005057E-09
   25.9599991      -2.81105672E-09
   26.0000000      -3.63057562E-09
   26.0400009      -4.49083659E-09
   26.0799999      -5.34008260E-09
   26.1200008      -6.06971629E-09
   26.1599998      -6.55565291E-09
   26.2000008      -6.67653666E-09
   26.2399998      -6.37132214E-09
   26.2800007      -5.65255087E-09
   26.3199997      -4.61453320E-09
   26.3600006      -3.41801343E-09
   26.3999996      -2.25122854E-09
   26.4400005      -1.28899336E-09
   26.4799995      -6.47350284E-10
   26.5200005      -3.48022944E-10
   26.5599995      -3.03739700E-10
   26.6000004      -3.29714450E-10
   26.6399994      -1.87225263E-10
   26.6800003       3.58944235E-10
   26.7199993       1.47976420E-09
   26.7600002       3.22105720E-09
   26.7999992       5.48236523E-09
   26.8400002       8.01557221E-09
   26.8799992       1.04571152E-08
   26.9200001       1.23906796E-08
   26.9599991       1.34291200E-08
   27.0000000       1.32832154E-08
   27.0400009       1.18329462E-08
   27.0799999       9.15438747E-09
   27.1200008       5.51468116E-09
   27.1599998       1.32174249E-09
   27.2000008      -2.93369662E-09
   27.2399998      -6.77761447E-09
   27.2800007      -9.81553772E-09
   27.3199997      -1.17985675E-08
   27.3600006      -1.26563231E-08
   27.3999996      -1.24804389E-08
   27.4400005      -1.14980017E-08
   27.4799995      -1.00046460E-08
   27.5200005      -8.29783708E-09
   27.5599995      -6.62803679E-09
   27.6000004      -5.14600051E-09
   27.6399994      -3.91120780E-09
   27.6800003      -2.90300228E-09
   27.7199993      -2.06895656E-09
   27.7600002      -1.36158562E-09
   27.7999992      -7.80028930E-10
   27.8400002      -3.85557669E-10
   27.8799992      -2.99626407E-10
   27.9200001      -6.61165678E-10
   27.9599991      -1.58577351E-09
   28.0000000      -3.11137049E-09
   28.0400009      -5.13713072E-09
   28.0799999      -7.42440909E-09
   28.1200008      -9.61317959E-09
   28.1599998      -1.12741771E-08
   28.2000008      -1.19971979E-08
   28.2399998      -1.14865157E-08
   28.2800007      -9.63919700E-09
   28.3199997      -6.60056187E-09
   28.3600006      -2.77379852E-09
   28.3999996       1.25441635E-09
   28.4400005       4.78997775E-09
   28.4799995       7.16545046E-09
   28.5200005       7.87826249E-09
   28.5599995       6.71527189E-09
   28.6000004       3.80313425E-09
   28.6399994      -3.87002014E-10
   28.6800003      -5.13228926E-09
   28.7199993      -9.54868895E-09
   28.7600002      -1.27797026E-08
   28.7999992      -1.41633629E-08
   28.8400002      -1.33646116E-08
   28.8799992      -1.04601634E-08
   28.9200001      -5.92063820E-09
   28.9599991      -5.30409050E-10
   29.0000000       4.74905848E-09
   29.0400009       8.98999719E-09
   29.0799999       1.14498189E-08
   29.1200008       1.17487851E-08
   29.1599998       9.92063764E-09
   29.2000008       6.40508890E-09
   29.2399998       1.95504923E-09
   29.2800007      -2.51796628E-09
   29.3199997      -6.13533846E-09
   29.3600006      -8.24111979E-09
   29.3999996      -8.52294857E-09
   29.4400005      -7.07071068E-09
   29.4799995      -4.34486180E-09