  -4.80000019       0.00000000
  -4.76000023       0.00000000
  -4.71999979       0.00000000
  -4.67999983       0.00000000
  -4.63999987       0.00000000
  -4.59999990       0.00000000
  -4.55999994       0.00000000
  -4.51999998       0.00000000
  -4.48000002       0.00000000
  -4.44000006       1.70014006E-28
  -4.40000010       2.89493271E-27
  -4.36000013       2.55015250E-26
  -4.32000017       1.54276184E-25
  -4.28000021       7.17742827E-25
  -4.23999977       2.72498845E-24
  -4.19999981       8.74155702E-24
  -4.15999985       2.41867877E-23
  -4.11999989       5.83152802E-23
  -4.07999992       1.22516182E-22
  -4.03999996       2.20907332E-22
  -4.00000000       3.25259620E-22
  -3.96000004       3.25438369E-22
  -3.92000008      -4.76949090E-23
  -3.88000011      -1.31159594E-21
  -3.83999991      -4.28243601E-21
  -3.79999995      -9.98412008E-21
  -3.75999999      -1.92627375E-20
  -3.72000003      -3.19402352E-20
  -3.68000007      -4.54242873E-20
  -3.64000010      -5.29371778E-20
  -3.59999990      -4.19768699E-20
  -3.55999994       5.75831080E-21
  -3.51999998       1.11140207E-19
  -3.48000002       2.88994650E-19
  -3.44000006       5.32675518E-19
  -3.40000010       7.92543717E-19
  -3.35999990       9.53057029E-19
  -3.31999993       8.18812647E-19
  -3.27999997       1.25946598E-19
  -3.24000001      -1.40072097E-18
  -3.20000005      -3.92625331E-18
  -3.16000009      -7.31328826E-18
  -3.11999989      -1.08777270E-17
  -3.07999992      -1.31505521E-17
  -3.03999996      -1.17517765E-17
  -3.00000000      -3.52615680E-18
  -2.96000004       1.48908028E-17
  -2.92000008       4.59400528E-17
  -2.88000011       8.94106274E-17
  -2.83999991       1.40284935E-16
  -2.79999995       1.86605527E-16
  -2.75999999       2.08126279E-16
  -2.72000003       1.76777126E-16
  -2.68000007       6.00657467E-17
  -2.64000010      -1.71678464E-16
  -2.59999990      -5.33964011E-16
  -2.55999994      -1.01358048E-15
  -2.51999998      -1.55325058E-15
  -2.48000002      -2.03962230E-15
  -2.44000006      -2.30017260E-15
  -2.40000010      -2.11518103E-15
  -2.35999990      -1.25003788E-15
  -2.31999993       4.89735815E-16
  -2.27999997       3.18347063E-15
  -2.24000001       6.70998029E-15
  -2.20000005       1.06692346E-14
  -2.16000009       1.43353059E-14
  -2.11999989       1.66683785E-14
  -2.07999992       1.64115683E-14
  -2.03999996       1.22884533E-14
  -2.00000000       3.29899766E-15
  -1.96000004      -1.09142287E-14
  -1.91999996      -2.96872580E-14
  -1.88000000      -5.10288291E-14
  -1.84000003      -7.14909157E-14
  -1.79999995      -8.63191625E-14
  -1.75999999      -8.99615872E-14
  -1.72000003      -7.69606818E-14
  -1.67999995      -4.31741570E-14
  -1.63999999       1.28261939E-14
  -1.60000002       8.84239920E-14
  -1.55999994       1.76014666E-13
  -1.51999998       2.62792473E-13
  -1.48000002       3.31565965E-13
  -1.44000006       3.62772854E-13
  -1.39999998       3.37657799E-13
  -1.36000001       2.42312653E-13
  -1.32000005       7.19974278E-14
  -1.27999997      -1.65076245E-13
  -1.24000001      -4.45448908E-13
  -1.20000005      -7.30514987E-13
  -1.15999997      -9.69688956E-13
  -1.12000000      -1.10684563E-12
  -1.08000004      -1.08961950E-12
  -1.03999996      -8.80441445E-13
  -1.00000000      -4.67542238E-13
 -0.959999979       1.26298088E-13
 -0.920000017       8.39568053E-13
 -0.879999995       1.57435837E-12
 -0.839999974       2.20630263E-12
 -0.800000012       2.60193234E-12
 -0.759999990       2.64170673E-12
 -0.720000029       2.24545317E-12
 -0.680000007       1.39574029E-12
 -0.639999986       1.54163005E-13
 -0.600000024      -1.33413907E-12
 -0.560000002      -2.85102454E-12
 -0.519999981      -4.13194002E-12
 -0.479999989      -4.90656040E-12
 -0.439999998      -4.94831433E-12
 -0.400000006      -4.12491872E-12
 -0.360000014      -2.44034719E-12
 -0.319999993      -5.86120643E-14
 -0.280000001       2.69847924E-12
 -0.239999995       5.38372775E-12
 -0.200000003       7.48614018E-12
 -0.159999996       8.51497779E-12
 -0.119999997       8.09410872E-12
  -7.99999982E-02   6.05062962E-12
  -3.99999991E-02   2.48031240E-12
   2.77555756E-16  -2.22581524E-12
   3.99999991E-02  -7.40446680E-12
   7.99999982E-02  -1.21956759E-11
  0.119999997      -1.56646553E-11
  0.159999996      -1.69543286E-11
  0.200000003      -1.54454175E-11
  0.239999995      -1.08968130E-11
  0.280000001      -3.53947774E-12
  0.319999993       5.89755588E-12
  0.360000014       1.62406703E-11
  0.400000006       2.60035361E-11
  0.439999998       3.35827026E-11
  0.479999989       3.74904344E-11
  0.519999981       3.65903315E-11
  0.560000002       3.02990376E-11
  0.600000024       1.87213283E-11
  0.639999986       2.69545475E-12
  0.680000007      -1.62605502E-11
  0.720000029      -3.60958555E-11
  0.759999990      -5.44474708E-11
  0.800000012      -6.89050969E-11
  0.839999974      -7.72863995E-11
  0.879999995      -7.78906106E-11
  0.920000017      -6.97051236E-11
  0.959999979      -5.25491768E-11
   1.00000000      -2.71484848E-11
   1.03999996       4.85819197E-12
   1.08000004       4.09767636E-11
   1.12000000       7.79775550E-11
   1.15999997       1.12079603E-10
   1.20000005       1.39206799E-10
   1.24000001       1.55324184E-10
   1.27999997       1.56857041E-10
   1.32000005       1.41180248E-10
   1.36000001       1.07141809E-10
   1.39999998       5.55568438E-11
   1.44000006      -1.04187475E-11
   1.48000002      -8.51414494E-11
   1.51999998      -1.60664745E-10
   1.55999994      -2.27331973E-10
   1.60000002      -2.74800654E-10
   1.63999999      -2.93443714E-10
   1.67999995      -2.75983625E-10
   1.72000003      -2.19130644E-10
   1.75999999      -1.24933383E-10
   1.79999995      -1.53124995E-12
   1.84000003       1.36963746E-10
   1.88000000       2.71627720E-10
   1.91999996       3.80943083E-10
   1.96000004       4.43895531E-10
   2.00000000       4.43571846E-10
   2.03999996       3.70714071E-10
   2.07999992       2.26590288E-10
   2.11999989       2.45506983E-11
   2.16000009      -2.10235357E-10
   2.20000005      -4.43121068E-10
   2.24000001      -6.34330644E-10
   2.27999997      -7.44870554E-10
   2.31999993      -7.43210049E-10
   2.35999990      -6.11685425E-10
   2.40000010      -3.51476098E-10
   2.44000006       1.49015331E-11
   2.48000002       4.44346782E-10
   2.51999998       8.77463435E-10
   2.55999994       1.24609756E-09
   2.59999990       1.48323520E-09
   2.64000010       1.53386470E-09
   2.68000007       1.36508516E-09
   2.72000003       9.73694458E-10
   2.75999999       3.89746402E-10
   2.79999995      -3.24893751E-10
   2.83999991      -1.08319542E-09
   2.88000011      -1.78415172E-09
   2.92000008      -2.32702457E-09
   2.96000004      -2.62653299E-09
   3.00000000      -2.62656474E-09
   3.03999996      -2.31007791E-09
   3.07999992      -1.70336900E-09
   3.11999989      -8.73729089E-10
   3.16000009       7.94151689E-11
   3.20000005       1.03867104E-09
   3.24000001       1.88599603E-09
   3.27999997       2.52037458E-09
   3.31999993       2.87291568E-09
   3.35999990       2.91677837E-09
   3.40000010       2.67016853E-09
   3.44000006       2.19181606E-09
   3.48000002       1.56965652E-09
   3.51999998       9.04666120E-10
   3.55999994       2.92710939E-10
   3.59999990      -1.92325197E-10
   3.64000010      -5.11037324E-10
   3.68000007      -6.64280186E-10
   3.72000003      -6.91094959E-10
   3.75999999      -6.59093335E-10
   3.79999995      -6.49038601E-10
   3.83999991      -7.36505634E-10
   3.88000011      -9.74127001E-10
   3.92000008      -1.37791845E-09
   3.96000004      -1.92049443E-09
   4.00000000      -2.53275090E-09
   4.03999996      -3.11401860E-09
   4.07999992      -3.54907059E-09
   4.11999989      -3.72899933E-09
   4.15999985      -3.57213659E-09
   4.19999981      -3.04104297E-09
   4.23999977      -2.15220775E-09
   4.28000021      -9.76346115E-10
   4.32000017       3.71105535E-10
   4.36000013       1.74787385E-09
   4.40000010       3.00806802E-09
   4.44000006       4.02659150E-09
   4.48000002       4.72025041E-09
   4.51999998       5.06154096E-09
   4.55999994       5.08233500E-09
   4.59999990       4.86649165E-09
   4.63999987       4.53243576E-09
   4.67999983       4.20866453E-09
   4.71999979       4.00652533E-09
   4.76000023       3.99526456E-09
   4.80000019       4.18409529E-09
   4.84000015       4.51489646E-09
   4.88000011       4.86736074E-09
   4.92000008       5.07622833E-09
   4.96000004       4.95809083E-09
   5.00000000       4.34351666E-09
   5.03999996       3.10922954E-09
   5.07999992       1.20498089E-09
   5.11999989      -1.32938838E-09
   5.15999985      -4.35956338E-09
   5.19999981      -7.66577379E-09
   5.23999977      -1.09636868E-08
   5.28000021      -1.39336906E-08
   5.32000017      -1.62537734E-08
   5.36000013      -1.76307804E-08
   5.40000010      -1.78253874E-08
   5.44000006      -1.66674496E-08
   5.48000002      -1.40604097E-08
   5.51999998      -9.97555993E-09
   5.55999994      -4.43890391E-09
   5.59999990       2.48528154E-09
   5.63999987       1.07096199E-08
   5.67999983       2.01334540E-08
   5.71999979       3.06446388E-08
   5.76000023       4.21125534E-08
   5.80000019       5.43738814E-08
   5.84000015       6.72146925E-08
   5.88000011       8.03536579E-08
   5.92000008       9.34315523E-08
   5.96000004       1.06011562E-07
   6.00000000       1.17592911E-07
   6.03999996       1.27637733E-07
   6.07999992       1.35608019E-07
   6.11999989       1.41007192E-07
   6.15999985       1.43417779E-07
   6.19999981       1.42527398E-07
   6.23999977       1.38134325E-07
   6.28000021       1.30127717E-07
   6.32000017       1.18439452E-07
   6.36000013       1.02969942E-07
   6.40000010       8.34938660E-08
   6.44000006       5.95551981E-08
   6.48000002       3.03631502E-08
   6.51999998      -5.29935118E-09
   6.55999994      -4.91453029E-08
   6.59999990      -1.03425940E-07
   6.63999987      -1.70945029E-07
   6.67999983      -2.55053095E-07
   6.71999979      -3.59631002E-07
   6.76000023      -4.89082595E-07
   6.80000019      -6.48352966E-07
   6.84000015      -8.42991540E-07
   6.88000011      -1.07927724E-06
   6.92000008      -1.36441156E-06
   6.96000004      -1.70678356E-06
   7.00000000      -2.11630004E-06
   7.03999996      -2.60476463E-06
   7.07999992      -3.18628895E-06
   7.11999989      -3.87770979E-06
   7.15999985      -4.69899442E-06
   7.19999981      -5.67361303E-06
   7.23999977      -6.82887958E-06
   7.28000021      -8.19624620E-06
   7.32000017      -9.81158246E-06
   7.36000013      -1.17154414E-05
   7.40000010      -1.39533649E-05
   7.44000006      -1.65762322E-05
   7.48000002      -1.96407091E-05
   7.51999998      -2.32098046E-05
   7.55999994      -2.73535479E-05
   7.59999990      -3.21498082E-05
   7.63999987      -3.76852222E-05
   7.67999983      -4.40562253E-05
   7.71999979      -5.13701780E-05
   7.76000023      -5.97464714E-05
   7.80000019      -6.93176989E-05
   7.84000015      -8.02307550E-05
   7.88000011      -9.26478679E-05
   7.92000008      -1.06747568E-04
   7.96000004      -1.22725527E-04
   8.00000000      -1.40795251E-04
   8.03999996      -1.61188698E-04
   8.07999992      -1.84156539E-04
   8.11999989      -2.09968464E-04
   8.15999985      -2.38912980E-04
   8.19999981      -2.71297060E-04
   8.23999977      -3.07445036E-04
   8.27999973      -3.47697642E-04
   8.31999969      -3.92409624E-04
   8.35999966      -4.41947515E-04
   8.39999962      -4.96685971E-04
   8.43999958      -5.57003485E-04
   8.47999954      -6.23277621E-04
   8.52000046      -6.95878814E-04
   8.56000042      -7.75163702E-04
   8.60000038      -8.61467095E-04
   8.64000034      -9.55094059E-04
   8.68000031      -1.05631026E-03
   8.72000027      -1.16533227E-03
   8.76000023      -1.28231756E-03
   8.80000019      -1.40735367E-03
   8.84000015      -1.54044770E-03
   8.88000011      -1.68151467E-03
   8.92000008      -1.83036749E-03
   8.96000004      -1.98670593E-03
   9.00000000      -2.15010671E-03
   9.03999996      -2.32001534E-03
   9.07999992      -2.49573612E-03
   9.11999989      -2.67642736E-03
   9.15999985      -2.86109559E-03
   9.19999981      -3.04859225E-03
   9.23999977      -3.23761371E-03
   9.27999973      -3.42670130E-03
   9.31999969      -3.61424848E-03
   9.35999966      -3.79850529E-03
   9.39999962      -3.97759024E-03
   9.43999958      -4.14950447E-03
   9.47999954      -4.31214552E-03
   9.52000046      -4.46333038E-03
   9.56000042      -4.60081408E-03
   9.60000038      -4.72231722E-03
   9.64000034      -4.82555339E-03
   9.68000031      -4.90825484E-03
   9.72000027      -4.96821012E-03
   9.76000023      -5.00328979E-03
   9.80000019      -5.01148403E-03
   9.84000015      -4.99093486E-03
   9.88000011      -4.93996870E-03
   9.92000008      -4.85713035E-03
   9.96000004      -4.74121282E-03
   10.0000000      -4.59128805E-03
   10.0400000      -4.40673064E-03
   10.0799999      -4.18724446E-03
   10.1199999      -3.93287884E-03
   10.1599998      -3.64404474E-03
   10.1999998      -3.32152611E-03
   10.2399998      -2.96648382E-03
   10.2799997      -2.58045550E-03
   10.3199997      -2.16534920E-03
   10.3599997      -1.72343291E-03
   10.3999996      -1.25731668E-03
   10.4399996      -7.69930019E-04
   10.4799995      -2.64494360E-04
   10.5200005       2.55509833E-04
   10.5600004       7.86380144E-04
   10.6000004       1.32423313E-03
   10.6400003       1.86504878E-03
   10.6800003       2.40471750E-03
   10.7200003       2.93908897E-03
   10.7600002       3.46402195E-03
   10.8000002       3.97543516E-03
   10.8400002       4.46935603E-03
   10.8800001       4.94197011E-03
   10.9200001       5.38966805E-03
   10.9600000       5.80908684E-03
   11.0000000       6.19715080E-03
   11.0400000       6.55110693E-03
   11.0799999       6.86855242E-03
   11.1199999       7.14746257E-03
   11.1599998       7.38620665E-03
   11.1999998       7.58356089E-03
   11.2399998       7.73871504E-03
   11.2799997       7.85127282E-03
   11.3199997       7.92124122E-03
   11.3599997       7.94902537E-03
   11.3999996       7.93540571E-03
   11.4399996       7.88151938E-03
   11.4799995       7.78882904E-03
   11.5200005       7.65909581E-03
   11.5600004       7.49434344E-03
   11.6000004       7.29682157E-03
   11.6400003       7.06896884E-03
   11.6800003       6.81337249E-03
   11.7200003       6.53272960E-03
   11.7600002       6.22980762E-03
   11.8000002       5.90740703E-03
   11.8400002       5.56832179E-03
   11.8800001       5.21531096E-03
   11.9200001       4.85106185E-03
   11.9600000       4.47816821E-03
   12.0000000       4.09910223E-03
   12.0400000       3.71619919E-03
   12.0799999       3.33164027E-03
   12.1199999       2.94744386E-03
   12.1599998       2.56545842E-03
   12.1999998       2.18736148E-03
   12.2399998       1.81465992E-03
   12.2799997       1.44869660E-03
   12.3199997       1.09065708E-03
   12.3599997       7.41580618E-04
   12.3999996       4.02372360E-04
   12.4399996       7.38173476E-05
   12.4799995      -2.43404778E-04
   12.5200005      -5.48704353E-04
   12.5600004      -8.41566420E-04
   12.6000004      -1.12153566E-03
   12.6400003      -1.38820254E-03
   12.6800003      -1.64119049E-03
   12.7200003      -1.88014400E-03
   12.7600002      -2.10472057E-03
   12.8000002      -2.31458247E-03
   12.8400002      -2.50939326E-03
   12.8800001      -2.68881372E-03
   12.9200001      -2.85250414E-03
   12.9600000      -3.00012599E-03
   13.0000000      -3.13134538E-03
   13.0400000      -3.24584311E-03
   13.0799999      -3.34332068E-03
   13.1199999      -3.42351035E-03
   13.1599998      -3.48618743E-03
   13.1999998      -3.53117986E-03
   13.2399998      -3.55838030E-03
   13.2799997      -3.56775639E-03
   13.3199997      -3.55936191E-03
   13.3599997      -3.53334448E-03
   13.3999996      -3.48995533E-03
   13.4399996      -3.42955347E-03
   13.4799995      -3.35261063E-03
   13.5200005      -3.25971493E-03
   13.5600004      -3.15156975E-03
   13.6000004      -3.02899280E-03
   13.6400003      -2.89291213E-03
   13.6800003      -2.74436059E-03
   13.7200003      -2.58446764E-03
   13.7600002      -2.41445052E-03
   13.8000002      -2.23560282E-03
   13.8400002      -2.04928266E-03
   13.8800001      -1.85689807E-03
   13.9200001      -1.65989425E-03
   13.9600000      -1.45973777E-03
   14.0000000      -1.25790236E-03
   14.0400000      -1.05585426E-03
   14.0799999      -8.55037535E-04
   14.1199999      -6.56861637E-04
   14.1599998      -4.62688506E-04
   14.1999998      -2.73821817E-04
   14.2399998      -9.14974589E-05
   14.2799997       8.31246070E-05
   14.3199997       2.48966826E-04
   14.3599997       4.05039202E-04
   14.3999996       5.50442608E-04
   14.4399996       6.84371451E-04
   14.4799995       8.06114462E-04
   14.5200005       9.15055047E-04
   14.5600004       1.01067021E-03
   14.6000004       1.09253009E-03
   14.6400003       1.16029521E-03
   14.6800003       1.21371530E-03
   14.7200003       1.25262747E-03
   14.7600002       1.27695350E-03
   14.8000002       1.28669955E-03
   14.8400002       1.28195446E-03
   14.8800001       1.26288983E-03
   14.9200001       1.22976024E-03
   14.9600000       1.18290470E-03
   15.0000000       1.12274860E-03
   15.0400000       1.04980567E-03
   15.0799999       9.64682142E-04
   15.1199999       8.68079485E-04
   15.1599998       7.60798110E-04
   15.1999998       6.43740408E-04
   15.2399998       5.17913431E-04
   15.2799997       3.84430197E-04
   15.3199997       2.44510011E-04
   15.3599997       9.94766451E-05
   15.3999996      -4.92451873E-05
   15.4399996      -2.00135662E-04
   15.4799995      -3.51588154E-04
   15.5200005      -5.01920120E-04
   15.5600004      -6.49386668E-04
   15.6000004      -7.92196719E-04
   15.6400003      -9.28531867E-04
   15.6800003      -1.05656788E-03
   15.7200003      -1.17449765E-03
   15.7600002      -1.28055795E-03
   15.8000002      -1.37305586E-03
   15.8400002      -1.45039766E-03
   15.8800001      -1.51111872E-03
   15.9200001      -1.55391195E-03
   15.9600000      -1.57765823E-03
   16.0000000      -1.58145360E-03
   16.0400009      -1.56463520E-03
   16.0799999      -1.52680534E-03
   16.1200008      -1.46785122E-03
   16.1599998      -1.38796202E-03
   16.2000008      -1.28763984E-03
   16.2399998      -1.16770656E-03
   16.2800007      -1.02930563E-03
   16.3199997      -8.73897108E-04
   16.3600006      -7.03247264E-04
   16.3999996      -5.19412162E-04
   16.4400005      -3.24715133E-04
   16.4799995      -1.21718891E-04
   16.5200005       8.68085117E-05
   16.5599995       2.97931954E-04
   16.6000004       5.08592464E-04
   16.6399994       7.15653994E-04
   16.6800003       9.15953191E-04
   16.7199993       1.10635173E-03
   16.7600002       1.28378940E-03
   16.7999992       1.44533790E-03
   16.8400002       1.58825342E-03
   16.8799992       1.71002862E-03
   16.9200001       1.80844089E-03
   16.9599991       1.88159721E-03
   17.0000000       1.92797522E-03
   17.0400009       1.94645813E-03
   17.0799999       1.93636422E-03
   17.1200008       1.89746951E-03
   17.1599998       1.83002278E-03
   17.2000008       1.73475419E-03
   17.2399998       1.61287549E-03
   17.2800007       1.46607275E-03
   17.3199997       1.29649148E-03
   17.3600006       1.10671425E-03
   17.3999996       8.99731764E-04
   17.4400005       6.78907323E-04
   17.4799995       4.47935075E-04
   17.5200005       2.10793703E-04
   17.5599995      -2.83043191E-05
   17.6000004      -2.64967093E-04
   17.6399994      -4.94680076E-04
   17.6800003      -7.12864974E-04
   17.7199993      -9.14938573E-04
   17.7600002      -1.09637296E-03
   17.7999992      -1.25275331E-03
   17.8400002      -1.37983484E-03
   17.8799992      -1.47359807E-03
   17.9200001      -1.53029943E-03
   17.9599991      -1.54651911E-03
   18.0000000      -1.51920517E-03
   18.0400009      -1.44571252E-03
   18.0799999      -1.32383662E-03
   18.1200008      -1.15184358E-03
   18.1599998      -9.28493275E-04
   18.2000008      -6.53058873E-04
   18.2399998      -3.25340457E-04
   18.2800007       5.43262031E-05
   18.3199997       4.85065655E-04
   18.3600006       9.65463580E-04
   18.3999996       1.49357156E-03
   18.4400005       2.06691655E-03
   18.4799995       2.68251495E-03
   18.5200005       3.33688757E-03
   18.5599995       4.02608328E-03
   18.6000004       4.74570040E-03
   18.6399994       5.49091585E-03
   18.6800003       6.25651423E-03
   18.7199993       7.03692203E-03
   18.7600002       7.82624353E-03
   18.7999992       8.61829985E-03
   18.8400002       9.40666720E-03
   18.8799992       1.01847285E-02
   18.9200001       1.09457085E-02
   18.9599991       1.16827339E-02
   19.0000000       1.23888776E-02
   19.0400009       1.30572114E-02
   19.0799999       1.36808660E-02
   19.1200008       1.42530827E-02
   19.1599998       1.47672771E-02
   19.2000008       1.52170928E-02
   19.2399998       1.55964661E-02
   19.2800007       1.58996824E-02
   19.3199997       1.61214452E-02
   19.3600006       1.62569247E-02
   19.3999996       1.63018182E-02
   19.4400005       1.62524097E-02
   19.4799995       1.61056146E-02
   19.5200005       1.58590358E-02
   19.5599995       1.55109959E-02
   19.6000004       1.50605822E-02
   19.6399994       1.45076765E-02
   19.6800003       1.38529791E-02
   19.7199993       1.30980248E-02
   19.7600002       1.22451894E-02
   19.7999992       1.12976935E-02
   19.8400002       1.02595910E-02
   19.8799992       9.13575012E-03
   19.9200001       7.93182850E-03
   19.9599991       6.65422995E-03
   20.0000000       5.31006465E-03
   20.0400009       3.90709005E-03
   20.0799999       2.45364918E-03
   20.1200008       9.58598917E-04
   20.1599998      -5.68766729E-04
   20.2000008      -2.11880100E-03
   20.2399998      -3.68159078E-03
   20.2800007      -5.24705090E-03
   20.3199997      -6.80501573E-03
   20.3600006      -8.34533665E-03
   20.3999996      -9.85797402E-03
   20.4400005      -1.13330977E-02
   20.4799995      -1.27611728E-02
   20.5200005      -1.41330473E-02
   20.5599995      -1.54400403E-02
   20.6000004      -1.66740119E-02
   20.6399994      -1.78274363E-02
   20.6800003      -1.88934654E-02
   20.7199993      -1.98659785E-02
   20.7600002      -2.07396317E-02
   20.7999992      -2.15098821E-02
   20.8400002      -2.21730303E-02
   20.8799992      -2.27262154E-02
   20.9200001      -2.31674407E-02
   20.9599991      -2.34955475E-02
   21.0000000      -2.37102285E-02
   21.0400009      -2.38119829E-02
   21.0799999      -2.38021109E-02
   21.1200008      -2.36826539E-02
   21.1599998      -2.34563760E-02
   21.2000008      -2.31266990E-02
   21.2399998      -2.26976592E-02
   21.2800007      -2.21738536E-02
   21.3199997      -2.15603784E-02
   21.3600006      -2.08627637E-02
   21.3999996      -2.00869255E-02
   21.4400005      -1.92390885E-02
   21.4799995      -1.83257442E-02
   21.5200005      -1.73535720E-02
   21.5599995      -1.63294040E-02
   21.6000004      -1.52601535E-02
   21.6399994      -1.41527727E-02
   21.6800003      -1.30142029E-02
   21.7199993      -1.18513275E-02
   21.7600002      -1.06709367E-02
   21.7999992      -9.47968569E-03
   21.8400002      -8.28406028E-03
   21.8799992      -7.09034922E-03
   21.9200001      -5.90461539E-03
   21.9599991      -4.73267352E-03
   22.0000000      -3.58006731E-03
   22.0400009      -2.45205197E-03
   22.0799999      -1.35357864E-03
   22.1200008      -2.89280171E-04
   22.1599998       7.36540649E-04
   22.2000008       1.71992055E-03
   22.2399998       2.65724468E-03
   22.2800007       3.54525400E-03
   22.3199997       4.38105082E-03
   22.3600006       5.16210310E-03
   22.3999996       5.88625157E-03
   22.4400005       6.55170809E-03
   22.4799995       7.15706078E-03
   22.5200005       7.70127447E-03
   22.5599995       8.18368979E-03
   22.6000004       8.60401802E-03
   22.6399994       8.96234438E-03
   22.6800003       9.25911684E-03
   22.7199993       9.49514378E-03
   22.7600002       9.67158005E-03
   22.7999992       9.78991948E-03
   22.8400002       9.85198189E-03
   22.8799992       9.85989626E-03
   22.9200001       9.81608685E-03
   22.9599991       9.72324796E-03
   23.0000000       9.58432537E-03
   23.0400009       9.40248929E-03
   23.0799999       9.18111298E-03
   23.1200008       8.92373826E-03
   23.1599998       8.63404851E-03
   23.2000008       8.31583608E-03
   23.2399998       7.97296595E-03
   23.2800007       7.60934176E-03
   23.3199997       7.22887320E-03
   23.3600006       6.83543738E-03
   23.3999996       6.43284433E-03
   23.4400005       6.02480257E-03
   23.4799995       5.61488420E-03
   23.5200005       5.20649552E-03
   23.5599995       4.80284262E-03
   23.6000004       4.40690899E-03
   23.6399994       4.02142713E-03
   23.6800003       3.64885875E-03
   23.7199993       3.29137617E-03
   23.7600002       2.95084878E-03
   23.7999992       2.62883143E-03
   23.8400002       2.32655951E-03
   23.8799992       2.04494619E-03
   23.9200001       1.78458681E-03
   23.9599991       1.54576369E-03
   24.0000000       1.32845831E-03
   24.0400009       1.13236660E-03
   24.0799999       9.56918055E-04
   24.1200008       8.01298185E-04
   24.1599998       6.64474792E-04
   24.2000008       5.45226212E-04
   24.2399998       4.42172081E-04
   24.2800007       3.53805779E-04
   24.3199997       2.78527819E-04
   24.3600006       2.14679749E-04
   24.3999996       1.60578071E-04
   24.4400005       1.14547343E-04
   24.4799995       7.49522951E-05
   24.5200005       4.02279293E-05
   24.5599995       8.90756655E-06
   24.6000004      -2.03520176E-05
   24.6399994      -4.87484976E-05
   24.6800003      -7.73155552E-05
   24.7199993      -1.06908235E-04
   24.7600002      -1.38192365E-04
   24.7999992      -1.71638239E-04
   24.8400002      -2.07518635E-04
   24.8799992      -2.45910807E-04
   24.9200001      -2.86702998E-04
   24.9599991      -3.29604372E-04
   25.0000000      -3.74158932E-04
   25.0400009      -4.19762509E-04
   25.0799999      -4.65682795E-04
   25.1200008      -5.11081424E-04
   25.1599998      -5.55038685E-04
   25.2000008      -5.96578873E-04
   25.2399998      -6.34697150E-04
   25.2800007      -6.68386579E-04
   25.3199997      -6.96664851E-04
   25.3600006      -7.18600233E-04
   25.3999996      -7.33336667E-04
   25.4400005      -7.40116462E-04
   25.4799995      -7.38301140E-04
   25.5200005      -7.27389415E-04
   25.5599995      -7.07032217E-04
   25.6000004      -6.77044271E-04
   25.6399994      -6.37412479E-04
   25.6800003      -5.88300405E-04
   25.7199993      -5.30049438E-04
   25.7600002      -4.63175937E-04
   25.7999992      -3.88365326E-04
   25.8400002      -3.06462520E-04
   25.8799992      -2.18459492E-04
   25.9200001      -1.25479812E-04
   25.9599991      -2.87607290E-05
   26.0000000       7.03670157E-05
   26.0400009       1.70501196E-04
   26.0799999       2.70191493E-04
   26.1200008       3.67963919E-04
   26.1599998       4.62345633E-04
   26.2000008       5.51890000E-04
   26.2399998       6.35200762E-04
   26.2800007       7.10956112E-04
   26.3199997       7.77930487E-04
   26.3600006       8.35015613E-04
   26.3999996       8.81239015E-04
   26.4400005       9.15780663E-04
   26.4799995       9.37986770E-04
   26.5200005       9.47381370E-04
   26.5599995       9.43674822E-04
   26.6000004       9.26769804E-04
   26.6399994       8.96763697E-04
   26.6800003       8.53948586E-04
   26.7199993       7.98808353E-04
   26.7600002       7.32012093E-04
   26.7999992       6.54405623E-04
   26.8400002       5.66999312E-04
   26.8799992       4.70954314E-04
   26.9200001       3.67565313E-04
   26.9599991       2.58242391E-04
   27.0000000       1.44490434E-04
   27.0400009       2.78874013E-05
   27.0799999      -8.99384468E-05
   27.1200008      -2.07332123E-04
   27.1599998      -3.22635839E-04
   27.2000008      -4.34212765E-04
   27.2399998      -5.40470995E-04
   27.2800007      -6.39886537E-04
   27.3199997      -7.31025357E-04
   27.3600006      -8.12564802E-04
   27.3999996      -8.83312896E-04
   27.4400005      -9.42226266E-04
   27.4799995      -9.88425687E-04
   27.5200005      -1.02120941E-03
   27.5599995      -1.04006391E-03
   27.6000004      -1.04467152E-03
   27.6399994      -1.03491498E-03
   27.6800003      -1.01087964E-03
   27.7199993      -9.72851587E-04
   27.7600002      -9.21313127E-04
   27.7999992      -8.56935629E-04
   27.8400002      -7.80569098E-04
   27.8799992      -6.93229144E-04
   27.9200001      -5.96081954E-04
   27.9599991      -4.90426668E-04
   28.0000000      -3.77675897E-04
   28.0400009      -2.59334600E-04
   28.0799999      -1.36977702E-04
   28.1200008      -1.22263045E-05
   28.1599998       1.13276583E-04
   28.2000008       2.37890723E-04
   28.2399998       3.60003265E-04
   28.2800007       4.78052709E-04
   28.3199997       5.90552052E-04
   28.3600006       6.96110481E-04
   28.3999996       7.93452899E-04
   28.4400005       8.81437736E-04
   28.4799995       9.59071622E-04
   28.5200005       1.02552189E-03
   28.5599995       1.08012615E-03
   28.6000004       1.12239807E-03
   28.6399994       1.15203124E-03
   28.6800003       1.16889947E-03
   28.7199993       1.17305387E-03
   28.7600002       1.16471807E-03
   28.7999992       1.14427914E-03
   28.8400002       1.11227785E-03
   28.8799992       1.06939499E-03
   28.9200001       1.01643626E-03
   28.9599991       9.54315823E-04
   29.0000000       8.84037057E-04
   29.0400009       8.06673022E-04
   29.0799999       7.23346311E-04
   29.1200008       6.35207980E-04
   29.1599998       5.43417118E-04
   29.2000008       4.49120998E-04
   29.2399998       3.53435549E-04
   29.2800007       2.57427804E-04
   29.3199997       1.62099881E-04
   29.3600006       6.83745093E-05
   29.3999996      -2.29170328E-05
   29.4400005      -1.11044850E-04
   29.4799995      -1.95387955E-04