  -4.80000019       0.00000000
  -4.76000023       0.00000000
  -4.71999979       0.00000000
  -4.67999983       0.00000000
  -4.63999987       0.00000000
  -4.59999990       0.00000000
  -4.55999994       0.00000000
  -4.51999998       0.00000000
  -4.48000002       0.00000000
  -4.44000006       0.00000000
  -4.40000010       0.00000000
  -4.36000013       0.00000000
  -4.32000017       5.46506401E-44
  -4.28000021       1.86652955E-42
  -4.23999977       3.00900819E-41
  -4.19999981       3.26379228E-40
  -4.15999985       2.68481639E-39
  -4.11999989       1.79146396E-38
  -4.07999992       1.01109301E-37
  -4.03999996       4.96632148E-37
  -4.00000000       2.16696561E-36
  -3.96000004       8.52965147E-36
  -3.92000008       3.06511329E-35
  -3.88000011       1.01506669E-34
  -3.83999991       3.12160767E-34
  -3.79999995       8.97010739E-34
  -3.75999999       2.42092584E-33
  -3.72000003       6.16285497E-33
  -3.68000007       1.48505036E-32
  -3.64000010       3.39734736E-32
  -3.59999990       7.39659132E-32
  -3.55999994       1.53555521E-31
  -3.51999998       3.04438249E-31
  -3.48000002       5.77036729E-31
  -3.44000006       1.04629708E-30
  -3.40000010       1.81517073E-30
  -3.35999990       3.01165038E-30
  -3.31999993       4.77326201E-30
  -3.27999997       7.21146337E-30
  -3.24000001       1.03486159E-29
  -3.20000005       1.40237116E-29
  -3.16000009       1.77714960E-29
  -3.11999989       2.06942256E-29
  -3.07999992       2.13655566E-29
  -3.03999996       1.78288902E-29
  -3.00000000       7.77112055E-30
  -2.96000004      -1.10435223E-29
  -2.92000008      -4.00189104E-29
  -2.88000011      -7.86550692E-29
  -2.83999991      -1.23271662E-28
  -2.79999995      -1.65787239E-28
  -2.75999999      -1.92973281E-28
  -2.72000003      -1.86724553E-28
  -2.68000007      -1.25908537E-28
  -2.64000010       9.78759779E-30
  -2.59999990       2.33948584E-28
  -2.55999994       5.45952461E-28
  -2.51999998       9.23087437E-28
  -2.48000002       1.31406046E-27
  -2.44000006       1.63606632E-27
  -2.40000010       1.77749910E-27
  -2.35999990       1.60775967E-27
  -2.31999993       9.94537031E-28
  -2.27999997      -1.72196036E-28
  -2.24000001      -1.95091619E-27
  -2.20000005      -4.31519472E-27
  -2.16000009      -7.11617479E-27
  -2.11999989      -1.00393351E-26
  -2.07999992      -1.25542483E-26
  -2.03999996      -1.38609116E-26
  -2.00000000      -1.28485859E-26
  -1.96000004      -8.10425774E-27
  -1.91999996       1.96524280E-27
  -1.88000000       1.88102019E-26
  -1.84000003       4.31244804E-26
  -1.79999995       7.38936857E-26
  -1.75999999       1.07165645E-25
  -1.72000003       1.34790062E-25
  -1.67999995       1.43622371E-25
  -1.63999999       1.15938764E-25
  -1.60000002       3.19587182E-26
  -1.55999994      -1.24732899E-25
  -1.51999998      -3.58588138E-25
  -1.48000002      -6.51085263E-25
  -1.44000006      -9.49606303E-25
  -1.39999998      -1.16030208E-24
  -1.36000001      -1.15057956E-24
  -1.32000005      -7.67335504E-25
  -1.27999997       1.24424763E-25
  -1.24000001       1.58220826E-24
  -1.20000005       3.51285125E-24
  -1.15999997       5.60220813E-24
  -1.12000000       7.27449188E-24
  -1.08000004       7.71508016E-24
  -1.03999996       5.99006303E-24
  -1.00000000       1.28307792E-24
 -0.959999979      -6.75795286E-24
 -0.920000017      -1.76142322E-23
 -0.879999995      -2.95310048E-23
 -0.839999974      -3.93425854E-23
 -0.800000012      -4.26606259E-23
 -0.759999990      -3.45784903E-23
 -0.720000029      -1.09610424E-23
 -0.680000007       2.97662716E-23
 -0.639999986       8.46301528E-23
 -0.600000024       1.44461649E-22
 -0.560000002       1.93315780E-22
 -0.519999981       2.09743574E-22
 -0.479999989       1.70532050E-22
 -0.439999998       5.70663241E-23
 -0.400000006      -1.36290994E-22
 -0.360000014      -3.93378579E-22
 -0.319999993      -6.69526773E-22
 -0.280000001      -8.90191136E-22
 -0.239999995      -9.58168176E-22
 -0.200000003      -7.71621934E-22
 -0.159999996      -2.52926830E-22
 -0.119999997       6.15022619E-22
  -7.99999982E-02   1.75238294E-21
  -3.99999991E-02   2.95689281E-21
   2.77555756E-16   3.90261390E-21
   3.99999991E-02   4.17533066E-21
   7.99999982E-02   3.35208117E-21
  0.119999997       1.12264626E-21
  0.159999996      -2.56278224E-21
  0.200000003      -7.35091338E-21
  0.239999995      -1.23921899E-20
  0.280000001      -1.63481391E-20
  0.319999993      -1.75447399E-20
  0.360000014      -1.42958653E-20
  0.400000006      -5.38264842E-21
  0.439999998       9.37694931E-21
  0.479999989       2.85900018E-20
  0.519999981       4.89497020E-20
  0.560000002       6.52823089E-20
  0.600000024       7.11407962E-20
  0.639999986       6.00235469E-20
  0.680000007       2.71559162E-20
  0.720000029      -2.84114698E-20
  0.759999990      -1.01828706E-19
  0.800000012      -1.81193642E-19
  0.839999974      -2.47674988E-19
  0.879999995      -2.77569657E-19
  0.920000017      -2.46563464E-19
  0.959999979      -1.35982974E-19
   1.00000000       5.97974616E-20
   1.03999996       3.26282763E-19
   1.08000004       6.24131399E-19
   1.12000000       8.88990753E-19
   1.15999997       1.03780499E-18
   1.20000005       9.82586446E-19
   1.24000001       6.51093402E-19
   1.27999997       1.18558214E-20
   1.32000005      -9.01138107E-19
   1.36000001      -1.97052330E-18
   1.39999998      -2.99161201E-18
   1.44000006      -3.68886571E-18
   1.48000002      -3.75655514E-18
   1.51999998      -2.92277714E-18
   1.55999994      -1.02984969E-18
   1.60000002       1.88251873E-18
   1.63999999       5.51064539E-18
   1.67999995       9.25929517E-18
   1.72000003       1.22742370E-17
   1.75999999       1.35491994E-17
   1.79999995       1.21087380E-17
   1.84000003       7.25092959E-18
   1.88000000      -1.18609749E-18
   1.91999996      -1.25880561E-17
   1.96000004      -2.54248338E-17
   2.00000000      -3.72736087E-17
   2.03999996      -4.50559886E-17
   2.07999992      -4.55085160E-17
   2.11999989      -3.58588321E-17
   2.16000009      -1.46236202E-17
   2.20000005       1.76109664E-17
   2.24000001       5.76074453E-17
   2.27999997       9.92892881E-17
   2.31999993       1.34118363E-16
   2.35999990       1.52137824E-16
   2.40000010       1.43666370E-16
   2.44000006       1.01482660E-16
   2.48000002       2.31818425E-17
   2.51999998      -8.67494352E-17
   2.55999994      -2.15670801E-16
   2.59999990      -3.42857761E-16
   2.64000010      -4.41294610E-16
   2.68000007      -4.81334572E-16
   2.72000003      -4.36021697E-16
   2.75999999      -2.87460589E-16
   2.79999995      -3.32293374E-17
   2.83999991       3.08470050E-16
   2.88000011       6.96336204E-16
   2.92000008       1.06743219E-15
   2.96000004       1.34340516E-15
   3.00000000       1.44154557E-15
   3.03999996       1.28982027E-15
   3.07999992       8.43994799E-16
   3.11999989       1.04043181E-16
   3.16000009      -8.73555243E-16
   3.20000005      -1.97110856E-15
   3.24000001      -3.01549468E-15
   3.27999997      -3.79604592E-15
   3.31999993      -4.09422735E-15
   3.35999990      -3.72247433E-15
   3.40000010      -2.56717390E-15
   3.44000006      -6.28759121E-16
   3.48000002       1.94924897E-15
   3.51999998       4.87030900E-15
   3.55999994       7.70044683E-15
   3.59999990       9.91254875E-15
   3.64000010       1.09580559E-14
   3.68000007       1.03594366E-14
   3.72000003       7.81160211E-15
   3.75999999       3.27619829E-15
   3.79999995      -2.94952627E-15
   3.83999991      -1.02070215E-14
   3.88000011      -1.75077831E-14
   3.92000008      -2.36285617E-14
   3.96000004      -2.72675000E-14
   4.00000000      -2.72471543E-14
   4.03999996      -2.27393957E-14
   4.07999992      -1.34784897E-14
   4.11999989       7.59598964E-17
   4.15999985       1.66634844E-14
   4.19999981       3.42643360E-14
   4.23999977       5.02739567E-14
   4.28000021       6.18069371E-14
   4.32000017       6.61051346E-14
   4.36000013       6.10029402E-14
   4.40000010       4.53850722E-14
   4.44000006       1.95619786E-14
   4.48000002      -1.45114108E-14
   4.51999998      -5.32358378E-14
   4.55999994      -9.16243061E-14
   4.59999990      -1.23818558E-13
   4.63999987      -1.43828512E-13
   4.67999983      -1.46417194E-13
   4.71999979      -1.28018757E-13
   4.76000023      -8.75549362E-14
   4.80000019      -2.70100985E-14
   4.84000015       4.83587508E-14
   4.88000011       1.30264086E-13
   4.92000008       2.08113258E-13
   4.96000004       2.70180959E-13
   5.00000000       3.05120594E-13
   5.03999996       3.03642230E-13
   5.07999992       2.60136015E-13
   5.11999989       1.74000164E-13
   5.15999985       5.04433057E-14
   5.19999981      -9.94219288E-14
   5.23999977      -2.59298442E-13
   5.28000021      -4.09237910E-13
   5.32000017      -5.27873914E-13
   5.36000013      -5.95127788E-13
   5.40000010      -5.95069241E-13
   5.44000006      -5.18556118E-13
   5.48000002      -3.65268308E-13
   5.51999998      -1.44793262E-13
   5.55999994       1.23482916E-13
   5.59999990       4.11787791E-13
   5.63999987       6.86618405E-13
   5.67999983       9.12409362E-13
   5.71999979       1.05582231E-12
   5.76000023       1.09015130E-12
   5.80000019       9.99280628E-13
   5.84000015       7.80645568E-13
   5.88000011       4.46739894E-13
   5.92000008       2.48693210E-14
   5.96000004      -4.44937327E-13
   6.00000000      -9.13714200E-13
   6.03999996      -1.32866873E-12
   6.07999992      -1.63905087E-12
   6.11999989      -1.80209580E-12
   6.15999985      -1.78831526E-12
   6.19999981      -1.58547080E-12
   6.23999977      -1.20071650E-12
   6.28000021      -6.60616852E-13
   6.32000017      -9.01259404E-15
   6.36000013       6.97022789E-13
   6.40000010       1.39265368E-12
   6.44000006       2.01153265E-12
   6.48000002       2.49210353E-12
   6.51999998       2.78326255E-12
   6.55999994       2.84880886E-12
   6.59999990       2.67031514E-12
   6.63999987       2.24830181E-12
   6.67999983       1.60182566E-12
   6.71999979       7.66800143E-13
   6.76000023      -2.06530661E-13
   6.80000019      -1.25652559E-12
   6.84000015      -2.31314425E-12
   6.88000011      -3.30083768E-12
   6.92000008      -4.14137214E-12
   6.96000004      -4.75683598E-12
   7.00000000      -5.07321138E-12
   7.03999996      -5.02491278E-12
   7.07999992      -4.56056807E-12
   7.11999989      -3.65004381E-12
   7.15999985      -2.29231391E-12
   7.19999981      -5.23325849E-13
   7.23999977       1.57741116E-12
   7.28000021       3.88308786E-12
   7.32000017       6.22035670E-12
   7.36000013       8.37602210E-12
   7.40000010       1.01105556E-11
   7.44000006       1.11784844E-11
   7.48000002       1.13546325E-11
   7.51999998       1.04640741E-11
   7.55999994       8.41254410E-12
   7.59999990       5.21330461E-12
   7.63999987       1.00610969E-12
   7.67999983      -3.93582432E-12
   7.71999979      -9.21403318E-12
   7.76000023      -1.43298533E-11
   7.80000019      -1.87259323E-11
   7.84000015      -2.18415338E-11
   7.88000011      -2.31766724E-11
   7.92000008      -2.23582333E-11
   7.96000004      -1.91999784E-11
   8.00000000      -1.37480348E-11
   8.03999996      -6.30430300E-12
   8.07999992       2.57783703E-12
   8.11999989       1.21282654E-11
   8.15999985       2.14243744E-11
   8.19999981       2.94800816E-11
   8.23999977       3.53511699E-11
   8.27999973       3.82455977E-11
   8.31999969       3.76257740E-11
   8.35999966       3.32896627E-11
   8.39999962       2.54190037E-11
   8.43999958       1.45863183E-11
   8.47999954       1.71667997E-12
   8.52000046      -1.19941895E-11
   8.56000042      -2.51985828E-11
   8.60000038      -3.65400800E-11
   8.64000034      -4.48055308E-11
   8.68000031      -4.90678019E-11
   8.72000027      -4.88014386E-11
   8.76000023      -4.39557800E-11
   8.80000019      -3.49746308E-11
   8.84000015      -2.27577922E-11
   8.88000011      -8.56667688E-12
   8.92000008       6.11644372E-12
   8.96000004       1.97597945E-11
   9.00000000       3.09637455E-11
   9.03999996       3.86302587E-11
   9.07999992       4.20982693E-11
   9.11999989       4.12265673E-11
   9.15999985       3.64119949E-11
   9.19999981       2.85381736E-11
   9.23999977       1.88595320E-11
   9.27999973       8.83336720E-12
   9.31999969      -7.94549431E-14
   9.35999966      -6.61979195E-12
   9.39999962      -9.91406610E-12
   9.43999958      -9.61087026E-12
   9.47999954      -5.94962361E-12
   9.52000046       2.51349234E-13
   9.56000042       7.68969610E-12
   9.60000038       1.47481350E-11
   9.64000034       1.97185549E-11
   9.68000031       2.10531887E-11
   9.72000027       1.76096152E-11
   9.76000023       8.85521777E-12
   9.80000019      -4.99994967E-12
   9.84000015      -2.29650726E-11
   9.88000011      -4.33367613E-11
   9.92000008      -6.38713180E-11
   9.96000004      -8.20439619E-11
   10.0000000      -9.53647369E-11
   10.0400000      -1.01710682E-10
   10.0799999      -9.96283750E-11
   10.1199999      -8.85620466E-11
   10.1599998      -6.89692192E-11
   10.1999998      -4.22992683E-11
   10.2399998      -1.08280026E-11
   10.2799997       2.26382905E-11
   10.3199997       5.51552345E-11
   10.3599997       8.40778488E-11
   10.3999996       1.07479817E-10
   10.4399996       1.24487351E-10
   10.4799995       1.35466069E-10
   10.5200005       1.42014192E-10
   10.5600004       1.46738885E-10
   10.6000004       1.52822699E-10
   10.6400003       1.63418556E-10
   10.6800003       1.80943344E-10
   10.7200003       2.06364370E-10
   10.7600002       2.38587788E-10
   10.8000002       2.74059525E-10
   10.8400002       3.06675324E-10
   10.8800001       3.28068961E-10
   10.9200001       3.28305827E-10
   10.9600000       2.96960428E-10
   11.0000000       2.24503749E-10
   11.0400000       1.03877074E-10
   11.0799999      -6.79087481E-11
   11.1199999      -2.88333163E-10
   11.1599998      -5.48271817E-10
   11.1999998      -8.31414826E-10
   11.2399998      -1.11432374E-09
   11.2799997      -1.36719425E-09
   11.3199997      -1.55531943E-09
   11.3599997      -1.64117753E-09
   11.3999996      -1.58699642E-09
   11.4399996      -1.35759337E-09
   11.4799995      -9.23258747E-10
   11.5200005      -2.62445038E-10
   11.5600004       6.35953290E-10
   11.6000004       1.77088721E-09
   11.6400003       3.12809534E-09
   11.6800003       4.67969352E-09
   11.7200003       6.38431796E-09
   11.7600002       8.18762302E-09
   11.8000002       1.00228803E-08
   11.8400002       1.18113688E-08
   11.8800001       1.34622331E-08
   11.9200001       1.48715005E-08
   11.9600000       1.59199782E-08
   12.0000000       1.64698548E-08
   12.0400000       1.63598326E-08
   12.0799999       1.53987578E-08
   12.1199999       1.33577238E-08
   12.1599998       9.96065452E-09
   12.1999998       4.87335994E-09
   12.2399998      -2.30899300E-09
   12.2799997      -1.20761880E-08
   12.3199997      -2.50193644E-08
   12.3599997      -4.18499475E-08
   12.3999996      -6.34218651E-08
   12.4399996      -9.07578297E-08
   12.4799995      -1.25080774E-07
   12.5200005      -1.67851638E-07
   12.5600004      -2.20814741E-07
   12.6000004      -2.86052142E-07
   12.6400003      -3.66048425E-07
   12.6800003      -4.63767293E-07
   12.7200003      -5.82741336E-07
   12.7600002      -7.27176143E-07
   12.8000002      -9.02070497E-07
   12.8400002      -1.11335351E-06
   12.8800001      -1.36804022E-06
   12.9200001      -1.67440612E-06
   12.9600000      -2.04218486E-06
   13.0000000      -2.48278570E-06
   13.0400000      -3.00953707E-06
   13.0799999      -3.63795493E-06
   13.1199999      -4.38603911E-06
   13.1599998      -5.27459861E-06
   13.1999998      -6.32760430E-06
   13.2399998      -7.57257840E-06
   13.2799997      -9.04101034E-06
   13.3199997      -1.07688065E-05
   13.3599997      -1.27967787E-05
   13.3999996      -1.51711474E-05
   13.4399996      -1.79440849E-05
   13.4799995      -2.11742772E-05
   13.5200005      -2.49275072E-05
   13.5600004      -2.92772347E-05
   13.6000004      -3.43051943E-05
   13.6400003      -4.01019897E-05
   13.6800003      -4.67676218E-05
   13.7200003      -5.44120448E-05
   13.7600002      -6.31556395E-05
   13.8000002      -7.31295731E-05
   13.8400002      -8.44761598E-05
   13.8800001      -9.73489805E-05
   13.9200001      -1.11913025E-04
   13.9600000      -1.28344502E-04
   14.0000000      -1.46830527E-04
   14.0400000      -1.67568694E-04
   14.0799999      -1.90766135E-04
   14.1199999      -2.16638597E-04
   14.1599998      -2.45409028E-04
   14.1999998      -2.77305779E-04
   14.2399998      -3.12560645E-04
   14.2799997      -3.51406372E-04
   14.3199997      -3.94073781E-04
   14.3599997      -4.40788397E-04
   14.3999996      -4.91766958E-04
   14.4399996      -5.47212956E-04
   14.4799995      -6.07312541E-04
   14.5200005      -6.72229042E-04
   14.5600004      -7.42097793E-04
   14.6000004      -8.17020540E-04
   14.6400003      -8.97059508E-04
   14.6800003      -9.82230878E-04
   14.7200003      -1.07249897E-03
   14.7600002      -1.16776896E-03
   14.8000002      -1.26788102E-03
   14.8400002      -1.37260417E-03
   14.8800001      -1.48162956E-03
   14.9200001      -1.59456569E-03
   14.9600000      -1.71093247E-03
   15.0000000      -1.83015713E-03
   15.0400000      -1.95157086E-03
   15.0799999      -2.07440555E-03
   15.1199999      -2.19779345E-03
   15.1599998      -2.32076528E-03
   15.1999998      -2.44225236E-03
   15.2399998      -2.56109028E-03
   15.2799997      -2.67602107E-03
   15.3199997      -2.78570107E-03
   15.3599997      -2.88870861E-03
   15.3999996      -2.98355427E-03
   15.4399996      -3.06869135E-03
   15.4799995      -3.14253150E-03
   15.5200005      -3.20345862E-03
   15.5600004      -3.24984780E-03
   15.6000004      -3.28008248E-03
   15.6400003      -3.29257688E-03
   15.6800003      -3.28579661E-03
   15.7200003      -3.25828092E-03
   15.7600002      -3.20866751E-03
   15.8000002      -3.13571584E-03
   15.8400002      -3.03833117E-03
   15.8800001      -2.91558774E-03
   15.9200001      -2.76675308E-03
   15.9600000      -2.59130890E-03
   16.0000000      -2.38897162E-03
   16.0400009      -2.15971121E-03
   16.0799999      -1.90376688E-03
   16.1200008      -1.62166043E-03
   16.1599998      -1.31420686E-03
   16.2000008      -9.82520054E-04
   16.2399998      -6.28016656E-04
   16.2800007      -2.52414378E-04
   16.3199997       1.42273580E-04
   16.3600006       5.53747755E-04
   16.3999996       9.79437144E-04
   16.4400005       1.41651777E-03
   16.4799995       1.86193502E-03
   16.5200005       2.31243158E-03
   16.5599995       2.76457798E-03
   16.6000004       3.21480632E-03
   16.6399994       3.65944905E-03
   16.6800003       4.09477996E-03
   16.7199993       4.51705372E-03
   16.7600002       4.92255297E-03
   16.7999992       5.30763203E-03
   16.8400002       5.66876261E-03
   16.8799992       6.00257702E-03
   16.9200001       6.30591391E-03
   16.9599991       6.57585915E-03
   17.0000000       6.80978363E-03
   17.0400009       7.00538233E-03
   17.0799999       7.16070272E-03
   17.1200008       7.27417506E-03
   17.1599998       7.34463427E-03
   17.2000008       7.37133576E-03
   17.2399998       7.35397032E-03
   17.2800007       7.29266694E-03
   17.3199997       7.18799420E-03
   17.3600006       7.04095466E-03
   17.3999996       6.85297092E-03
   17.4400005       6.62586698E-03
   17.4799995       6.36184821E-03
   17.5200005       6.06346782E-03
   17.5599995       5.73359663E-03
   17.6000004       5.37538528E-03
   17.6399994       4.99222148E-03
   17.6800003       4.58768662E-03
   17.7199993       4.16551065E-03
   17.7600002       3.72952316E-03
   17.7999992       3.28360638E-03
   17.8400002       2.83164601E-03
   17.8799992       2.37748539E-03
   17.9200001       1.92487868E-03
   17.9599991       1.47744862E-03
   18.0000000       1.03864633E-03
   18.0400009       6.11713564E-04
   18.0799999       1.99651302E-04
   18.1200008      -1.94809647E-04
   18.1599998      -5.69231808E-04
   18.2000008      -9.21489263E-04
   18.2399998      -1.24978204E-03
   18.2800007      -1.55264360E-03
   18.3199997      -1.82894478E-03
   18.3600006      -2.07789196E-03
   18.3999996      -2.29902077E-03
   18.4400005      -2.49218568E-03
   18.4799995      -2.65754410E-03
   18.5200005      -2.79553933E-03
   18.5599995      -2.90687755E-03
   18.6000004      -2.99250521E-03
   18.6399994      -3.05358064E-03
   18.6800003      -3.09144752E-03
   18.7199993      -3.10760480E-03
   18.7600002      -3.10367742E-03
   18.7999992      -3.08138598E-03
   18.8400002      -3.04251863E-03
   18.8799992      -2.98890099E-03
   18.9200001      -2.92237033E-03
   18.9599991      -2.84474995E-03
   19.0000000      -2.75782519E-03
   19.0400009      -2.66332342E-03
   19.0799999      -2.56289355E-03
   19.1200008      -2.45809113E-03
   19.1599998      -2.35036365E-03
   19.2000008      -2.24104128E-03
   19.2399998      -2.13132682E-03
   19.2800007      -2.02229130E-03
   19.3199997      -1.91487127E-03
   19.3600006      -1.80986675E-03
   19.3999996      -1.70794362E-03
   19.4400005      -1.60963729E-03
   19.4799995      -1.51535776E-03
   19.5200005      -1.42539595E-03
   19.5599995      -1.33993325E-03
   19.6000004      -1.25904963E-03
   19.6399994      -1.18273462E-03
   19.6800003      -1.11089740E-03
   19.7199993      -1.04337896E-03
   19.7600002      -9.79962642E-04
   19.7999992      -9.20385937E-04
   19.8400002      -8.64351576E-04
   19.8799992      -8.11538484E-04
   19.9200001      -7.61612027E-04
   19.9599991      -7.14233611E-04
   20.0000000      -6.69069530E-04
   20.0400009      -6.25799294E-04
   20.0799999      -5.84122492E-04
   20.1200008      -5.43765200E-04
   20.1599998      -5.04484691E-04
   20.2000008      -4.66073921E-04
   20.2399998      -4.28364292E-04
   20.2800007      -3.91227775E-04
   20.3199997      -3.54577845E-04
   20.3600006      -3.18369508E-04
   20.3999996      -2.82598397E-04
   20.4400005      -2.47298944E-04
   20.4799995      -2.12541912E-04
   20.5200005      -1.78431117E-04
   20.5599995      -1.45099446E-04
   20.6000004      -1.12704438E-04
   20.6399994      -8.14234154E-05
   20.6800003      -5.14481217E-05
   20.7199993      -2.29792549E-05
   20.7600002       3.77923675E-06
   20.7999992       2.86258983E-05
   20.8400002       5.13674095E-05
   20.8799992       7.18240481E-05
   20.9200001       8.98348735E-05
   20.9599991       1.05262436E-04
   21.0000000       1.17997151E-04
   21.0400009       1.27960899E-04
   21.0799999       1.35110051E-04
   21.1200008       1.39437761E-04
   21.1599998       1.40975550E-04
   21.2000008       1.39793905E-04
   21.2399998       1.36002302E-04
   21.2800007       1.29748267E-04
   21.3199997       1.21215598E-04
   21.3600006       1.10622008E-04
   21.3999996       9.82158090E-05
   21.4400005       8.42720619E-05
   21.4799995       6.90880697E-05
   21.5200005       5.29783320E-05
   21.5599995       3.62690371E-05
   21.6000004       1.92923180E-05
   21.6399994       2.38015900E-06
   21.6800003      -1.41416995E-05
   21.7199993      -2.99598469E-05
   21.7600002      -4.47791826E-05
   21.7999992      -5.83284673E-05
   21.8400002      -7.03655533E-05
   21.8799992      -8.06820026E-05
   21.9200001      -8.91071541E-05
   21.9599991      -9.55112555E-05
   22.0000000      -9.98079558E-05
   22.0400009      -1.01955746E-04
   22.0799999      -1.01958525E-04
   22.1200008      -9.98651885E-05
   22.1599998      -9.57681914E-05
   22.2000008      -8.98011858E-05
   22.2399998      -8.21356080E-05
   22.2800007      -7.29765452E-05
   22.3199997      -6.25575703E-05
   22.3600006      -5.11349899E-05
   22.3999996      -3.89814486E-05
   22.4400005      -2.63789807E-05
   22.4799995      -1.36117824E-05
   22.5200005      -9.58732812E-07
   22.5599995       1.13140195E-05
   22.6000004       2.29603975E-05
   22.6399994       3.37613747E-05
   22.6800003       4.35314723E-05
   22.7199993       5.21245893E-05
   22.7600002       5.94390040E-05
   22.7999992       6.54214964E-05
   22.8400002       7.00703022E-05
   22.8799992       7.34369823E-05
   22.9200001       7.56270092E-05
   22.9599991       7.67990496E-05
   23.0000000       7.71628693E-05
   23.0400009       7.69760009E-05
   23.0799999       7.65390505E-05
   23.1200008       7.61897973E-05
   23.1599998       7.62960626E-05
   23.2000008       7.72477069E-05
   23.2399998       7.94476364E-05
   23.2800007       8.33021841E-05
   23.3199997       8.92109238E-05
   23.3600006       9.75563089E-05
   23.3999996       1.08693159E-04
   23.4400005       1.22938407E-04
   23.4799995       1.40561315E-04
   23.5200005       1.61774209E-04
   23.5599995       1.86724312E-04
   23.6000004       2.15486478E-04
   23.6399994       2.48057419E-04
   23.6800003       2.84351292E-04
   23.7199993       3.24196764E-04
   23.7600002       3.67336295E-04
   23.7999992       4.13426344E-04
   23.8400002       4.62040276E-04
   23.8799992       5.12672588E-04
   23.9200001       5.64744871E-04
   23.9599991       6.17613550E-04
   24.0000000       6.70579204E-04
   24.0400009       7.22897006E-04
   24.0799999       7.73788663E-04
   24.1200008       8.22454982E-04
   24.1599998       8.68089322E-04
   24.2000008       9.09891096E-04
   24.2399998       9.47079796E-04
   24.2800007       9.78908734E-04
   24.3199997       1.00467796E-03
   24.3600006       1.02374691E-03
   24.3999996       1.03554607E-03
   24.4400005       1.03958661E-03
   24.4799995       1.03546982E-03
   24.5200005       1.02289359E-03
   24.5599995       1.00165815E-03
   24.6000004       9.71669331E-04
   24.6399994       9.32940398E-04
   24.6800003       8.85591260E-04
   24.7199993       8.29846598E-04
   24.7600002       7.66031793E-04
   24.7999992       6.94566930E-04
   24.8400002       6.15959987E-04
   24.8799992       5.30797930E-04
   24.9200001       4.39737283E-04
   24.9599991       3.43493448E-04
   25.0000000       2.42829832E-04
   25.0400009       1.38546442E-04
   25.0799999       3.14683930E-05
   25.1200008      -7.75651424E-05
   25.1599998      -1.87711630E-04
   25.2000008      -2.98135274E-04
   25.2399998      -4.08015971E-04
   25.2800007      -5.16557309E-04
   25.3199997      -6.22993452E-04
   25.3600006      -7.26594764E-04
   25.3999996      -8.26671894E-04
   25.4400005      -9.22578794E-04
   25.4799995      -1.01371435E-03
   25.5200005      -1.09952292E-03
   25.5599995      -1.17949385E-03
   25.6000004      -1.25316007E-03
   25.6399994      -1.32009585E-03
   25.6800003      -1.37991481E-03
   25.7199993      -1.43226667E-03
   25.7600002      -1.47683453E-03
   25.7999992      -1.51333283E-03
   25.8400002      -1.54150394E-03
   25.8799992      -1.56111841E-03
   25.9200001      -1.57197285E-03
   25.9599991      -1.57389091E-03
   26.0000000      -1.56672415E-03
   26.0400009      -1.55035465E-03
   26.0799999      -1.52469822E-03
   26.1200008      -1.48970925E-03
   26.1599998      -1.44538563E-03
   26.2000008      -1.39177602E-03
   26.2399998      -1.32898521E-03
   26.2800007      -1.25718315E-03
   26.3199997      -1.17661082E-03
   26.3600006      -1.08758872E-03
   26.3999996      -9.90522676E-04
   26.4400005      -8.85910122E-04
   26.4799995      -7.74344895E-04
   26.5200005      -6.56520191E-04
   26.5599995      -5.33230079E-04
   26.6000004      -4.05369326E-04
   26.6399994      -2.73929734E-04
   26.6800003      -1.39995551E-04
   26.7199993      -4.73525188E-06
   26.7600002       1.30609056E-04
   26.7999992       2.64734728E-04
   26.8400002       3.96294286E-04
   26.8799992       5.23913419E-04
   26.9200001       6.46211265E-04
   26.9599991       7.61822390E-04
   27.0000000       8.69420124E-04
   27.0400009       9.67741071E-04
   27.0799999       1.05560990E-03
   27.1200008       1.13196450E-03
   27.1599998       1.19588024E-03
   27.2000008       1.24659273E-03
   27.2399998       1.28352002E-03
   27.2800007       1.30628049E-03
   27.3199997       1.31471024E-03
   27.3600006       1.30887493E-03
   27.3999996       1.28907932E-03
   27.4400005       1.25587150E-03
   27.4799995       1.21004344E-03
   27.5200005       1.15262577E-03
   27.5599995       1.08487834E-03
   27.6000004       1.00827543E-03
   27.6399994       9.24486085E-04
   27.6800003       8.35349492E-04
   27.7199993       7.42845936E-04
   27.7600002       6.49063615E-04
   27.7999992       5.56161685E-04
   27.8400002       4.66329890E-04
   27.8799992       3.81746388E-04
   27.9200001       3.04532849E-04
   27.9599991       2.36709137E-04
   28.0000000       1.80147617E-04
   28.0400009       1.36527728E-04
   28.0799999       1.07292479E-04
   28.1200008       9.36067736E-05
   28.1599998       9.63190614E-05
   28.2000008       1.15926596E-04
   28.2399998       1.52545588E-04
   28.2800007       2.05886332E-04
   28.3199997       2.75234488E-04
   28.3600006       3.59438447E-04
   28.3999996       4.56903595E-04
   28.4400005       5.65593946E-04
   28.4799995       6.83040475E-04
   28.5200005       8.06357246E-04
   28.5599995       9.32265364E-04
   28.6000004       1.05712283E-03
   28.6399994       1.17696263E-03
   28.6800003       1.28753670E-03
   28.7199993       1.38436630E-03
   28.7600002       1.46279787E-03
   28.7999992       1.51806301E-03
   28.8400002       1.54534366E-03
   28.8799992       1.53983990E-03
   28.9200001       1.49684027E-03
   28.9599991       1.41179294E-03
   29.0000000       1.28037855E-03
   29.0400009       1.09858194E-03
   29.0799999       8.62762216E-04
   29.1200008       5.69721276E-04
   29.1599998       2.16767789E-04
   29.2000008      -1.98221765E-04
   29.2399998      -6.76748285E-04
   29.2800007      -1.21964095E-03
   29.3199997      -1.82701380E-03
   29.3600006      -2.49823113E-03
   29.3999996      -3.23188002E-03
   29.4400005      -4.02575126E-03
   29.4799995      -4.87682922E-03