  -4.80000019       0.00000000
  -4.76000023       0.00000000
  -4.71999979       0.00000000
  -4.67999983       0.00000000
  -4.63999987       0.00000000
  -4.59999990       0.00000000
  -4.55999994       0.00000000
  -4.51999998       0.00000000
  -4.48000002       0.00000000
  -4.44000006       0.00000000
  -4.40000010       0.00000000
  -4.36000013      -5.73838868E-39
  -4.32000017      -1.19357379E-37
  -4.28000021      -1.29296262E-36
  -4.23999977      -9.72084323E-36
  -4.19999981      -5.70175085E-35
  -4.15999985      -2.77967037E-34
  -4.11999989      -1.17115604E-33
  -4.07999992      -4.37595882E-33
  -4.03999996      -1.47583830E-32
  -4.00000000      -4.54827799E-32
  -3.96000004      -1.29184666E-31
  -3.92000008      -3.40145183E-31
  -3.88000011      -8.33359949E-31
  -3.83999991      -1.90358803E-30
  -3.79999995      -4.05500412E-30
  -3.75999999      -8.04105920E-30
  -3.72000003      -1.47747069E-29
  -3.68000007      -2.49168977E-29
  -3.64000010      -3.78392813E-29
  -3.59999990      -4.95726062E-29
  -3.55999994      -4.93928507E-29
  -3.51999998      -1.50119167E-29
  -3.48000002       9.29007216E-29
  -3.44000006       3.34819671E-28
  -3.40000010       7.91244195E-28
  -3.35999990       1.55068744E-27
  -3.31999993       2.68021116E-27
  -3.27999997       4.17345206E-27
  -3.24000001       5.87676029E-27
  -3.20000005       7.40513747E-27
  -3.16000009       8.07598047E-27
  -3.11999989       6.90714283E-27
  -3.07999992       2.73970776E-27
  -3.03999996      -5.45541381E-27
  -3.00000000      -1.80569953E-26
  -2.96000004      -3.40959519E-26
  -2.92000008      -5.05233362E-26
  -2.88000011      -6.17158427E-26
  -2.83999991      -5.96052453E-26
  -2.79999995      -3.48584230E-26
  -2.75999999       2.05728699E-26
  -2.72000003       1.09529614E-25
  -2.68000007       2.24889773E-25
  -2.64000010       3.45221926E-25
  -2.59999990       4.32777524E-25
  -2.55999994       4.36134472E-25
  -2.51999998       2.99534233E-25
  -2.48000002      -2.02782458E-26
  -2.44000006      -5.31213806E-25
  -2.40000010      -1.18163712E-24
  -2.35999990      -1.84268224E-24
  -2.31999993      -2.30709886E-24
  -2.27999997      -2.31421320E-24
  -2.24000001      -1.60630717E-24
  -2.20000005      -1.31231172E-26
  -2.16000009       2.45070310E-24
  -2.11999989       5.50279667E-24
  -2.07999992       8.56030755E-24
  -2.03999996       1.07910634E-23
  -2.00000000       1.12662874E-23
  -1.96000004       9.20130042E-24
  -1.91999996       4.22908450E-24
  -1.88000000      -3.38747010E-24
  -1.84000003      -1.27170531E-23
  -1.79999995      -2.23838288E-23
  -1.75999999      -3.10626351E-23
  -1.72000003      -3.81202044E-23
  -1.67999995      -4.41172639E-23
  -1.63999999      -5.07585671E-23
  -1.60000002      -5.98676134E-23
  -1.55999994      -7.11551842E-23
  -1.51999998      -7.90046342E-23
  -1.48000002      -6.91896458E-23
  -1.44000006      -1.72350409E-23
  -1.39999998       1.09253449E-22
  -1.36000001       3.41920109E-22
  -1.32000005       6.95244245E-22
  -1.27999997       1.14323318E-21
  -1.24000001       1.59365948E-21
  -1.20000005       1.86861110E-21
  -1.15999997       1.70407587E-21
  -1.12000000       7.83042318E-22
  -1.08000004      -1.18593193E-21
  -1.03999996      -4.34138717E-21
  -1.00000000      -8.50513164E-21
 -0.959999979      -1.30154753E-20
 -0.920000017      -1.66140551E-20
 -0.879999995      -1.74606130E-20
 -0.839999974      -1.33534472E-20
 -0.800000012      -2.21253285E-21
 -0.759999990       1.71696830E-20
 -0.720000029       4.41890223E-20
 -0.680000007       7.54884252E-20
 -0.639999986       1.04310441E-19
 -0.600000024       1.20515743E-19
 -0.560000002       1.11643546E-19
 -0.519999981       6.52790325E-20
 -0.479999989      -2.72577628E-20
 -0.439999998      -1.66275414E-19
 -0.400000006      -3.38979675E-19
 -0.360000014      -5.15973139E-19
 -0.319999993      -6.50639590E-19
 -0.280000001      -6.83073704E-19
 -0.239999995      -5.49759073E-19
 -0.200000003      -1.99163365E-19
 -0.159999996       3.88147859E-19
 -0.119999997       1.17820908E-18
  -7.99999982E-02   2.06639726E-18
  -3.99999991E-02   2.87080662E-18
   2.77555756E-16   3.34300661E-18
   3.99999991E-02   3.20136123E-18
   7.99999982E-02   2.18840805E-18
  0.119999997       1.48115710E-19
  0.159999996      -2.88820782E-18
  0.200000003      -6.62570140E-18
  0.239999995      -1.04631217E-17
  0.280000001      -1.35085501E-17
  0.319999993      -1.46743793E-17
  0.360000014      -1.28608834E-17
  0.400000006      -7.21919067E-18
  0.439999998       2.53895355E-18
  0.479999989       1.58417429E-17
  0.519999981       3.10451968E-17
  0.560000002       4.53938456E-17
  0.600000024       5.52304293E-17
  0.639999986       5.64997049E-17
  0.680000007       4.55377783E-17
  0.720000029       2.00673719E-17
  0.759999990      -1.97581833E-17
  0.800000012      -7.04873952E-17
  0.839999974      -1.24943289E-16
  0.879999995      -1.72490451E-16
  0.920000017      -2.00178396E-16
  0.959999979      -1.94804396E-16
   1.00000000      -1.45744380E-16
   1.03999996      -4.81754456E-17
   1.08000004       9.38978109E-17
   1.12000000       2.65548217E-16
   1.15999997       4.40525901E-16
   1.20000005       5.83182925E-16
   1.24000001       6.53038632E-16
   1.27999997       6.11820103E-16
   1.32000005       4.32225137E-16
   1.36000001       1.07054224E-16
   1.39999998      -3.43121136E-16
   1.44000006      -8.65809497E-16
   1.48000002      -1.37787082E-15
   1.51999998      -1.77350297E-15
   1.55999994      -1.93918770E-15
   1.60000002      -1.77445366E-15
   1.63999999      -1.21578811E-15
   1.67999995      -2.59661709E-16
   1.72000003       1.02026040E-15
   1.75999999       2.46674333E-15
   1.79999995       3.84755314E-15
   1.84000003       4.88109724E-15
   1.88000000       5.27835019E-15
   1.91999996       4.79681746E-15
   1.96000004       3.29885939E-15
   2.00000000       8.04008703E-16
   2.03999996      -2.47635207E-15
   2.07999992      -6.13279467E-15
   2.11999989      -9.58787679E-15
   2.16000009      -1.21648373E-14
   2.20000005      -1.31904485E-14
   2.24000001      -1.21199793E-14
   2.27999997      -8.66542911E-15
   2.31999993      -2.90366812E-15
   2.35999990       4.65984800E-15
   2.40000010       1.30926188E-14
   2.44000006       2.11145663E-14
   2.48000002       2.72559769E-14
   2.51999998       3.00800339E-14
   2.55999994       2.84415097E-14
   2.59999990       2.17414757E-14
   2.64000010       1.01315076E-14
   2.68000007      -5.37786809E-15
   2.72000003      -2.29400188E-14
   2.75999999      -4.00439366E-14
   2.79999995      -5.38285101E-14
   2.83999991      -6.15064979E-14
   2.88000011      -6.08409129E-14
   2.92000008      -5.05989293E-14
   2.96000004      -3.09016186E-14
   3.00000000      -3.39534131E-15
   3.03999996       2.88081767E-14
   3.07999992       6.14422589E-14
   3.11999989       8.96239734E-14
   3.16000009       1.08556745E-13
   3.20000005       1.14296810E-13
   3.24000001       1.04461626E-13
   3.27999997       7.87559715E-14
   3.31999993       3.92109678E-14
   3.35999990      -9.92898204E-15
   3.40000010      -6.26809192E-14
   3.44000006      -1.12107548E-13
   3.48000002      -1.51301294E-13
   3.51999998      -1.74415915E-13
   3.55999994      -1.77575253E-13
   3.59999990      -1.59500424E-13
   3.64000010      -1.21738015E-13
   3.68000007      -6.84378769E-14
   3.72000003      -5.70915877E-15
   3.75999999       5.93376463E-14
   3.79999995       1.19691109E-13
   3.83999991       1.69476060E-13
   3.88000011       2.04726264E-13
   3.92000008       2.23736801E-13
   3.96000004       2.26921157E-13
   4.00000000       2.16200769E-13
   4.03999996       1.94061943E-13
   4.07999992       1.62501848E-13
   4.11999989       1.22136242E-13
   4.15999985       7.17369483E-14
   4.19999981       8.40373405E-15
   4.23999977      -7.15419477E-14
   4.28000021      -1.71010057E-13
   4.32000017      -2.90177143E-13
   4.36000013      -4.24486753E-13
   4.40000010      -5.63093083E-13
   4.44000006      -6.88239559E-13
   4.48000002      -7.75985396E-13
   4.51999998      -7.98514087E-13
   4.55999994      -7.28000668E-13
   4.59999990      -5.41713863E-13
   4.63999987      -2.27720403E-13
   4.67999983       2.09685378E-13
   4.71999979       7.45851894E-13
   4.76000023       1.33396039E-12
   4.80000019       1.90637783E-12
   4.84000015       2.37967068E-12
   4.88000011       2.66328149E-12
   4.92000008       2.67129461E-12
   4.96000004       2.33611915E-12
   5.00000000       1.62240317E-12
   5.03999996       5.39144467E-13
   5.07999992      -8.52142738E-13
   5.11999989      -2.43514041E-12
   5.15999985      -4.04374537E-12
   5.19999981      -5.47500456E-12
   5.23999977      -6.50956372E-12
   5.28000021      -6.93807772E-12
   5.32000017      -6.59095868E-12
   5.36000013      -5.36793093E-12
   5.40000010      -3.26334012E-12
   5.44000006      -3.83101997E-13
   5.48000002       3.05031521E-12
   5.51999998       6.70740807E-12
   5.55999994       1.01766130E-11
   5.59999990       1.30037691E-11
   5.63999987       1.47430367E-11
   5.67999983       1.50142728E-11
   5.71999979       1.35603586E-11
   5.76000023       1.02970332E-11
   5.80000019       5.34784239E-12
   5.84000015      -9.42269158E-13
   5.88000011      -8.01925974E-12
   5.92000008      -1.51599254E-11
   5.96000004      -2.15379086E-11
   6.00000000      -2.63106759E-11
   6.03999996      -2.87191243E-11
   6.07999992      -2.81888662E-11
   6.11999989      -2.44208438E-11
   6.15999985      -1.74588885E-11
   6.19999981      -7.72333673E-12
   6.23999977       3.99696769E-12
   6.28000021       1.65977614E-11
   6.32000017       2.87556229E-11
   6.36000013       3.90601024E-11
   6.40000010       4.61692247E-11
   6.44000006       4.89718995E-11
   6.48000002       4.67383875E-11
   6.51999998       3.92396671E-11
   6.55999994       2.68188007E-11
   6.59999990       1.04015121E-11
   6.63999987      -8.56031218E-12
   6.67999983      -2.82110914E-11
   6.71999979      -4.64706919E-11
   6.76000023      -6.12534815E-11
   6.80000019      -7.07044007E-11
   6.84000015      -7.34252589E-11
   6.88000011      -6.86638454E-11
   6.92000008      -5.64408520E-11
   6.96000004      -3.75953678E-11
   7.00000000      -1.37383264E-11
   7.03999996       1.28860429E-11
   7.07999992       3.96196895E-11
   7.11999989       6.36691741E-11
   7.15999985       8.24126739E-11
   7.19999981       9.36997493E-11
   7.23999977       9.61073374E-11
   7.28000021       8.91187749E-11
   7.32000017       7.32014380E-11
   7.36000013       4.97700908E-11
   7.40000010       2.10379457E-11
   7.44000006      -1.02282367E-11
   7.48000002      -4.10188584E-11
   7.51999998      -6.84185555E-11
   7.55999994      -8.99255254E-11
   7.59999990      -1.03710658E-10
   7.63999987      -1.08782476E-10
   7.67999983      -1.05036813E-10
   7.71999979      -9.31879990E-11
   7.76000023      -7.45963222E-11
   7.80000019      -5.10233383E-11
   7.84000015      -2.43585985E-11
   7.88000011       3.63332563E-12
   7.92000008       3.14998895E-11
   7.96000004       5.81874063E-11
   8.00000000       8.30117572E-11
   8.03999996       1.05519767E-10
   8.07999992       1.25271224E-10
   8.11999989       1.41591072E-10
   8.15999985       1.53353594E-10
   8.19999981       1.58861799E-10
   8.23999977       1.55874674E-10
   8.27999973       1.41813353E-10
   8.31999969       1.14145721E-10
   8.35999966       7.09141773E-11
   8.39999962       1.13369071E-11
   8.43999958      -6.36136491E-11
   8.47999954      -1.50764928E-10
   8.52000046      -2.44537057E-10
   8.56000042      -3.37058714E-10
   8.60000038      -4.18650475E-10
   8.64000034      -4.78668882E-10
   8.68000031      -5.06645503E-10
   8.72000027      -4.93601937E-10
   8.76000023      -4.33378583E-10
   8.80000019      -3.23792826E-10
   8.84000015      -1.67445724E-10
   8.88000011       2.79707993E-11
   8.92000008       2.49959803E-10
   8.96000004       4.82113016E-10
   9.00000000       7.05544179E-10
   9.03999996       9.00711616E-10
   9.07999992       1.04941489E-09
   9.11999989       1.13671095E-09
   9.15999985       1.15249510E-09
   9.19999981       1.09252452E-09
   9.23999977       9.58736313E-10
   9.27999973       7.58804908E-10
   9.31999969       5.05000486E-10
   9.35999966       2.12514673E-10
   9.39999962      -1.02489191E-10
   9.43999958      -4.24789676E-10
   9.47999954      -7.41662842E-10
   9.52000046      -1.04379894E-09
   9.56000042      -1.32538547E-09
   9.60000038      -1.58328683E-09
   9.64000034      -1.81539250E-09
   9.68000031      -2.01835237E-09
   9.72000027      -2.18503948E-09
   9.76000023      -2.30216024E-09
   9.80000019      -2.34845965E-09
   9.84000015      -2.29392794E-09
   9.88000011      -2.10032058E-09
   9.92000008      -1.72314829E-09
   9.96000004      -1.11512055E-09
   10.0000000      -2.30836711E-10
   10.0400000       9.67649960E-10
   10.0799999       2.50487497E-09
   10.1199999       4.38617631E-09
   10.1599998       6.59258292E-09
   10.1999998       9.07681752E-09
   10.2399998       1.17606636E-08
   10.2799997       1.45337609E-08
   10.3199997       1.72536385E-08
   10.3599997       1.97465901E-08
   10.3999996       2.18088125E-08
   10.4399996       2.32071216E-08
   10.4799995       2.36784654E-08
   10.5200005       2.29275265E-08
   10.5600004       2.06217958E-08
   10.6000004       1.63835718E-08
   10.6400003       9.77856995E-09
   10.6800003       3.00826614E-10
   10.7200003      -1.26462396E-08
   10.7600002      -2.97727478E-08
   10.8000002      -5.19297423E-08
   10.8400002      -8.01412554E-08
   10.8800001      -1.15641932E-07
   10.9200001      -1.59921015E-07
   10.9600000      -2.14774445E-07
   11.0000000      -2.82365903E-07
   11.0400000      -3.65299258E-07
   11.0799999      -4.66703824E-07
   11.1199999      -5.90335048E-07
   11.1599998      -7.40691632E-07
   11.1999998      -9.23151788E-07
   11.2399998      -1.14413001E-06
   11.2799997      -1.41125645E-06
   11.3199997      -1.73357967E-06
   11.3599997      -2.12179657E-06
   11.3999996      -2.58850810E-06
   11.4399996      -3.14850581E-06
   11.4799995      -3.81909149E-06
   11.5200005      -4.62042908E-06
   11.5600004      -5.57593557E-06
   11.6000004      -6.71271528E-06
   11.6400003      -8.06203207E-06
   11.6800003      -9.65983327E-06
   11.7200003      -1.15473167E-05
   11.7600002      -1.37715488E-05
   11.8000002      -1.63861350E-05
   11.8400002      -1.94519234E-05
   11.8800001      -2.30377755E-05
   11.9200001      -2.72213492E-05
   11.9600000      -3.20899380E-05
   12.0000000      -3.77413162E-05
   12.0400000      -4.42845958E-05
   12.0799999      -5.18410961E-05
   12.1199999      -6.05451714E-05
   12.1599998      -7.05450075E-05
   12.1999998      -8.20033820E-05
   12.2399998      -9.50983085E-05
   12.2799997      -1.10023560E-04
   12.3199997      -1.26989064E-04
   12.3599997      -1.46221151E-04
   12.3999996      -1.67962571E-04
   12.4399996      -1.92472202E-04
   12.4799995      -2.20024493E-04
   12.5200005      -2.50908750E-04
   12.5600004      -2.85427697E-04
   12.6000004      -3.23895889E-04
   12.6400003      -3.66637716E-04
   12.6800003      -4.13984555E-04
   12.7200003      -4.66271915E-04
   12.7600002      -5.23835362E-04
   12.8000002      -5.87006740E-04
   12.8400002      -6.56108838E-04
   12.8800001      -7.31450040E-04
   12.9200001      -8.13318533E-04
   12.9600000      -9.01975203E-04
   13.0000000      -9.97646945E-04
   13.0400000      -1.10051874E-03
   13.0799999      -1.21072540E-03
   13.1199999      -1.32834364E-03
   13.1599998      -1.45338289E-03
   13.1999998      -1.58577668E-03
   13.2399998      -1.72537391E-03
   13.2799997      -1.87192985E-03
   13.3199997      -2.02509831E-03
   13.3599997      -2.18442269E-03
   13.3999996      -2.34933035E-03
   13.4399996      -2.51912465E-03
   13.4799995      -2.69297999E-03
   13.5200005      -2.86993897E-03
   13.5600004      -3.04890843E-03
   13.6000004      -3.22865951E-03
   13.6400003      -3.40782781E-03
   13.6800003      -3.58491740E-03
   13.7200003      -3.75830545E-03
   13.7600002      -3.92625062E-03
   13.8000002      -4.08690283E-03
   13.8400002      -4.23831446E-03
   13.8800001      -4.37845849E-03
   13.9200001      -4.50524082E-03
   13.9600000      -4.61652735E-03
   14.0000000      -4.71015880E-03
   14.0400000      -4.78398101E-03
   14.0799999      -4.83586732E-03
   14.1199999      -4.86374740E-03
   14.1599998      -4.86563798E-03
   14.1999998      -4.83966945E-03
   14.2399998      -4.78412025E-03
   14.2799997      -4.69744392E-03
   14.3199997      -4.57830168E-03
   14.3599997      -4.42558946E-03
   14.3999996      -4.23846720E-03
   14.4399996      -4.01638355E-03
   14.4799995      -3.75909894E-03
   14.5200005      -3.46670672E-03
   14.5600004      -3.13964789E-03
   14.6000004      -2.77872407E-03
   14.6400003      -2.38510664E-03
   14.6800003      -1.96033926E-03
   14.7200003      -1.50633731E-03
   14.7600002      -1.02538045E-03
   14.8000002      -5.20101225E-04
   14.8400002       6.53196321E-06
   14.8800001       5.51237259E-04
   14.9200001       1.11044664E-03
   14.9600000       1.68033817E-03
   15.0000000       2.25687213E-03
   15.0400000       2.83583160E-03
   15.0799999       3.41286627E-03
   15.1199999       3.98353999E-03
   15.1599998       4.54337848E-03
   15.1999998       5.08791953E-03
   15.2399998       5.61276451E-03
   15.2799997       6.11362979E-03
   15.3199997       6.58639520E-03
   15.3599997       7.02715386E-03
   15.3999996       7.43225776E-03
   15.4399996       7.79835973E-03
   15.4799995       8.12245253E-03
   15.5200005       8.40190612E-03
   15.5600004       8.63448996E-03
   15.6000004       8.81840754E-03
   15.6400003       8.95230845E-03
   15.6800003       9.03530233E-03
   15.7200003       9.06696357E-03
   15.7600002       9.04733874E-03
   15.8000002       8.97693262E-03
   15.8400002       8.85670073E-03
   15.8800001       8.68803635E-03
   15.9200001       8.47274158E-03
   15.9600000       8.21300689E-03
   16.0000000       7.91137945E-03
   16.0400009       7.57072540E-03
   16.0799999       7.19419727E-03
   16.1200008       6.78519253E-03
   16.1599998       6.34731259E-03
   16.2000008       5.88432234E-03
   16.2399998       5.40010538E-03
   16.2800007       4.89862403E-03
   16.3199997       4.38387832E-03
   16.3600006       3.85986455E-03
   16.3999996       3.33053735E-03
   16.4400005       2.79977545E-03
   16.4799995       2.27134652E-03
   16.5200005       1.74887781E-03
   16.5599995       1.23582745E-03
   16.6000004       7.35460431E-04
   16.6399994       2.50827259E-04
   16.6800003      -2.15255088E-04
   16.7199993      -6.60217775E-04
   16.7600002      -1.08175259E-03
   16.7999992      -1.47782115E-03
   16.8400002      -1.84666179E-03
   16.8799992      -2.18679314E-03
   16.9200001      -2.49701622E-03
   16.9599991      -2.77641346E-03
   17.0000000      -3.02434596E-03
   17.0400009      -3.24044866E-03
   17.0799999      -3.42462468E-03
   17.1200008      -3.57703632E-03
   17.1599998      -3.69809591E-03
   17.2000008      -3.78845469E-03
   17.2399998      -3.84898996E-03
   17.2800007      -3.88079137E-03
   17.3199997      -3.88514600E-03
   17.3600006      -3.86352022E-03
   17.3999996      -3.81754385E-03
   17.4400005      -3.74899036E-03
   17.4799995      -3.65975685E-03
   17.5200005      -3.55184264E-03
   17.5599995      -3.42732808E-03
   17.6000004      -3.28835193E-03
   17.6399994      -3.13708768E-03
   17.6800003      -2.97572068E-03
   17.7199993      -2.80642463E-03
   17.7600002      -2.63133855E-03
   17.7999992      -2.45254394E-03
   17.8400002      -2.27204245E-03
   17.8799992      -2.09173583E-03
   17.9200001      -1.91340595E-03
   17.9599991      -1.73869845E-03
   18.0000000      -1.56910555E-03
   18.0400009      -1.40595448E-03
   18.0799999      -1.25039672E-03
   18.1200008      -1.10340025E-03
   18.1599998      -9.65745887E-04
   18.2000008      -8.38025648E-04
   18.2399998      -7.20644370E-04
   18.2800007      -6.13825629E-04
   18.3199997      -5.17619075E-04
   18.3600006      -4.31911933E-04
   18.3999996      -3.56442441E-04
   18.4400005      -2.90815486E-04
   18.4799995      -2.34520674E-04
   18.5200005      -1.86951438E-04
   18.5599995      -1.47425410E-04
   18.6000004      -1.15205381E-04
   18.6399994      -8.95202102E-05
   18.6800003      -6.95854033E-05
   18.7199993      -5.46227238E-05
   18.7600002      -4.38783536E-05
   18.7999992      -3.66393542E-05
   18.8400002      -3.22477936E-05
   18.8799992      -3.01124837E-05
   18.9200001      -2.97179013E-05
   18.9599991      -3.06302718E-05
   19.0000000      -3.25007131E-05
   19.0400009      -3.50654482E-05
   19.0799999      -3.81432474E-05
   19.1200008      -4.16302355E-05
   19.1599998      -4.54923575E-05
   19.2000008      -4.97558030E-05
   19.2399998      -5.44957838E-05
   19.2800007      -5.98240440E-05
   19.3199997      -6.58755380E-05
   19.3600006      -7.27948136E-05
   19.3999996      -8.07223842E-05
   19.4400005      -8.97817736E-05
   19.4799995      -1.00067446E-04
   19.5200005      -1.11634166E-04
   19.5599995      -1.24488142E-04
   19.6000004      -1.38580042E-04
   19.6399994      -1.53800502E-04
   19.6800003      -1.69977939E-04
   19.7199993      -1.86878751E-04
   19.7600002      -2.04210271E-04
   19.7999992      -2.21625785E-04
   19.8400002      -2.38732042E-04
   19.8799992      -2.55098625E-04
   19.9200001      -2.70268880E-04
   19.9599991      -2.83772417E-04
   20.0000000      -2.95138307E-04
   20.0400009      -3.03908804E-04
   20.0799999      -3.09653435E-04
   20.1200008      -3.11982294E-04
   20.1599998      -3.10559059E-04
   20.2000008      -3.05112539E-04
   20.2399998      -2.95447011E-04
   20.2800007      -2.81450513E-04
   20.3199997      -2.63101363E-04
   20.3600006      -2.40472131E-04
   20.3999996      -2.13731561E-04
   20.4400005      -1.83143609E-04
   20.4799995      -1.49064348E-04
   20.5200005      -1.11936162E-04
   20.5599995      -7.22798504E-05
   20.6000004      -3.06844231E-05
   20.6399994       1.22048114E-05
   20.6800003       5.56997729E-05
   20.7199993       9.90843473E-05
   20.7600002       1.41629920E-04
   20.7999992       1.82611300E-04
   20.8400002       2.21322771E-04
   20.8799992       2.57093547E-04
   20.9200001       2.89302639E-04
   20.9599991       3.17392347E-04
   21.0000000       3.40880593E-04
   21.0400009       3.59371159E-04
   21.0799999       3.72562208E-04
   21.1200008       3.80252488E-04
   21.1599998       3.82345257E-04
   21.2000008       3.78849829E-04
   21.2399998       3.69880814E-04
   21.2800007       3.55654774E-04
   21.3199997       3.36484809E-04
   21.3600006       3.12772929E-04
   21.3999996       2.85000424E-04
   21.4400005       2.53716484E-04
   21.4799995       2.19525638E-04
   21.5200005       1.83073687E-04
   21.5599995       1.45033147E-04
   21.6000004       1.06088191E-04
   21.6399994       6.69194633E-05
   21.6800003       2.81893172E-05
   21.7199993      -9.47242370E-06
   21.7600002      -4.54815818E-05
   21.7999992      -7.93115250E-05
   21.8400002      -1.10503504E-04
   21.8799992      -1.38675110E-04
   21.9200001      -1.63526900E-04
   21.9599991      -1.84846853E-04
   22.0000000      -2.02512630E-04
   22.0400009      -2.16491666E-04
   22.0799999      -2.26839154E-04
   22.1200008      -2.33693703E-04
   22.1599998      -2.37271306E-04
   22.2000008      -2.37857239E-04
   22.2399998      -2.35796528E-04
   22.2800007      -2.31482933E-04
   22.3199997      -2.25346914E-04
   22.3600006      -2.17842811E-04
   22.3999996      -2.09435602E-04
   22.4400005      -2.00587456E-04
   22.4799995      -1.91744446E-04
   22.5200005      -1.83323878E-04
   22.5599995      -1.75702444E-04
   22.6000004      -1.69205319E-04
   22.6399994      -1.64096826E-04
   22.6800003      -1.60572468E-04
   22.7199993      -1.58752853E-04
   22.7600002      -1.58679482E-04
   22.7999992      -1.60312513E-04
   22.8400002      -1.63530669E-04
   22.8799992      -1.68133134E-04
   22.9200001      -1.73843655E-04
   22.9599991      -1.80316420E-04
   23.0000000      -1.87143989E-04
   23.0400009      -1.93866785E-04
   23.0799999      -1.99984192E-04
   23.1200008      -2.04966796E-04
   23.1599998      -2.08269776E-04
   23.2000008      -2.09346836E-04
   23.2399998      -2.07664751E-04
   23.2800007      -2.02717783E-04
   23.3199997      -1.94042150E-04
   23.3600006      -1.81229712E-04
   23.3999996      -1.63941135E-04
   23.4400005      -1.41917830E-04
   23.4799995      -1.14992639E-04
   23.5200005      -8.30989375E-05
   23.5599995      -4.62780517E-05
   23.6000004      -4.68476310E-06
   23.6399994       4.14092719E-05
   23.6800003       9.16142380E-05
   23.7199993       1.45423095E-04
   23.7600002       2.02214724E-04
   23.7999992       2.61259469E-04
   23.8400002       3.21726722E-04
   23.8799992       3.82694823E-04
   23.9200001       4.43162746E-04
   23.9599991       5.02063893E-04
   24.0000000       5.58281317E-04
   24.0400009       6.10664603E-04
   24.0799999       6.58047968E-04
   24.1200008       6.99269061E-04
   24.1599998       7.33188761E-04
   24.2000008       7.58710958E-04
   24.2399998       7.74802873E-04
   24.2800007       7.80514965E-04
   24.3199997       7.75000313E-04
   24.3600006       7.57533242E-04
   24.3999996       7.27526611E-04
   24.4400005       6.84548402E-04
   24.4799995       6.28336158E-04
   24.5200005       5.58809552E-04
   24.5599995       4.76081477E-04
   24.6000004       3.80465994E-04
   24.6399994       2.72484904E-04
   24.6800003       1.52870794E-04
   24.7199993       2.25681579E-05
   24.7600002      -1.17268632E-04
   24.7999992      -2.65279989E-04
   24.8400002      -4.19908436E-04
   24.8799992      -5.79409127E-04
   24.9200001      -7.41862343E-04
   24.9599991      -9.05189663E-04
   25.0000000      -1.06717169E-03
   25.0400009      -1.22546847E-03
   25.0799999      -1.37764274E-03
   25.1200008      -1.52118411E-03
   25.1599998      -1.65353564E-03
   25.2000008      -1.77212222E-03
   25.2399998      -1.87437923E-03
   25.2800007      -1.95778371E-03
   25.3199997      -2.01988383E-03
   25.3600006      -2.05833139E-03
   25.3999996      -2.07091169E-03
   25.4400005      -2.05557537E-03
   25.4799995      -2.01046746E-03
   25.5200005      -1.93395745E-03
   25.5599995      -1.82466512E-03
   25.6000004      -1.68148801E-03
   25.6399994      -1.50362332E-03
   25.6800003      -1.29059050E-03
   25.7199993      -1.04224856E-03
   25.7600002      -7.58812181E-04
   25.7999992      -4.40862263E-04
   25.8400002      -8.93556207E-05
   25.8799992       2.94371392E-04
   25.9200001       7.08602252E-04
   25.9599991       1.15124369E-03
   26.0000000       1.61983410E-03
   26.0400009       2.11155508E-03
   26.0799999       2.62324815E-03
   26.1200008       3.15143494E-03
   26.1599998       3.69234220E-03
   26.2000008       4.24193032E-03
   26.2399998       4.79592429E-03
   26.2800007       5.34985121E-03
   26.3199997       5.89907728E-03
   26.3600006       6.43885043E-03
   26.3999996       6.96434220E-03
   26.4400005       7.47069623E-03
   26.4799995       7.95307197E-03
   26.5200005       8.40669591E-03
   26.5599995       8.82690493E-03
   26.6000004       9.20919981E-03
   26.6399994       9.54928994E-03
   26.6800003       9.84313712E-03
   26.7199993       1.00870049E-02
   26.7600002       1.02774957E-02
   26.7999992       1.04115894E-02
   26.8400002       1.04866829E-02
   26.8799992       1.05006173E-02
   26.9200001       1.04517089E-02
   26.9599991       1.03387693E-02
   27.0000000       1.01611251E-02
   27.0400009       9.91862919E-03
   27.0799999       9.61167086E-03
   27.1200008       9.24117491E-03
   27.1599998       8.80860351E-03
   27.2000008       8.31594132E-03
   27.2399998       7.76568754E-03
   27.2800007       7.16083124E-03
   27.3199997       6.50483323E-03
   27.3600006       5.80159109E-03
   27.3999996       5.05541125E-03
   27.4400005       4.27096756E-03
   27.4799995       3.45326262E-03
   27.5200005       2.60758284E-03
   27.5599995       1.73945155E-03
   27.6000004       8.54579615E-04
   27.6399994      -4.11854016E-05
   27.6800003      -9.41911072E-04
   27.7199993      -1.84163393E-03
   27.7600002      -2.73441174E-03
   27.7999992      -3.61437653E-03
   27.8400002      -4.47578589E-03
   27.8799992      -5.31307328E-03
   27.9200001      -6.12089550E-03
   27.9599991      -6.89417822E-03
   28.0000000      -7.62815867E-03
   28.0400009      -8.31842422E-03
   28.0799999      -8.96094646E-03
   28.1200008      -9.55211185E-03
   28.1599998      -1.00887520E-02
   28.2000008      -1.05681578E-02
   28.2399998      -1.09881032E-02
   28.2800007      -1.13468515E-02
   28.3199997      -1.16431667E-02
   28.3600006      -1.18763112E-02
   28.3999996      -1.20460447E-02
   28.4400005      -1.21526103E-02
   28.4799995      -1.21967318E-02
   28.5200005      -1.21795824E-02
   28.5599995      -1.21027743E-02
   28.6000004      -1.19683258E-02
   28.6399994      -1.17786322E-02
   28.6800003      -1.15364380E-02
   28.7199993      -1.12447953E-02
   28.7600002      -1.09070297E-02
   28.7999992      -1.05267018E-02
   28.8400002      -1.01075666E-02
   28.8799992      -9.65353288E-03
   28.9200001      -9.16862395E-03
   28.9599991      -8.65693390E-03
   29.0000000      -8.12259503E-03
   29.0400009      -7.56973261E-03
   29.0799999      -7.00243702E-03
   29.1200008      -6.42472459E-03
   29.1599998      -5.84050873E-03
   29.2000008      -5.25356969E-03
   29.2399998      -4.66753356E-03
   29.2800007      -4.08584485E-03
   29.3199997      -3.51175130E-03
   29.3600006      -2.94828624E-03
   29.3999996      -2.39825784E-03
   29.4400005      -1.86423829E-03
   29.4799995      -1.34855951E-03