  -4.80000019       0.00000000
  -4.76000023       0.00000000
  -4.71999979       0.00000000
  -4.67999983       0.00000000
  -4.63999987       0.00000000
  -4.59999990       0.00000000
  -4.55999994       0.00000000
  -4.51999998       0.00000000
  -4.48000002       0.00000000
  -4.44000006      -4.75004290E-31
  -4.40000010      -6.77542305E-30
  -4.36000013      -4.74179089E-29
  -4.32000017      -2.08697621E-28
  -4.28000021      -5.89602508E-28
  -4.23999977      -7.23151257E-28
  -4.19999981       2.77393211E-27
  -4.15999985       2.25157203E-26
  -4.11999989       9.23615912E-26
  -4.07999992       2.80934101E-25
  -4.03999996       6.84099043E-25
  -4.00000000       1.33571378E-24
  -3.96000004       1.91781907E-24
  -3.92000008       1.09450723E-24
  -3.88000011      -4.70219633E-24
  -3.83999991      -2.30325564E-23
  -3.79999995      -6.72703851E-23
  -3.75999999      -1.57102217E-22
  -3.72000003      -3.15070263E-22
  -3.68000007      -5.55333642E-22
  -3.64000010      -8.60626699E-22
  -3.59999990      -1.14568473E-21
  -3.55999994      -1.21194824E-21
  -3.51999998      -7.10409357E-22
  -3.48000002       8.53528112E-22
  -3.44000006       4.02139873E-21
  -3.40000010       9.12764887E-21
  -3.35999990       1.58411647E-20
  -3.31999993       2.25054487E-20
  -3.27999997       2.53869291E-20
  -3.24000001       1.81039802E-20
  -3.20000005      -8.29321589E-21
  -3.16000009      -6.39482410E-20
  -3.11999989      -1.56835861E-19
  -3.07999992      -2.86924087E-19
  -3.03999996      -4.37972489E-19
  -3.00000000      -5.68154432E-19
  -2.96000004      -6.02206511E-19
  -2.92000008      -4.29518341E-19
  -2.88000011       8.60207349E-20
  -2.83999991       1.07827697E-18
  -2.79999995       2.62876138E-18
  -2.75999999       4.69422930E-18
  -2.72000003       7.01992369E-18
  -2.68000007       9.05716449E-18
  -2.64000010       9.91599386E-18
  -2.59999990       8.39366058E-18
  -2.55999994       3.12327497E-18
  -2.51999998      -7.12137987E-18
  -2.48000002      -2.29538898E-17
  -2.44000006      -4.37693787E-17
  -2.40000010      -6.70995149E-17
  -2.35999990      -8.80934581E-17
  -2.31999993      -9.93530670E-17
  -2.27999997      -9.13848494E-17
  -2.24000001      -5.39088792E-17
  -2.20000005       2.18368733E-17
  -2.16000009       1.39855344E-16
  -2.11999989       2.95557192E-16
  -2.07999992       4.72025733E-16
  -2.03999996       6.37409128E-16
  -2.00000000       7.44710414E-16
  -1.96000004       7.35274414E-16
  -1.91999996       5.46984019E-16
  -1.88000000       1.27489880E-16
  -1.84000003      -5.48292632E-16
  -1.79999995      -1.45859370E-15
  -1.75999999      -2.51679789E-15
  -1.72000003      -3.56004433E-15
  -1.67999995      -4.35008890E-15
  -1.63999999      -4.59171733E-15
  -1.60000002      -3.97223258E-15
  -1.55999994      -2.22219771E-15
  -1.51999998       8.07103391E-16
  -1.48000002       5.05963146E-15
  -1.44000006       1.01996446E-14
  -1.39999998       1.55656602E-14
  -1.36000001       2.01745325E-14
  -1.32000005       2.27941089E-14
  -1.27999997       2.20952187E-14
  -1.24000001       1.68809330E-14
  -1.20000005       6.37423633E-15
  -1.15999997      -9.47350109E-15
  -1.12000000      -2.97079832E-14
  -1.08000004      -5.21977345E-14
  -1.03999996      -7.36282644E-14
  -1.00000000      -8.97213483E-14
 -0.959999979      -9.57097696E-14
 -0.920000017      -8.70572196E-14
 -0.879999995      -6.03626104E-14
 -0.839999974      -1.43344300E-14
 -0.800000012       4.93259608E-14
 -0.759999990       1.25322008E-13
 -0.720000029       2.04630976E-13
 -0.680000007       2.74999045E-13
 -0.639999986       3.22143218E-13
 -0.600000024       3.31633050E-13
 -0.560000002       2.91294197E-13
 -0.519999981       1.93843883E-13
 -0.479999989       3.93555834E-14
 -0.439999998      -1.62914034E-13
 -0.400000006      -3.93798465E-13
 -0.360000014      -6.24969206E-13
 -0.319999993      -8.21358769E-13
 -0.280000001      -9.45212983E-13
 -0.239999995      -9.61440129E-13
 -0.200000003      -8.43635871E-13
 -0.159999996      -5.79932044E-13
 -0.119999997      -1.77682237E-13
  -7.99999982E-02   3.33984712E-13
  -3.99999991E-02   9.04531116E-13
   2.77555756E-16   1.46573725E-12
   3.99999991E-02   1.93875189E-12
   7.99999982E-02   2.24388086E-12
  0.119999997       2.31199825E-12
  0.159999996       2.09604036E-12
  0.200000003       1.58081447E-12
  0.239999995       7.89395242E-13
  0.280000001      -2.15301206E-13
  0.319999993      -1.33456766E-12
  0.360000014      -2.44358722E-12
  0.400000006      -3.40585784E-12
  0.439999998      -4.09063191E-12
  0.479999989      -4.39099668E-12
  0.519999981      -4.23990964E-12
  0.560000002      -3.62159955E-12
  0.600000024      -2.57628901E-12
  0.639999986      -1.19709993E-12
  0.680000007       3.80794653E-13
  0.720000029       1.99745580E-12
  0.759999990       3.48944376E-12
  0.800000012       4.71180516E-12
  0.839999974       5.55722265E-12
  0.879999995       5.96905858E-12
  0.920000017       5.94589915E-12
  0.959999979       5.53656643E-12
   1.00000000       4.82619370E-12
   1.03999996       3.91563301E-12
   1.08000004       2.89783844E-12
   1.12000000       1.83573165E-12
   1.15999997       7.46193417E-13
   1.20000005      -4.05854224E-13
   1.24000001      -1.70075976E-12
   1.27999997      -3.24437179E-12
   1.32000005      -5.13707089E-12
   1.36000001      -7.43581152E-12
   1.39999998      -1.01152767E-11
   1.44000006      -1.30354122E-11
   1.48000002      -1.59227007E-11
   1.51999998      -1.83715387E-11
   1.55999994      -1.98699009E-11
   1.60000002      -1.98503956E-11
   1.63999999      -1.77640732E-11
   1.67999995      -1.31704812E-11
   1.72000003      -5.83384296E-12
   1.75999999       4.18743902E-12
   1.79999995       1.64721691E-11
   1.84000003       3.02025072E-11
   1.88000000       4.41765687E-11
   1.91999996       5.68749457E-11
   1.96000004       6.65828018E-11
   2.00000000       7.15620757E-11
   2.03999996       7.02606792E-11
   2.07999992       6.15383508E-11
   2.11999989       4.48830070E-11
   2.16000009       2.05879810E-11
   2.20000005      -1.01394917E-11
   2.24000001      -4.51641988E-11
   2.27999997      -8.15209636E-11
   2.31999993      -1.15630304E-10
   2.35999990      -1.43622864E-10
   2.40000010      -1.61747338E-10
   2.44000006      -1.66822112E-10
   2.48000002      -1.56678281E-10
   2.51999998      -1.30535541E-10
   2.55999994      -8.92534519E-11
   2.59999990      -3.54095225E-11
   2.64000010       2.68270805E-11
   2.68000007       9.20325899E-11
   2.72000003       1.54054589E-10
   2.75999999       2.06675885E-10
   2.79999995       2.44339798E-10
   2.83999991       2.62844274E-10
   2.88000011       2.59905680E-10
   2.92000008       2.35504755E-10
   2.96000004       1.91948554E-10
   3.00000000       1.33620254E-10
   3.03999996       6.64320335E-11
   3.07999992      -2.95637755E-12
   3.11999989      -6.80505097E-11
   3.16000009      -1.23432556E-10
   3.20000005      -1.65528535E-10
   3.24000001      -1.93099189E-10
   3.27999997      -2.07356923E-10
   3.31999993      -2.11663270E-10
   3.35999990      -2.10826800E-10
   3.40000010      -2.10090223E-10
   3.44000006      -2.13954965E-10
   3.48000002      -2.25033853E-10
   3.51999998      -2.43137038E-10
   3.55999994      -2.64778310E-10
   3.59999990      -2.83239154E-10
   3.64000010      -2.89249430E-10
   3.68000007      -2.72249639E-10
   3.72000003      -2.22099186E-10
   3.75999999      -1.31009523E-10
   3.79999995       4.58082487E-12
   3.83999991       1.82493146E-10
   3.88000011       3.93938326E-10
   3.92000008       6.23500418E-10
   3.96000004       8.50078341E-10
   4.00000000       1.04875708E-09
   4.03999996       1.19343968E-09
   4.07999992       1.25994903E-09
   4.11999989       1.22921395E-09
   4.15999985       1.09011555E-09
   4.19999981       8.41588133E-10
   4.23999977       4.93643681E-10
   4.28000021       6.71201705E-11
   4.32000017      -4.07882367E-10
   4.36000013      -8.94737451E-10
   4.40000010      -1.35389555E-09
   4.44000006      -1.74692372E-09
   4.48000002      -2.04047934E-09
   4.51999998      -2.20971486E-09
   4.55999994      -2.24068075E-09
   4.59999990      -2.13142215E-09
   4.63999987      -1.89164862E-09
   4.67999983      -1.54104485E-09
   4.71999979      -1.10648435E-09
   4.76000023      -6.18555984E-10
   4.80000019      -1.07911124E-10
   4.84000015       3.98048927E-10
   4.88000011       8.77675765E-10
   4.92000008       1.31643241E-09
   4.96000004       1.70694692E-09
   5.00000000       2.04780526E-09
   5.03999996       2.34133002E-09
   5.07999992       2.59074939E-09
   5.11999989       2.79726997E-09
   5.15999985       2.95758529E-09
   5.19999981       3.06230263E-09
   5.23999977       3.09563908E-09
   5.28000021       3.03654057E-09
   5.32000017       2.86117152E-09
   5.36000013       2.54649568E-09
   5.40000010       2.07449147E-09
   5.44000006       1.43642021E-09
   5.48000002       6.36526387E-10
   5.51999998      -3.05409170E-10
   5.55999994      -1.35310652E-09
   5.59999990      -2.45466891E-09
   5.63999987      -3.54532426E-09
   5.67999983      -4.55180116E-09
   5.71999979      -5.39788614E-09
   5.76000023      -6.01055605E-09
   5.80000019      -6.32598285E-09
   5.84000015      -6.29470920E-09
   5.88000011      -5.88538906E-09
   5.92000008      -5.08664399E-09
   5.96000004      -3.90681354E-09
   6.00000000      -2.37162889E-09
   6.03999996      -5.20077925E-10
   6.07999992       1.60104907E-09
   6.11999989       3.94328969E-09
   6.15999985       6.46259446E-09
   6.19999981       9.12464060E-09
   6.23999977       1.19087318E-08
   6.28000021       1.48097739E-08
   6.32000017       1.78380777E-08
   6.36000013       2.10168665E-08
   6.40000010       2.43777123E-08
   6.44000006       2.79542398E-08
   6.48000002       3.17746647E-08
   6.51999998       3.58538372E-08
   6.55999994       4.01854123E-08
   6.59999990       4.47348256E-08
   6.63999987       4.94335346E-08
   6.67999983       5.41748051E-08
   6.71999979       5.88110360E-08
   6.76000023       6.31522923E-08
   6.80000019       6.69655265E-08
   6.84000015       6.99733747E-08
   6.88000011       7.18514599E-08
   6.92000008       7.22228535E-08
   6.96000004       7.06480634E-08
   7.00000000       6.66093811E-08
   7.03999996       5.94880802E-08
   7.07999992       4.85336074E-08
   7.11999989       3.28239658E-08
   7.15999985       1.12168710E-08
   7.19999981      -1.77081816E-08
   7.23999977      -5.57169670E-08
   7.28000021      -1.04996523E-07
   7.32000017      -1.68239325E-07
   7.36000013      -2.48735915E-07
   7.40000010      -3.50476284E-07
   7.44000006      -4.78260574E-07
   7.48000002      -6.37820165E-07
   7.51999998      -8.35951369E-07
   7.55999994      -1.08066411E-06
   7.59999990      -1.38134703E-06
   7.63999987      -1.74895376E-06
   7.67999983      -2.19621325E-06
   7.71999979      -2.73786463E-06
   7.76000023      -3.39092321E-06
   7.80000019      -4.17497995E-06
   7.84000015      -5.11253302E-06
   7.88000011      -6.22936159E-06
   7.92000008      -7.55493875E-06
   7.96000004      -9.12289397E-06
   8.00000000      -1.09715229E-05
   8.03999996      -1.31443521E-05
   8.07999992      -1.56907699E-05
   8.11999989      -1.86667185E-05
   8.15999985      -2.21354621E-05
   8.19999981      -2.61684472E-05
   8.23999977      -3.08462113E-05
   8.27999973      -3.62594183E-05
   8.31999969      -4.25099279E-05
   8.35999966      -4.97120054E-05
   8.39999962      -5.79935331E-05
   8.43999958      -6.74972980E-05
   8.47999954      -7.83823052E-05
   8.52000046      -9.08250877E-05
   8.56000042      -1.05020983E-04
   8.60000038      -1.21185330E-04
   8.64000034      -1.39554468E-04
   8.68000031      -1.60386742E-04
   8.72000027      -1.83963086E-04
   8.76000023      -2.10587343E-04
   8.80000019      -2.40586407E-04
   8.84000015      -2.74309772E-04
   8.88000011      -3.12128570E-04
   8.92000008      -3.54434160E-04
   8.96000004      -4.01636265E-04
   9.00000000      -4.54160036E-04
   9.03999996      -5.12442726E-04
   9.07999992      -5.76929422E-04
   9.11999989      -6.48068206E-04
   9.15999985      -7.26303842E-04
   9.19999981      -8.12071550E-04
   9.23999977      -9.05789027E-04
   9.27999973      -1.00784819E-03
   9.31999969      -1.11860572E-03
   9.35999966      -1.23837311E-03
   9.39999962      -1.36740576E-03
   9.43999958      -1.50589226E-03
   9.47999954      -1.65394216E-03
   9.52000046      -1.81157386E-03
   9.56000042      -1.97870331E-03
   9.60000038      -2.15513143E-03
   9.64000034      -2.34053214E-03
   9.68000031      -2.53444235E-03
   9.72000027      -2.73625180E-03
   9.76000023      -2.94519286E-03
   9.80000019      -3.16033466E-03
   9.84000015      -3.38057545E-03
   9.88000011      -3.60463955E-03
   9.92000008      -3.83107550E-03
   9.96000004      -4.05825721E-03
   10.0000000      -4.28438466E-03
   10.0400000      -4.50749416E-03
   10.0799999      -4.72546415E-03
   10.1199999      -4.93602874E-03
   10.1599998      -5.13679301E-03
   10.1999998      -5.32525219E-03
   10.2399998      -5.49881207E-03
   10.2799997      -5.65481558E-03
   10.3199997      -5.79057122E-03
   10.3599997      -5.90338139E-03
   10.3999996      -5.99057646E-03
   10.4399996      -6.04955200E-03
   10.4799995      -6.07780274E-03
   10.5200005      -6.07296126E-03
   10.5600004      -6.03283802E-03
   10.6000004      -5.95545769E-03
   10.6400003      -5.83909871E-03
   10.6800003      -5.68233151E-03
   10.7200003      -5.48404967E-03
   10.7600002      -5.24350582E-03
   10.8000002      -4.96033905E-03
   10.8400002      -4.63459967E-03
   10.8800001      -4.26676963E-03
   10.9200001      -3.85778002E-03
   10.9600000      -3.40901804E-03
   11.0000000      -2.92233168E-03
   11.0400000      -2.40002759E-03
   11.0799999      -1.84486108E-03
   11.1199999      -1.26001856E-03
   11.1599998      -6.49096386E-04
   11.1999998      -1.60689724E-05
   11.2399998       6.34746859E-04
   11.2799997       1.29873492E-03
   11.3199997       1.97102898E-03
   11.3599997       2.64656497E-03
   11.3999996       3.32014170E-03
   11.4399996       3.98647878E-03
   11.4799995       4.64028446E-03
   11.5200005       5.27631957E-03
   11.5600004       5.88946324E-03
   11.6000004       6.47477992E-03
   11.6400003       7.02758227E-03
   11.6800003       7.54349167E-03
   11.7200003       8.01849458E-03
   11.7600002       8.44899379E-03
   11.8000002       8.83185584E-03
   11.8400002       9.16444510E-03
   11.8800001       9.44465771E-03
   11.9200001       9.67094116E-03
   11.9600000       9.84230824E-03
   12.0000000       9.95833986E-03
   12.0400000       1.00191822E-02
   12.0799999       1.00255301E-02
   12.1199999       9.97860264E-03
   12.1599998       9.88011248E-03
   12.1999998       9.73222870E-03
   12.2399998       9.53752827E-03
   12.2799997       9.29894298E-03
   12.3199997       9.01970547E-03
   12.3599997       8.70328769E-03
   12.3999996       8.35333951E-03
   12.4399996       7.97362626E-03
   12.4799995       7.56796496E-03
   12.5200005       7.14016706E-03
   12.5600004       6.69397973E-03
   12.6000004       6.23303559E-03
   12.6400003       5.76080335E-03
   12.6800003       5.28055150E-03
   12.7200003       4.79531568E-03
   12.7600002       4.30787215E-03
   12.8000002       3.82072455E-03
   12.8400002       3.33609362E-03
   12.8800001       2.85592116E-03
   12.9200001       2.38187611E-03
   12.9600000       1.91537256E-03
   13.0000000       1.45759236E-03
   13.0400000       1.00951351E-03
   13.0799999       5.71943703E-04
   13.1199999       1.45556871E-04
   13.1599998      -2.69068085E-04
   13.1999998      -6.71408256E-04
   13.2399998      -1.06095767E-03
   13.2799997      -1.43719197E-03
   13.3199997      -1.79953489E-03
   13.3599997      -2.14733044E-03
   13.3999996      -2.47981981E-03
   13.4399996      -2.79612723E-03
   13.4799995      -3.09525058E-03
   13.5200005      -3.37606040E-03
   13.5600004      -3.63730756E-03
   13.6000004      -3.87763861E-03
   13.6400003      -4.09561861E-03
   13.6800003      -4.28976072E-03
   13.7200003      -4.45856154E-03
   13.7600002      -4.60054260E-03
   13.8000002      -4.71429713E-03
   13.8400002      -4.79853619E-03
   13.8800001      -4.85213893E-03
   13.9200001      -4.87419916E-03
   13.9600000      -4.86407522E-03
   14.0000000      -4.82143043E-03
   14.0400000      -4.74627363E-03
   14.0799999      -4.63898946E-03
   14.1199999      -4.50036442E-03
   14.1599998      -4.33160132E-03
   14.1999998      -4.13432531E-03
   14.2399998      -3.91058065E-03
   14.2799997      -3.66281578E-03
   14.3199997      -3.39385937E-03
   14.3599997      -3.10688512E-03
   14.3999996      -2.80536828E-03
   14.4399996      -2.49303179E-03
   14.4799995      -2.17378745E-03
   14.5200005      -1.85166753E-03
   14.5600004      -1.53075508E-03
   14.6000004      -1.21510914E-03
   14.6400003      -9.08689690E-04
   14.6800003      -6.15282101E-04
   14.7200003      -3.38425249E-04
   14.7600002      -8.13430888E-05
   14.8000002       1.53117391E-04
   14.8400002       3.62540974E-04
   14.8800001       5.44990005E-04
   14.9200001       6.99039840E-04
   14.9600000       8.23803304E-04
   15.0000000       9.18943784E-04
   15.0400000       9.84675717E-04
   15.0799999       1.02175295E-03
   15.1199999       1.03144569E-03
   15.1599998       1.01550575E-03
   15.1999998       9.76120995E-04
   15.2399998       9.15861106E-04
   15.2799997       8.37614993E-04
   15.3199997       7.44521327E-04
   15.3599997       6.39895035E-04
   15.3999996       5.27150114E-04
   15.4399996       4.09721630E-04
   15.4799995       2.90988275E-04
   15.5200005       1.74197441E-04
   15.5600004       6.23945161E-05
   15.6000004      -4.16418879E-05
   15.6400003      -1.35457463E-04
   15.6800003      -2.16971152E-04
   15.7200003      -2.84514390E-04
   15.7600002      -3.36860277E-04
   15.8000002      -3.73241375E-04
   15.8400002      -3.93356982E-04
   15.8800001      -3.97368538E-04
   15.9200001      -3.85884981E-04
   15.9600000      -3.59937287E-04
   16.0000000      -3.20943800E-04
   16.0400009      -2.70667166E-04
   16.0799999      -2.11163686E-04
   16.1200008      -1.44726990E-04
   16.1599998      -7.38270755E-05
   16.2000008      -1.04626258E-06
   16.2399998       7.09863889E-05
   16.2800007       1.39660682E-04
   16.3199997       2.02449315E-04
   16.3600006       2.56969244E-04
   16.3999996       3.01038905E-04
   16.4400005       3.32730036E-04
   16.4799995       3.50413524E-04
   16.5200005       3.52797855E-04
   16.5599995       3.38959828E-04
   16.6000004       3.08367395E-04
   16.6399994       2.60893459E-04
   16.6800003       1.96821449E-04
   16.7199993       1.16842202E-04
   16.7600002       2.20426919E-05
   16.7999992      -8.61131994E-05
   16.8400002      -2.05811200E-04
   16.8799992      -3.34919780E-04
   16.9200001      -4.71029110E-04
   16.9599991      -6.11495227E-04
   17.0000000      -7.53488392E-04
   17.0400009      -8.94044177E-04
   17.0799999      -1.03011762E-03
   17.1200008      -1.15863828E-03
   17.1599998      -1.27656595E-03
   17.2000008      -1.38094614E-03
   17.2399998      -1.46896404E-03
   17.2800007      -1.53799704E-03
   17.3199997      -1.58566353E-03
   17.3600006      -1.60987000E-03
   17.3999996      -1.60885265E-03
   17.4400005      -1.58121507E-03
   17.4799995      -1.52596098E-03
   17.5200005      -1.44252123E-03
   17.5599995      -1.33077567E-03
   17.6000004      -1.19106774E-03
   17.6399994      -1.02421350E-03
   17.6800003      -8.31503945E-04
   17.7199993      -6.14699966E-04
   17.7600002      -3.76021082E-04
   17.7999992      -1.18126794E-04
   17.8400002       1.55909074E-04
   17.8799992       4.42630466E-04
   17.9200001       7.38237984E-04
   17.9599991       1.03863480E-03
   18.0000000       1.33947760E-03
   18.0400009       1.63623493E-03
   18.0799999       1.92424876E-03
   18.1200008       2.19880184E-03
   18.1599998       2.45518913E-03
   18.2000008       2.68879090E-03
   18.2399998       2.89514964E-03
   18.2800007       3.07004736E-03
   18.3199997       3.20958253E-03
   18.3600006       3.31024616E-03
   18.3999996       3.36899608E-03
   18.4400005       3.38332681E-03
   18.4799995       3.35133518E-03
   18.5200005       3.27177881E-03
   18.5599995       3.14412825E-03
   18.6000004       2.96860957E-03
   18.6399994       2.74623744E-03
   18.6800003       2.47883843E-03
   18.7199993       2.16906029E-03
   18.7600002       1.82037090E-03
   18.7999992       1.43704400E-03
   18.8400002       1.02413050E-03
   18.8799992       5.87416987E-04
   18.9200001       1.33372072E-04
   18.9599991      -3.30922107E-04
   19.0000000      -7.97849207E-04
   19.0400009      -1.25935080E-03
   19.0799999      -1.70702732E-03
   19.1200008      -2.13224906E-03
   19.1599998      -2.52627535E-03
   19.2000008      -2.88037816E-03
   19.2399998      -3.18597094E-03
   19.2800007      -3.43473977E-03
   19.3199997      -3.61877284E-03
   19.3600006      -3.73069057E-03
   19.3999996      -3.76377022E-03
   19.4400005      -3.71206389E-03
   19.4799995      -3.57050938E-03
   19.5200005      -3.33503168E-03
   19.5599995      -3.00263008E-03
   19.6000004      -2.57145567E-03
   19.6399994      -2.04087095E-03
   19.6800003      -1.41149515E-03
   19.7199993      -6.85233332E-04
   19.7600002       1.34713817E-04
   19.7999992       1.04385579E-03
   19.8400002       2.03643600E-03
   19.8799992       3.10547394E-03
   19.9200001       4.24282532E-03
   19.9599991       5.43925306E-03
   20.0000000       6.68452354E-03
   20.0400009       7.96750188E-03
   20.0799999       9.27627552E-03
   20.1200008       1.05982786E-02
   20.1599998       1.19204270E-02
   20.2000008       1.32292630E-02
   20.2399998       1.45111056E-02
   20.2800007       1.57521982E-02
   20.3199997       1.69388652E-02
   20.3600006       1.80576649E-02
   20.3999996       1.90955326E-02
   20.4400005       2.00399384E-02
   20.4799995       2.08790153E-02
   20.5200005       2.16016993E-02
   20.5599995       2.21978445E-02
   20.6000004       2.26583369E-02
   20.6399994       2.29751989E-02
   20.6800003       2.31416747E-02
   20.7199993       2.31522974E-02
   20.7600002       2.30029635E-02
   20.7999992       2.26909649E-02
   20.8400002       2.22150236E-02
   20.8799992       2.15753056E-02
   20.9200001       2.07734313E-02
   20.9599991       1.98124498E-02
   21.0000000       1.86968185E-02
   21.0400009       1.74323600E-02
   21.0799999       1.60262063E-02
   21.1200008       1.44867394E-02
   21.1599998       1.28235044E-02
   21.2000008       1.10471277E-02
   21.2399998       9.16921720E-03
   21.2800007       7.20225694E-03
   21.3199997       5.15949633E-03
   21.3600006       3.05482745E-03
   21.3999996       9.02660366E-04
   21.4400005      -1.28220161E-03
   21.4799995      -3.48469499E-03
   21.5200005      -5.68962842E-03
   21.5599995      -7.88181368E-03
   21.6000004      -1.00461971E-02
   21.6399994      -1.21679902E-02
   21.6800003      -1.42327975E-02
   21.7199993      -1.62267294E-02
   21.7600002      -1.81365255E-02
   21.7999992      -1.99496634E-02
   21.8400002      -2.16544531E-02
   21.8799992      -2.32401397E-02
   21.9200001      -2.46969797E-02
   21.9599991      -2.60163154E-02
   22.0000000      -2.71906406E-02
   22.0400009      -2.82136481E-02
   22.0799999      -2.90802736E-02
   22.1200008      -2.97867153E-02
   22.1599998      -3.03304605E-02
   22.2000008      -3.07102855E-02
   22.2399998      -3.09262332E-02
   22.2800007      -3.09796128E-02
   22.3199997      -3.08729522E-02
   22.3600006      -3.06099616E-02
   22.3999996      -3.01954709E-02
   22.4400005      -2.96353754E-02
   22.4799995      -2.89365575E-02
   22.5200005      -2.81068012E-02
   22.5599995      -2.71547027E-02
   22.6000004      -2.60895845E-02
   22.6399994      -2.49213818E-02
   22.6800003      -2.36605499E-02
   22.7199993      -2.23179534E-02
   22.7600002      -2.09047589E-02
   22.7999992      -1.94323268E-02
   22.8400002      -1.79120973E-02
   22.8799992      -1.63554996E-02
   22.9200001      -1.47738382E-02
   22.9599991      -1.31782051E-02
   23.0000000      -1.15793813E-02
   23.0400009      -9.98775475E-03
   23.0799999      -8.41324124E-03
   23.1200008      -6.86521130E-03
   23.1599998      -5.35243098E-03
   23.2000008      -3.88300465E-03
   23.2399998      -2.46433308E-03
   23.2800007      -1.10307464E-03
   23.3199997       1.94880631E-04
   23.3600006       1.42442842E-03
   23.3999996       2.58125970E-03
   23.4400005       3.66186141E-03
   23.4799995       4.66350606E-03
   23.5200005       5.58423949E-03
   23.5599995       6.42285682E-03
   23.6000004       7.17887143E-03
   23.6399994       7.85248261E-03
   23.6800003       8.44453089E-03
   23.7199993       8.95645656E-03
   23.7600002       9.39025078E-03
   23.7999992       9.74839646E-03
   23.8400002       1.00338254E-02
   23.8799992       1.02498522E-02
   23.9200001       1.04001248E-02
   23.9599991       1.04885623E-02
   24.0000000       1.05193025E-02
   24.0400009       1.04966434E-02
   24.0799999       1.04249939E-02
   24.1200008       1.03088208E-02
   24.1599998       1.01525988E-02
   24.2000008       9.96076968E-03
   24.2399998       9.73769929E-03
   24.2800007       9.48763825E-03
   24.3199997       9.21468623E-03
   24.3600006       8.92276783E-03
   24.3999996       8.61560088E-03
   24.4400005       8.29667971E-03
   24.4799995       7.96925556E-03
   24.5200005       7.63632357E-03
   24.5599995       7.30061159E-03
   24.6000004       6.96457829E-03
   24.6399994       6.63040951E-03
   24.6800003       6.30001910E-03
   24.7199993       5.97505737E-03
   24.7600002       5.65691479E-03
   24.7999992       5.34673501E-03
   24.8400002       5.04542654E-03
   24.8799992       4.75367764E-03
   24.9200001       4.47197352E-03
   24.9599991       4.20061219E-03
   25.0000000       3.93972406E-03
   25.0400009       3.68929165E-03
   25.0799999       3.44916899E-03
   25.1200008       3.21910041E-03
   25.1599998       2.99874158E-03
   25.2000008       2.78767757E-03
   25.2399998       2.58544157E-03
   25.2800007       2.39153416E-03
   25.3199997       2.20543751E-03
   25.3600006       2.02663196E-03
   25.3999996       1.85460947E-03
   25.4400005       1.68888725E-03
   25.4799995       1.52901688E-03
   25.5200005       1.37459405E-03
   25.5599995       1.22526602E-03
   25.6000004       1.08073675E-03
   25.6399994       9.40771424E-04
   25.6800003       8.05198564E-04
   25.7199993       6.73910487E-04
   25.7600002       5.46863070E-04
   25.7999992       4.24073311E-04
   25.8400002       3.05616413E-04
   25.8799992       1.91621177E-04
   25.9200001       8.22647926E-05
   25.9599991      -2.22335620E-05
   26.0000000      -1.21619523E-04
   26.0400009      -2.15611202E-04
   26.0799999      -3.03907058E-04
   26.1200008      -3.86194355E-04
   26.1599998      -4.62157390E-04
   26.2000008      -5.31486061E-04
   26.2399998      -5.93884091E-04
   26.2800007      -6.49077119E-04
   26.3199997      -6.96820440E-04
   26.3600006      -7.36906135E-04
   26.3999996      -7.69169768E-04
   26.4400005      -7.93496496E-04
   26.4799995      -8.09826131E-04
   26.5200005      -8.18158034E-04
   26.5599995      -8.18554778E-04
   26.6000004      -8.11145117E-04
   26.6399994      -7.96126144E-04
   26.6800003      -7.73764448E-04
   26.7199993      -7.44396297E-04
   26.7600002      -7.08426873E-04
   26.7999992      -6.66328240E-04
   26.8400002      -6.18636725E-04
   26.8799992      -5.65948954E-04
   26.9200001      -5.08916448E-04
   26.9599991      -4.48240025E-04
   27.0000000      -3.84662417E-04
   27.0400009      -3.18960374E-04
   27.0799999      -2.51935824E-04
   27.1200008      -1.84406221E-04
   27.1599998      -1.17194410E-04
   27.2000008      -5.11178841E-05
   27.2399998       1.30222361E-05
   27.2800007       7.44524586E-05
   27.3199997       1.32438116E-04
   27.3600006       1.86294361E-04
   27.3999996       2.35396918E-04
   27.4400005       2.79192114E-04
   27.4799995       3.17206228E-04
   27.5200005       3.49053793E-04
   27.5599995       3.74444586E-04
   27.6000004       3.93189490E-04
   27.6399994       4.05204482E-04
   27.6800003       4.10512934E-04
   27.7199993       4.09246306E-04
   27.7600002       4.01642523E-04
   27.7999992       3.88042681E-04
   27.8400002       3.68885463E-04
   27.8799992       3.44699918E-04
   27.9200001       3.16096208E-04
   27.9599991       2.83754838E-04
   28.0000000       2.48414261E-04
   28.0400009       2.10857441E-04
   28.0799999       1.71897234E-04
   28.1200008       1.32361223E-04
   28.1599998       9.30761889E-05
   28.2000008       5.48524404E-05
   28.2399998       1.84686396E-05
   28.2800007      -1.53429737E-05
   28.3199997      -4.59103067E-05
   28.3600006      -7.26340077E-05
   28.3999996      -9.49984242E-05
   28.4400005      -1.12580936E-04
   28.4799995      -1.25059480E-04
   28.5200005      -1.32217872E-04
   28.5599995      -1.33949099E-04
   28.6000004      -1.30256420E-04
   28.6399994      -1.21252298E-04
   28.6800003      -1.07155356E-04
   28.7199993      -8.82852401E-05
   28.7600002      -6.50558868E-05
   28.7999992      -3.79671510E-05
   28.8400002      -7.59515478E-06
   28.8799992       2.54183706E-05
   28.9200001       6.03775043E-05
   28.9599991       9.65439904E-05
   29.0000000       1.33149180E-04
   29.0400009       1.69405990E-04
   29.0799999       2.04520315E-04
   29.1200008       2.37702014E-04
   29.1599998       2.68174976E-04
   29.2000008       2.95186386E-04
   29.2399998       3.18014732E-04
   29.2800007       3.35977238E-04
   29.3199997       3.48435569E-04
   29.3600006       3.54800926E-04
   29.3999996       3.54538090E-04
   29.4400005       3.47168621E-04
   29.4799995       3.32273397E-04