  -4.80000019       0.00000000
  -4.76000023       0.00000000
  -4.71999979       0.00000000
  -4.67999983       0.00000000
  -4.63999987       0.00000000
  -4.59999990       0.00000000
  -4.55999994       0.00000000
  -4.51999998       0.00000000
  -4.48000002       0.00000000
  -4.44000006       0.00000000
  -4.40000010       0.00000000
  -4.36000013       0.00000000
  -4.32000017       0.00000000
  -4.28000021       0.00000000
  -4.23999977       0.00000000
  -4.19999981       0.00000000
  -4.15999985       0.00000000
  -4.11999989       0.00000000
  -4.07999992      -0.00000000
  -4.03999996      -1.40129846E-45
  -4.00000000      -8.40779079E-45
  -3.96000004      -5.32493416E-44
  -3.92000008      -2.64845410E-43
  -3.88000011      -1.20091278E-42
  -3.83999991      -5.01664850E-42
  -3.79999995      -1.93995759E-41
  -3.75999999      -6.94763779E-41
  -3.72000003      -2.31942922E-40
  -3.68000007      -7.25771711E-40
  -3.64000010      -2.13908211E-39
  -3.59999990      -5.96221107E-39
  -3.55999994      -1.57687528E-38
  -3.51999998      -3.96862523E-38
  -3.48000002      -9.52763005E-38
  -3.44000006      -2.18632223E-37
  -3.40000010      -4.80351930E-37
  -3.35999990      -1.01184000E-36
  -3.31999993      -2.04562097E-36
  -3.27999997      -3.97204341E-36
  -3.24000001      -7.41042932E-36
  -3.20000005      -1.32833846E-35
  -3.16000009      -2.28666181E-35
  -3.11999989      -3.77620185E-35
  -3.07999992      -5.97101654E-35
  -3.03999996      -9.01262195E-35
  -3.00000000      -1.29223150E-34
  -2.96000004      -1.74602386E-34
  -2.92000008      -2.19275017E-34
  -2.88000011      -2.49265322E-34
  -2.83999991      -2.41272397E-34
  -2.79999995      -1.61331767E-34
  -2.75999999       3.40210622E-35
  -2.72000003       3.92061942E-34
  -2.68000007       9.51402332E-34
  -2.64000010       1.72087120E-33
  -2.59999990       2.64939290E-33
  -2.55999994       3.58948771E-33
  -2.51999998       4.26171840E-33
  -2.48000002       4.23348376E-33
  -2.44000006       2.93195162E-33
  -2.40000010      -2.84566841E-34
  -2.35999990      -5.97316397E-33
  -2.31999993      -1.43570545E-32
  -2.27999997      -2.49897374E-32
  -2.24000001      -3.63799691E-32
  -2.20000005      -4.56760224E-32
  -2.16000009      -4.85627132E-32
  -2.11999989      -3.95666168E-32
  -2.07999992      -1.29679361E-32
  -2.03999996       3.55488770E-32
  -2.00000000       1.06535347E-31
  -1.96000004       1.94007620E-31
  -1.91999996       2.82912409E-31
  -1.88000000       3.47844530E-31
  -1.84000003       3.54284123E-31
  -1.79999995       2.63601129E-31
  -1.75999999       4.25933149E-32
  -1.72000003      -3.22736347E-31
  -1.67999995      -8.11097403E-31
  -1.63999999      -1.35145438E-30
  -1.60000002      -1.81597590E-30
  -1.55999994      -2.02712233E-30
  -1.51999998      -1.78477132E-30
  -1.48000002      -9.15863478E-31
  -1.44000006       6.57213202E-31
  -1.39999998       2.84183226E-30
  -1.36000001       5.31531424E-30
  -1.32000005       7.50802273E-30
  -1.27999997       8.65760880E-30
  -1.24000001       7.95302464E-30
  -1.20000005       4.76554663E-30
  -1.15999997      -1.06785659E-30
  -1.12000000      -8.97968673E-30
  -1.08000004      -1.75261506E-29
  -1.03999996      -2.44693056E-29
  -1.00000000      -2.71686574E-29
 -0.959999979      -2.32917454E-29
 -0.920000017      -1.17404419E-29
 -0.879999995       6.44338219E-30
 -0.839999974       2.75416920E-29
 -0.800000012       4.53805609E-29
 -0.759999990       5.26021843E-29
 -0.720000029       4.30280555E-29
 -0.680000007       1.47432525E-29
 -0.639999986      -2.69557218E-29
 -0.600000024      -6.80239359E-29
 -0.560000002      -8.69587523E-29
 -0.519999981      -5.99971294E-29
 -0.479999989       2.96601367E-29
 -0.439999998       1.80024833E-28
 -0.400000006       3.59194409E-28
 -0.360000014       4.99861539E-28
 -0.319999993       5.05055724E-28
 -0.280000001       2.69575544E-28
 -0.239999995      -2.81928555E-28
 -0.200000003      -1.14513002E-27
 -0.159999996      -2.18669046E-27
 -0.119999997      -3.11454361E-27
  -7.99999982E-02  -3.49054542E-27
  -3.99999991E-02  -2.80550292E-27
   2.77555756E-16  -6.25027534E-28
   3.99999991E-02   3.20636309E-27
   7.99999982E-02   8.34346440E-27
  0.119999997       1.37701218E-26
  0.159999996       1.77693384E-26
  0.200000003       1.81214862E-26
  0.239999995       1.25860493E-26
  0.280000001      -3.45752453E-28
  0.319999993      -2.05394543E-26
  0.360000014      -4.53712179E-26
  0.400000006      -6.92646129E-26
  0.439999998      -8.39621393E-26
  0.479999989      -7.98175072E-26
  0.519999981      -4.82017402E-26
  0.560000002       1.52027795E-26
  0.600000024       1.06843715E-25
  0.639999986       2.12488436E-25
  0.680000007       3.06420471E-25
  0.720000029       3.53860076E-25
  0.759999990       3.17377699E-25
  0.800000012       1.67170978E-25
  0.839999974      -1.06197626E-25
  0.879999995      -4.79404577E-25
  0.920000017      -8.88284003E-25
  0.959999979      -1.22846607E-24
   1.00000000      -1.36843179E-24
   1.03999996      -1.17649059E-24
   1.08000004      -5.59617137E-25
   1.12000000       4.92386812E-25
   1.15999997       1.86832002E-24
   1.20000005       3.31643475E-24
   1.24000001       4.45844225E-24
   1.27999997       4.84619106E-24
   1.32000005       4.06169295E-24
   1.36000001       1.84855926E-24
   1.39999998      -1.75108819E-24
   1.44000006      -6.29215456E-24
   1.48000002      -1.08975407E-23
   1.51999998      -1.43420529E-23
   1.55999994      -1.52677354E-23
   1.60000002      -1.25172441E-23
   1.63999999      -5.53215216E-24
   1.67999995       5.27656043E-24
   1.72000003       1.83043924E-23
   1.75999999       3.07951008E-23
   1.79999995       3.92316211E-23
   1.84000003       4.00867873E-23
   1.88000000       3.08379864E-23
   1.91999996       1.10351370E-23
   1.96000004      -1.68831506E-23
   2.00000000      -4.73667586E-23
   2.03999996      -7.24109183E-23
   2.07999992      -8.32099255E-23
   2.11999989      -7.26625081E-23
   2.16000009      -3.82495460E-23
   2.20000005       1.54974864E-23
   2.24000001       7.58971660E-23
   2.27999997       1.23311405E-22
   2.31999993       1.35172023E-22
   2.35999990       9.27100827E-23
   2.40000010      -1.06920243E-23
   2.44000006      -1.61582947E-22
   2.48000002      -3.21790045E-22
   2.51999998      -4.30052483E-22
   2.55999994      -4.12305662E-22
   2.59999990      -2.01241585E-22
   2.64000010       2.36860876E-22
   2.68000007       8.73227774E-22
   2.72000003       1.59393817E-21
   2.75999999       2.19359473E-21
   2.79999995       2.39510227E-21
   2.83999991       1.90178920E-21
   2.88000011       4.81323494E-22
   2.92000008      -1.92913584E-21
   2.96000004      -5.11795790E-21
   3.00000000      -8.52542422E-21
   3.03999996      -1.12377422E-20
   3.07999992      -1.20816587E-20
   3.11999989      -9.83899431E-21
   3.16000009      -3.57468848E-21
   3.20000005       6.96202298E-21
   3.24000001       2.09422389E-20
   3.27999997       3.61795164E-20
   3.31999993       4.90973634E-20
   3.35999990       5.50596683E-20
   3.40000010       4.91338757E-20
   3.44000006       2.72722417E-20
   3.48000002      -1.22206937E-20
   3.51999998      -6.71930573E-20
   3.55999994      -1.30503148E-19
   3.59999990      -1.89669490E-19
   3.64000010      -2.27733137E-19
   3.68000007      -2.25621551E-19
   3.72000003      -1.66035531E-19
   3.75999999      -3.85148541E-20
   3.79999995       1.55092940E-19
   3.83999991       3.95942124E-19
   3.88000011       6.45734771E-19
   3.92000008       8.47977484E-19
   3.96000004       9.34123485E-19
   4.00000000       8.35030195E-19
   4.03999996       4.97091552E-19
   4.07999992      -9.89670033E-20
   4.11999989      -9.19994413E-19
   4.15999985      -1.86750768E-18
   4.19999981      -2.77490434E-18
   4.23999977      -3.41921786E-18
   4.28000021      -3.55014959E-18
   4.32000017      -2.93614893E-18
   4.36000013      -1.42343039E-18
   4.40000010       1.00055415E-18
   4.44000006       4.15174853E-18
   4.48000002       7.61731849E-18
   4.51999998       1.07619664E-17
   4.55999994       1.27849565E-17
   4.59999990       1.28332605E-17
   4.63999987       1.01658595E-17
   4.67999983       4.35165451E-18
   4.71999979      -4.52966461E-18
   4.76000023      -1.57253503E-17
   4.80000019      -2.77332417E-17
   4.84000015      -3.83558488E-17
   4.88000011      -4.49172374E-17
   4.92000008      -4.46513120E-17
   4.96000004      -3.52375897E-17
   5.00000000      -1.54228603E-17
   5.03999996       1.43704318E-17
   5.07999992       5.15766104E-17
   5.11999989       9.12986572E-17
   5.15999985       1.26525983E-16
   5.19999981       1.48841503E-16
   5.23999977       1.49629138E-16
   5.28000021       1.21698690E-16
   5.32000017       6.11366610E-17
   5.36000013      -3.09105517E-17
   5.40000010      -1.46887305E-16
   5.44000006      -2.72305052E-16
   5.48000002      -3.86388161E-16
   5.51999998      -4.64113122E-16
   5.55999994      -4.79659829E-16
   5.59999990      -4.11027635E-16
   5.63999987      -2.45285521E-16
   5.67999983       1.63522258E-17
   5.71999979       3.54620137E-16
   5.76000023       7.30524518E-16
   5.80000019       1.08682692E-15
   5.84000015       1.35329670E-15
   5.88000011       1.45579934E-15
   5.92000008       1.32861618E-15
   5.96000004       9.28633454E-16
   6.00000000       2.49328674E-16
   6.03999996      -6.68015551E-16
   6.07999992      -1.72861891E-15
   6.11999989      -2.78650207E-15
   6.15999985      -3.65646293E-15
   6.19999981      -4.13611313E-15
   6.23999977      -4.03666892E-15
   6.28000021      -3.21934629E-15
   6.32000017      -1.63240338E-15
   6.36000013       6.57473591E-16
   6.40000010       3.44626662E-15
   6.44000006       6.39258984E-15
   6.48000002       9.04115599E-15
   6.51999998       1.08714485E-14
   6.55999994       1.13694039E-14
   6.59999990       1.01154563E-14
   6.63999987       6.87789483E-15
   6.67999983       1.69709181E-15
   6.71999979      -5.05573637E-15
   6.76000023      -1.26609843E-14
   6.80000019      -2.00867545E-14
   6.84000015      -2.60849403E-14
   6.88000011      -2.93449753E-14
   6.92000008      -2.86929666E-14
   6.96000004      -2.33135942E-14
   7.00000000      -1.29635326E-14
   7.03999996       1.86025863E-15
   7.07999992       1.98345961E-14
   7.11999989       3.88383072E-14
   7.15999985       5.61144488E-14
   7.19999981       6.85692551E-14
   7.23999977       7.31884510E-14
   7.28000021       6.75296001E-14
   7.32000017       5.02273089E-14
   7.36000013       2.14344059E-14
   7.40000010      -1.68841026E-14
   7.44000006      -6.08802356E-14
   7.48000002      -1.05031503E-13
   7.51999998      -1.42651516E-13
   7.55999994      -1.66683304E-13
   7.59999990      -1.70706575E-13
   7.63999987      -1.50045178E-13
   7.67999983      -1.02822685E-13
   7.71999979      -3.07935982E-14
   7.76000023       6.02198142E-14
   7.80000019       1.60425601E-13
   7.84000015       2.56780030E-13
   7.88000011       3.34329976E-13
   7.92000008       3.78089839E-13
   7.96000004       3.75266956E-13
   8.00000000       3.17561136E-13
   8.03999996       2.03206863E-13
   8.07999992       3.84062966E-14
   8.11999989      -1.62167073E-13
   8.15999985      -3.76029259E-13
   8.19999981      -5.74812767E-13
   8.23999977      -7.27387118E-13
   8.27999973      -8.03912709E-13
   8.31999969      -7.80383841E-13
   8.35999966      -6.43075003E-13
   8.39999962      -3.92221412E-13
   8.43999958      -4.42705260E-14
   8.47999954       3.67849306E-13
   8.52000046       7.96796873E-13
   8.56000042       1.18528787E-12
   8.60000038       1.47268558E-12
   8.64000034       1.60309125E-12
   8.68000031       1.53398399E-12
   8.72000027       1.24425763E-12
   8.76000023       7.40400959E-13
   8.80000019       5.96696493E-14
   8.84000015      -7.30643085E-13
   8.88000011      -1.53829250E-12
   8.92000008      -2.25541634E-12
   8.96000004      -2.77137970E-12
   9.00000000      -2.98780250E-12
   9.03999996      -2.83391344E-12
   9.07999992      -2.28012466E-12
   9.11999989      -1.34764281E-12
   9.15999985      -1.12246888E-13
   9.19999981       1.29906827E-12
   9.23999977       2.71903355E-12
   9.27999973       3.95805567E-12
   9.31999969       4.82754245E-12
   9.35999966       5.16597095E-12
   9.39999962       4.86440315E-12
   9.43999958       3.88775470E-12
   9.47999954       2.28834941E-12
   9.52000046       2.08916055E-13
   9.56000042      -2.12663416E-12
   9.60000038      -4.43477243E-12
   9.64000034      -6.40465762E-12
   9.68000031      -7.73785723E-12
   9.72000027      -8.19074669E-12
   9.76000023      -7.61389042E-12
   9.80000019      -5.98257164E-12
   9.84000015      -3.41314086E-12
   9.88000011      -1.61399594E-13
   9.92000008       3.39872488E-12
   9.96000004       6.81526927E-12
   10.0000000       9.61338908E-12
   10.0400000       1.13593458E-11
   10.0799999       1.17251252E-11
   10.1199999       1.05445652E-11
   10.1599998       7.85209831E-12
   10.1999998       3.89680172E-12
   10.2399998      -8.72791856E-13
   10.2799997      -5.85389983E-12
   10.3199997      -1.03612761E-11
   10.3599997      -1.37178732E-11
   10.3999996      -1.53532378E-11
   10.4399996      -1.48961087E-11
   10.4799995      -1.22471920E-11
   10.5200005      -7.61950485E-12
   10.5600004      -1.53703157E-12
   10.6000004       5.21236483E-12
   10.6400003       1.16676399E-11
   10.6800003       1.68201113E-11
   10.7200003       1.97590364E-11
   10.7600002       1.98179546E-11
   10.8000002       1.67002558E-11
   10.8400002       1.05633184E-11
   10.8800001       2.04423609E-12
   10.9200001      -7.78296091E-12
   10.9600000      -1.75198710E-11
   11.0000000      -2.56171542E-11
   11.0400000      -3.05901381E-11
   11.0799999      -3.12495689E-11
   11.1199999      -2.69153883E-11
   11.1599998      -1.75802081E-11
   11.1999998      -3.99293706E-12
   11.2399998       1.23588535E-11
   11.2799997       2.93767788E-11
   11.3199997       4.45838436E-11
   11.3599997       5.54393580E-11
   11.3999996       5.97006403E-11
   11.4399996       5.57849947E-11
   11.4799995       4.30800742E-11
   11.5200005       2.21526339E-11
   11.5600004      -5.18554947E-12
   11.6000004      -3.59799933E-11
   11.6400003      -6.64084343E-11
   11.6800003      -9.22089280E-11
   11.7200003      -1.09218239E-10
   11.7600002      -1.13957489E-10
   11.8000002      -1.04189130E-10
   11.8400002      -7.93650146E-11
   11.8800001      -4.08927024E-11
   11.9200001       7.83573987E-12
   11.9600000       6.16806745E-11
   12.0000000       1.14252351E-10
   12.0400000       1.58627486E-10
   12.0799999       1.88209656E-10
   12.1199999       1.97631703E-10
   12.1599998       1.83582496E-10
   12.1999998       1.45440632E-10
   12.2399998       8.56119620E-11
   12.2799997       9.49945331E-12
   12.3199997      -7.49237478E-11
   12.3599997      -1.57916097E-10
   12.3999996      -2.29070402E-10
   12.4399996      -2.78597340E-10
   12.4799995      -2.98634811E-10
   12.5200005      -2.84412660E-10
   12.5600004      -2.35108238E-10
   12.6000004      -1.54254789E-10
   12.6400003      -4.96148504E-11
   12.6800003       6.75055914E-11
   12.7200003       1.83454113E-10
   12.7600002       2.83820467E-10
   12.8000002       3.55236701E-10
   12.8400002       3.87167215E-10
   12.8800001       3.73453213E-10
   12.9200001       3.13391008E-10
   12.9600000       2.12170712E-10
   13.0000000       8.05737005E-11
   13.0400000      -6.60817651E-11
   13.0799999      -2.09657888E-10
   13.1199999      -3.31396022E-10
   13.1599998      -4.14339035E-10
   13.1999998      -4.45672610E-10
   13.2399998      -4.18672041E-10
   13.2799997      -3.33971240E-10
   13.3199997      -1.99943118E-10
   13.3599997      -3.20829405E-11
   13.3999996       1.48589807E-10
   13.4399996       3.17964099E-10
   13.4799995       4.51839344E-10
   13.5200005       5.29139843E-10
   13.5600004       5.34932820E-10
   13.6000004       4.62842820E-10
   13.6400003       3.16505877E-10
   13.6800003       1.09812562E-10
   13.7200003      -1.34172520E-10
   13.7600002      -3.85558890E-10
   13.8000002      -6.11024564E-10
   13.8400002      -7.77885534E-10
   13.8800001      -8.58357940E-10
   13.9200001      -8.33480340E-10
   13.9600000      -6.96169955E-10
   14.0000000      -4.52971771E-10
   14.0400000      -1.24196986E-10
   14.0799999       2.57661892E-10
   14.1199999       6.51141530E-10
   14.1599998       1.01033215E-09
   14.1999998       1.29022137E-09
   14.2399998       1.45223245E-09
   14.2799997       1.46927470E-09
   14.3199997       1.32964950E-09
   14.3599997       1.03926656E-09
   14.3999996       6.21813101E-10
   14.4399996       1.16754093E-10
   14.4799995      -4.24684565E-10
   14.5200005      -9.45141743E-10
   14.5600004      -1.38772394E-09
   14.6000004      -1.70279990E-09
   14.6400003      -1.85414906E-09
   14.6800003      -1.82365978E-09
   14.7200003      -1.61393443E-09
   14.7600002      -1.24838662E-09
   14.8000002      -7.68719866E-10
   14.8400002      -2.30005029E-10
   14.8800001       3.06112635E-10
   14.9200001       7.79285192E-10
   14.9600000       1.13844945E-09
   15.0000000       1.34891553E-09
   15.0400000       1.39760548E-09
   15.0799999       1.29569555E-09
   15.1199999       1.07820775E-09
   15.1599998       8.00461419E-10
   15.1999998       5.31696187E-10
   15.2399998       3.46529749E-10
   15.2799997       3.15221155E-10
   15.3199997       4.93874885E-10
   15.3599997       9.15767462E-10
   15.3999996       1.58485181E-09
   15.4399996       2.47224619E-09
   15.4799995       3.51613605E-09
   15.5200005       4.62506877E-09
   15.5600004       5.68416914E-09
   15.6000004       6.56338806E-09
   15.6400003       7.12658954E-09
   15.6800003       7.24007165E-09
   15.7200003       6.77917011E-09
   15.7600002       5.63174352E-09
   15.8000002       3.69762998E-09
   15.8400002       8.83655482E-10
   15.8800001      -2.90577873E-09
   15.9200001      -7.78191023E-09
   15.9600000      -1.38877834E-08
   16.0000000      -2.14161240E-08
   16.0400009      -3.06275822E-08
   16.0799999      -4.18682724E-08
   16.1200008      -5.55857653E-08
   16.1599998      -7.23430489E-08
   16.2000008      -9.28308879E-08
   16.2399998      -1.17879473E-07
   16.2800007      -1.48470477E-07
   16.3199997      -1.85751816E-07
   16.3600006      -2.31057570E-07
   16.3999996      -2.85933965E-07
   16.4400005      -3.52175277E-07
   16.4799995      -4.31870035E-07
   16.5200005      -5.27458610E-07
   16.5599995      -6.41803751E-07
   16.6000004      -7.78272010E-07
   16.6399994      -9.40827420E-07
   16.6800003      -1.13413478E-06
   16.7199993      -1.36367180E-06
   16.7600002      -1.63584991E-06
   16.7999992      -1.95814141E-06
   16.8400002      -2.33921446E-06
   16.8799992      -2.78907646E-06
   16.9200001      -3.31922320E-06
   16.9599991      -3.94280323E-06
   17.0000000      -4.67478867E-06
   17.0400009      -5.53216705E-06
   17.0799999      -6.53414008E-06
   17.1200008      -7.70234692E-06
   17.1599998      -9.06109562E-06
   17.2000008      -1.06376137E-05
   17.2399998      -1.24623057E-05
   17.2800007      -1.45690092E-05
   17.3199997      -1.69952655E-05
   17.3600006      -1.97825611E-05
   17.3999996      -2.29765628E-05
   17.4400005      -2.66273182E-05
   17.4799995      -3.07894225E-05
   17.5200005      -3.55221346E-05
   17.5599995      -4.08894193E-05
   17.6000004      -4.69599654E-05
   17.6399994      -5.38070781E-05
   17.6800003      -6.15084937E-05
   17.7199993      -7.01461468E-05
   17.7600002      -7.98057590E-05
   17.7999992      -9.05763663E-05
   17.8400002      -1.02549689E-04
   17.8799992      -1.15819406E-04
   17.9200001      -1.30480243E-04
   17.9599991      -1.46626917E-04
   18.0000000      -1.64352881E-04
   18.0400009      -1.83749042E-04
   18.0799999      -2.04902113E-04
   18.1200008      -2.27892830E-04
   18.1599998      -2.52794183E-04
   18.2000008      -2.79669242E-04
   18.2399998      -3.08568997E-04
   18.2800007      -3.39529943E-04
   18.3199997      -3.72571667E-04
   18.3600006      -4.07694344E-04
   18.3999996      -4.44876234E-04
   18.4400005      -4.84071003E-04
   18.4799995      -5.25205338E-04
   18.5200005      -5.68176620E-04
   18.5599995      -6.12850534E-04
   18.6000004      -6.59059151E-04
   18.6399994      -7.06599327E-04
   18.6800003      -7.55230954E-04
   18.7199993      -8.04675976E-04
   18.7600002      -8.54617974E-04
   18.7999992      -9.04701825E-04
   18.8400002      -9.54534160E-04
   18.8799992      -1.00368401E-03
   18.9200001      -1.05168473E-03
   18.9599991      -1.09803595E-03
   19.0000000      -1.14220695E-03
   19.0400009      -1.18363916E-03
   19.0799999      -1.22175179E-03
   19.1200008      -1.25594565E-03
   19.1599998      -1.28561002E-03
   19.2000008      -1.31012755E-03
   19.2399998      -1.32888253E-03
   19.2800007      -1.34126749E-03
   19.3199997      -1.34669163E-03
   19.3600006      -1.34458917E-03
   19.3999996      -1.33442739E-03
   19.4400005      -1.31571630E-03
   19.4799995      -1.28801656E-03
   19.5200005      -1.25094852E-03
   19.5599995      -1.20420067E-03
   19.6000004      -1.14753714E-03
   19.6399994      -1.08080567E-03
   19.6800003      -1.00394385E-03
   19.7199993      -9.16985038E-04
   19.7600002      -8.20063287E-04
   19.7999992      -7.13416724E-04
   19.8400002      -5.97390521E-04
   19.8799992      -4.72437416E-04
   19.9200001      -3.39117978E-04
   19.9599991      -1.98098525E-04
   20.0000000      -5.01479481E-05
   20.0400009       1.03867023E-04
   20.0799999       2.62988207E-04
   20.1200008       4.26173734E-04
   20.1599998       5.92307304E-04
   20.2000008       7.60208641E-04
   20.2399998       9.28645546E-04
   20.2800007       1.09634642E-03
   20.3199997       1.26201450E-03
   20.3600006       1.42434193E-03
   20.3999996       1.58202567E-03
   20.4400005       1.73378189E-03
   20.4799995       1.87836215E-03
   20.5200005       2.01456831E-03
   20.5599995       2.14126799E-03
   20.6000004       2.25740811E-03
   20.6399994       2.36202916E-03
   20.6800003       2.45427643E-03
   20.7199993       2.53341207E-03
   20.7600002       2.59882375E-03
   20.7999992       2.65003252E-03
   20.8400002       2.68669939E-03
   20.8799992       2.70862947E-03
   20.9200001       2.71577365E-03
   20.9599991       2.70822877E-03
   21.0000000       2.68623722E-03
   21.0400009       2.65018083E-03
   21.0799999       2.60057696E-03
   21.1200008       2.53807032E-03
   21.1599998       2.46342272E-03
   21.2000008       2.37750425E-03
   21.2399998       2.28127767E-03
   21.2800007       2.17578816E-03
   21.3199997       2.06214655E-03
   21.3600006       1.94151467E-03
   21.3999996       1.81508856E-03
   21.4400005       1.68408325E-03
   21.4799995       1.54971529E-03
   21.5200005       1.41318724E-03
   21.5599995       1.27567211E-03
   21.6000004       1.13829772E-03
   21.6399994       1.00213324E-03
   21.6800003       8.68176110E-04
   21.7199993       7.37339840E-04
   21.7600002       6.10444520E-04
   21.7999992       4.88207297E-04
   21.8400002       3.71236150E-04
   21.8799992       2.60024157E-04
   21.9200001       1.54946130E-04
   21.9599991       5.62570094E-05
   22.0000000      -3.59080841E-05
   22.0400009      -1.21531826E-04
   22.0799999      -2.00711103E-04
   22.1200008      -2.73651734E-04
   22.1599998      -3.40661558E-04
   22.2000008      -4.02142090E-04
   22.2399998      -4.58579074E-04
   22.2800007      -5.10531594E-04
   22.3199997      -5.58620319E-04
   22.3600006      -6.03515131E-04
   22.3999996      -6.45921915E-04
   22.4400005      -6.86568615E-04
   22.4799995      -7.26191967E-04
   22.5200005      -7.65523175E-04
   22.5599995      -8.05274409E-04
   22.6000004      -8.46125593E-04
   22.6399994      -8.88711133E-04
   22.6800003      -9.33608040E-04
   22.7199993      -9.81324818E-04
   22.7600002      -1.03229098E-03
   22.7999992      -1.08684762E-03
   22.8400002      -1.14524015E-03
   22.8799992      -1.20761129E-03
   22.9200001      -1.27399643E-03
   22.9599991      -1.34431943E-03
   23.0000000      -1.41839148E-03
   23.0400009      -1.49590964E-03
   23.0799999      -1.57645927E-03
   23.1200008      -1.65951625E-03
   23.1599998      -1.74445147E-03
   23.2000008      -1.83053792E-03
   23.2399998      -1.91695651E-03
   23.2800007      -2.00280710E-03
   23.3199997      -2.08711764E-03
   23.3600006      -2.16885633E-03
   23.3999996      -2.24694423E-03
   23.4400005      -2.32026959E-03
   23.4799995      -2.38770130E-03
   23.5200005      -2.44810479E-03
   23.5599995      -2.50035687E-03
   23.6000004      -2.54336256E-03
   23.6399994      -2.57606991E-03
   23.6800003      -2.59748520E-03
   23.7199993      -2.60668900E-03
   23.7600002      -2.60284985E-03
   23.7999992      -2.58523808E-03
   23.8400002      -2.55323853E-03
   23.8799992      -2.50636251E-03
   23.9200001      -2.44425586E-03
   23.9599991      -2.36670952E-03
   24.0000000      -2.27366551E-03
   24.0400009      -2.16522138E-03
   24.0799999      -2.04163417E-03
   24.1200008      -1.90332113E-03
   24.1599998      -1.75085862E-03
   24.2000008      -1.58497994E-03
   24.2399998      -1.40656938E-03
   24.2800007      -1.21665606E-03
   24.3199997      -1.01640483E-03
   24.3600006      -8.07105273E-04
   24.3999996      -5.90159674E-04
   24.4400005      -3.67068715E-04
   24.4799995      -1.39416094E-04
   24.5200005       9.11480674E-05
   24.5599995       3.22924461E-04
   24.6000004       5.54183614E-04
   24.6399994       7.83183903E-04
   24.6800003       1.00819115E-03
   24.7199993       1.22749736E-03
   24.7600002       1.43943937E-03
   24.7999992       1.64241728E-03
   24.8400002       1.83491153E-03
   24.8799992       2.01549823E-03
   24.9200001       2.18286552E-03
   24.9599991       2.33582640E-03
   25.0000000       2.47332919E-03
   25.0400009       2.59446912E-03
   25.0799999       2.69849505E-03
   25.1200008       2.78481608E-03
   25.1599998       2.85300380E-03
   25.2000008       2.90279509E-03
   25.2399998       2.93409126E-03
   25.2800007       2.94695445E-03
   25.3199997       2.94160424E-03
   25.3600006       2.91841081E-03
   25.3999996       2.87788548E-03
   25.4400005       2.82067270E-03
   25.4799995       2.74753780E-03
   25.5200005       2.65935552E-03
   25.5599995       2.55709584E-03
   25.6000004       2.44181207E-03
   25.6399994       2.31462577E-03
   25.6800003       2.17671250E-03
   25.7199993       2.02928949E-03
   25.7600002       1.87360006E-03
   25.7999992       1.71090255E-03
   25.8400002       1.54245715E-03
   25.8799992       1.36951520E-03
   25.9200001       1.19330885E-03
   25.9599991       1.01504277E-03
   26.0000000       8.35885410E-04
   26.0400009       6.56963792E-04
   26.0799999       4.79357608E-04
   26.1200008       3.04095302E-04
   26.1599998       1.32151370E-04
   26.2000008      -3.55554657E-05
   26.2399998      -1.98163034E-04
   26.2800007      -3.54866119E-04
   26.3199997      -5.04916243E-04
   26.3600006      -6.47620182E-04
   26.3999996      -7.82339368E-04
   26.4400005      -9.08488641E-04
   26.4799995      -1.02553482E-03
   26.5200005      -1.13299617E-03
   26.5599995      -1.23044115E-03
   26.6000004      -1.31748896E-03
   26.6399994      -1.39380945E-03
   26.6800003      -1.45912380E-03
   26.7199993      -1.51320559E-03
   26.7600002      -1.55588309E-03
   26.7999992      -1.58704107E-03
   26.8400002      -1.60662341E-03
   26.8799992      -1.61463558E-03
   26.9200001      -1.61114777E-03
   26.9599991      -1.59629749E-03
   27.0000000      -1.57029205E-03
   27.0400009      -1.53341005E-03
   27.0799999      -1.48600375E-03
   27.1200008      -1.42849959E-03
   27.1599998      -1.36139710E-03
   27.2000008      -1.28526916E-03
   27.2399998      -1.20075850E-03
   27.2800007      -1.10857433E-03
   27.3199997      -1.00948836E-03
   27.3600006      -9.04327841E-04
   27.3999996      -7.93968677E-04
   27.4400005      -6.79327466E-04
   27.4799995      -5.61351539E-04
   27.5200005      -4.41009004E-04
   27.5599995      -3.19277606E-04
   27.6000004      -1.97133617E-04
   27.6399994      -7.55398651E-05
   27.6800003       4.45657861E-05
   27.7199993       1.62281853E-04
   27.7600002       2.76754232E-04
   27.7999992       3.87186330E-04
   27.8400002       4.92847932E-04
   27.8799992       5.93083561E-04
   27.9200001       6.87318505E-04
   27.9599991       7.75063876E-04
   28.0000000       8.55919847E-04
   28.0400009       9.29576752E-04
   28.0799999       9.95815266E-04
   28.1200008       1.05450372E-03
   28.1599998       1.10559410E-03
   28.2000008       1.14911667E-03
   28.2399998       1.18517340E-03
   28.2800007       1.21392868E-03
   28.3199997       1.23560114E-03
   28.3600006       1.25045236E-03
   28.3999996       1.25877722E-03
   28.4400005       1.26089272E-03
   28.4799995       1.25712727E-03
   28.5200005       1.24781055E-03
   28.5599995       1.23326341E-03
   28.6000004       1.21378968E-03
   28.6399994       1.18966913E-03
   28.6800003       1.16114994E-03
   28.7199993       1.12844608E-03
   28.7600002       1.09173357E-03
   28.7999992       1.05114991E-03
   28.8400002       1.00679486E-03
   28.8799992       9.58733377E-04
   28.9200001       9.06999921E-04
   28.9599991       8.51604738E-04
   29.0000000       7.92540843E-04
   29.0400009       7.29793159E-04
   29.0799999       6.63347484E-04
   29.1200008       5.93200908E-04
   29.1599998       5.19372057E-04
   29.2000008       4.41911398E-04
   29.2399998       3.60911159E-04
   29.2800007       2.76514329E-04
   29.3199997       1.88922932E-04
   29.3600006       9.84046128E-05
   29.3999996       5.29789804E-06
   29.4400005      -8.99845836E-05
   29.4799995      -1.86954858E-04
   29.5200005      -2.85050308E-04