  -4.80000019       0.00000000
  -4.76000023       0.00000000
  -4.71999979       0.00000000
  -4.67999983       0.00000000
  -4.63999987       0.00000000
  -4.59999990       0.00000000
  -4.55999994       0.00000000
  -4.51999998       0.00000000
  -4.48000002       0.00000000
  -4.44000006       5.65999213E-29
  -4.40000010       9.02185994E-28
  -4.36000013       7.35676504E-27
  -4.32000017       4.06220441E-26
  -4.28000021       1.69300138E-25
  -4.23999977       5.60800675E-25
  -4.19999981       1.50720790E-24
  -4.15999985       3.25689764E-24
  -4.11999989       5.28444865E-24
  -4.07999992       4.49074019E-24
  -4.03999996      -7.84114724E-24
  -4.00000000      -4.88853916E-23
  -3.96000004      -1.41424080E-22
  -3.92000008      -2.92505383E-22
  -3.88000011      -4.30837709E-22
  -3.83999991      -2.71615336E-22
  -3.79999995       9.20019519E-22
  -3.75999999       4.66612866E-21
  -3.72000003       1.36364375E-20
  -3.68000007       3.18153245E-20
  -3.64000010       6.40592642E-20
  -3.59999990       1.14412301E-19
  -3.55999994       1.82416318E-19
  -3.51999998       2.56778860E-19
  -3.48000002       3.06365210E-19
  -3.44000006       2.69771722E-19
  -3.40000010       4.67991616E-20
  -3.35999990      -5.02221520E-19
  -3.31999993      -1.54072656E-18
  -3.27999997      -3.21398773E-18
  -3.24000001      -5.57266037E-18
  -3.20000005      -8.45983917E-18
  -3.16000009      -1.13720650E-17
  -3.11999989      -1.33234428E-17
  -3.07999992      -1.27646815E-17
  -3.03999996      -7.63021424E-18
  -3.00000000       4.40217871E-18
  -2.96000004       2.53647176E-17
  -2.92000008       5.61336940E-17
  -2.88000011       9.52940785E-17
  -2.83999991       1.37905183E-16
  -2.79999995       1.74481879E-16
  -2.75999999       1.90642685E-16
  -2.72000003       1.67956390E-16
  -2.68000007       8.64869211E-17
  -2.64000010      -7.06660397E-17
  -2.59999990      -3.10935525E-16
  -2.55999994      -6.24668640E-16
  -2.51999998      -9.77744531E-16
  -2.48000002      -1.30655414E-15
  -2.44000006      -1.51793852E-15
  -2.40000010      -1.49668149E-15
  -2.35999990      -1.12243989E-15
  -2.31999993      -2.96449673E-16
  -2.27999997       1.02403488E-15
  -2.24000001       2.78853029E-15
  -2.20000005       4.82126071E-15
  -2.16000009       6.80438634E-15
  -2.11999989       8.28725431E-15
  -2.07999992       8.73057272E-15
  -2.03999996       7.58956937E-15
  -2.00000000       4.43246158E-15
  -1.96000004      -9.19329115E-16
  -1.91999996      -8.25316462E-15
  -1.88000000      -1.68617798E-14
  -1.84000003      -2.55107215E-14
  -1.79999995      -3.25094328E-14
  -1.75999999      -3.59063229E-14
  -1.72000003      -3.38067621E-14
  -1.67999995      -2.47844669E-14
  -1.63999999      -8.32580278E-15
  -1.60000002       1.47801947E-14
  -1.55999994       4.22084581E-14
  -1.51999998       7.01196235E-14
  -1.48000002       9.35074636E-14
  -1.44000006       1.06890510E-13
  -1.39999998       1.05293954E-13
  -1.36000001       8.53878803E-14
  -1.32000005       4.65750553E-14
  -1.27999997      -8.22393775E-15
  -1.24000001      -7.23404287E-14
  -1.20000005      -1.35876580E-13
  -1.15999997      -1.87048985E-13
  -1.12000000      -2.14264723E-13
  -1.08000004      -2.08645791E-13
  -1.03999996      -1.66540718E-13
  -1.00000000      -9.14457515E-14
 -0.959999979       5.25595125E-15
 -0.920000017       1.05207923E-13
 -0.879999995       1.85855563E-13
 -0.839999974       2.24912049E-13
 -0.800000012       2.05903382E-13
 -0.759999990       1.23766083E-13
 -0.720000029      -1.08163177E-14
 -0.680000007      -1.69711128E-13
 -0.639999986      -3.09400942E-13
 -0.600000024      -3.77383590E-13
 -0.560000002      -3.22630838E-13
 -0.519999981      -1.08828060E-13
 -0.479999989       2.71864914E-13
 -0.439999998       7.87521741E-13
 -0.400000006       1.36087832E-12
 -0.360000014       1.87234364E-12
 -0.319999993       2.17335048E-12
 -0.280000001       2.11002006E-12
 -0.239999995       1.55492752E-12
 -0.200000003       4.42444204E-13
 -0.159999996      -1.19874076E-12
 -0.119999997      -3.22336081E-12
  -7.99999982E-02  -5.36473947E-12
  -3.99999991E-02  -7.25277781E-12
   2.77555756E-16  -8.45688276E-12
   3.99999991E-02  -8.55152494E-12
   7.99999982E-02  -7.19717211E-12
  0.119999997      -4.22475770E-12
  0.159999996       2.91415329E-13
  0.200000003       5.98846493E-12
  0.239999995       1.22117186E-11
  0.280000001       1.80628897E-11
  0.319999993       2.25014851E-11
  0.360000014       2.44918894E-11
  0.400000006       2.31790160E-11
  0.439999998       1.80670322E-11
  0.479999989       9.17080994E-12
  0.519999981      -2.89085726E-12
  0.560000002      -1.68860672E-11
  0.600000024      -3.10601857E-11
  0.639999986      -4.33265993E-11
  0.680000007      -5.15416876E-11
  0.720000029      -5.38312277E-11
  0.759999990      -4.89222968E-11
  0.800000012      -3.64273507E-11
  0.839999974      -1.70283527E-11
  0.879999995       7.48162816E-12
  0.920000017       3.43235822E-11
  0.959999979       6.00247282E-11
   1.00000000       8.08510273E-11
   1.03999996       9.33280883E-11
   1.08000004       9.47793025E-11
   1.12000000       8.38003278E-11
   1.15999997       6.05916359E-11
   1.20000005       2.70858197E-11
   1.24000001      -1.31672043E-11
   1.27999997      -5.53600013E-11
   1.32000005      -9.39984063E-11
   1.36000001      -1.23615326E-10
   1.39999998      -1.39534093E-10
   1.44000006      -1.38574319E-10
   1.48000002      -1.19596846E-10
   1.51999998      -8.38005915E-11
   1.55999994      -3.47166670E-11
   1.60000002       2.21155629E-11
   1.63999999       7.97618360E-11
   1.67999995       1.30726791E-10
   1.72000003       1.67906966E-10
   1.75999999       1.85542914E-10
   1.79999995       1.80046880E-10
   1.84000003       1.50595661E-10
   1.88000000       9.94036103E-11
   1.91999996       3.16288974E-11
   1.96000004      -4.50914653E-11
   2.00000000      -1.21438956E-10
   2.03999996      -1.87464572E-10
   2.07999992      -2.33782937E-10
   2.11999989      -2.52779186E-10
   2.16000009      -2.39688547E-10
   2.20000005      -1.93415825E-10
   2.24000001      -1.16980037E-10
   2.27999997      -1.75007751E-11
   2.31999993       9.43129672E-11
   2.35999990       2.05160111E-10
   2.40000010       3.00562658E-10
   2.44000006       3.66573161E-10
   2.48000002       3.91598309E-10
   2.51999998       3.68124226E-10
   2.55999994       2.94113650E-10
   2.59999990       1.73853335E-10
   2.64000010       1.80722364E-11
   2.68000007      -1.56775565E-10
   2.72000003      -3.30071720E-10
   2.75999999      -4.79328077E-10
   2.79999995      -5.82988768E-10
   2.83999991      -6.23407770E-10
   2.88000011      -5.89605809E-10
   2.92000008      -4.79389139E-10
   2.96000004      -3.00458269E-10
   3.00000000      -7.02399180E-11
   3.03999996       1.85662624E-10
   3.07999992       4.36310960E-10
   3.11999989       6.49269749E-10
   3.16000009       7.94968147E-10
   3.20000005       8.50984838E-10
   3.24000001       8.05617684E-10
   3.27999997       6.60153820E-10
   3.31999993       4.29410618E-10
   3.35999990       1.40350342E-10
   3.40000010      -1.71143391E-10
   3.44000006      -4.64949412E-10
   3.48000002      -7.02226000E-10
   3.51999998      -8.50967741E-10
   3.55999994      -8.90763463E-10
   3.59999990      -8.15999490E-10
   3.64000010      -6.36964481E-10
   3.68000007      -3.78620219E-10
   3.72000003      -7.71616937E-11
   3.75999999       2.25155977E-10
   3.79999995       4.86159835E-10
   3.83999991       6.69934386E-10
   3.88000011       7.52070239E-10
   3.92000008       7.23161420E-10
   3.96000004       5.89995219E-10
   4.00000000       3.74252240E-10
   4.03999996       1.08930413E-10
   4.07999992      -1.66915107E-10
   4.11999989      -4.14252577E-10
   4.15999985      -5.99977734E-10
   4.19999981      -7.01680714E-10
   4.23999977      -7.10514259E-10
   4.28000021      -6.31729280E-10
   4.32000017      -4.82850648E-10
   4.36000013      -2.89866520E-10
   4.40000010      -8.21512511E-11
   4.44000006       1.12948158E-10
   4.48000002       2.74879203E-10
   4.51999998       3.93144906E-10
   4.55999994       4.68473316E-10
   4.59999990       5.11688247E-10
   4.63999987       5.40492873E-10
   4.67999983       5.74760572E-10
   4.71999979       6.31210306E-10
   4.76000023       7.18479110E-10
   4.80000019       8.33559888E-10
   4.84000015       9.60365343E-10
   4.88000011       1.07083287E-09
   4.92000008       1.12856280E-09
   4.96000004       1.09454801E-09
   5.00000000       9.34179512E-10
   5.03999996       6.24459595E-10
   5.07999992       1.60264635E-10
   5.11999989      -4.41420345E-10
   5.15999985      -1.14011733E-09
   5.19999981      -1.87376559E-09
   5.23999977      -2.56391308E-09
   5.28000021      -3.12370996E-09
   5.32000017      -3.46780493E-09
   5.36000013      -3.52294660E-09
   5.40000010      -3.23793481E-09
   5.44000006      -2.59158228E-09
   5.48000002      -1.59754610E-09
   5.51999998      -3.05223263E-10
   5.55999994       1.20363930E-09
   5.59999990       2.82245671E-09
   5.63999987       4.43075709E-09
   5.67999983       5.90743543E-09
   5.71999979       7.14482873E-09
   5.76000023       8.06193778E-09
   5.80000019       8.61513527E-09
   5.84000015       8.80487860E-09
   5.88000011       8.67734773E-09
   5.92000008       8.32044211E-09
   5.96000004       7.85422305E-09
   6.00000000       7.41652695E-09
   6.03999996       7.14514492E-09
   6.07999992       7.15842408E-09
   6.11999989       7.53645057E-09
   6.15999985       8.30506952E-09
   6.19999981       9.42471257E-09
   6.23999977       1.07856426E-08
   6.28000021       1.22104122E-08
   6.32000017       1.34635760E-08
   6.36000013       1.42676928E-08
   6.40000010       1.43239021E-08
   6.44000006       1.33345210E-08
   6.48000002       1.10249392E-08
   6.51999998       7.16159310E-09
   6.55999994       1.56336533E-09
   6.59999990      -5.89609739E-09
   6.63999987      -1.52961501E-08
   6.67999983      -2.66878537E-08
   6.71999979      -4.01227531E-08
   6.76000023      -5.56897781E-08
   6.80000019      -7.35579917E-08
   6.84000015      -9.40219778E-08
   6.88000011      -1.17546882E-07
   6.92000008      -1.44809661E-07
   6.96000004      -1.76733494E-07
   7.00000000      -2.14513918E-07
   7.03999996      -2.59636209E-07
   7.07999992      -3.13884044E-07
   7.11999989      -3.79341060E-07
   7.15999985      -4.58388314E-07
   7.19999981      -5.53700943E-07
   7.23999977      -6.68247196E-07
   7.28000021      -8.05295088E-07
   7.32000017      -9.68429163E-07
   7.36000013      -1.16158162E-06
   7.40000010      -1.38907865E-06
   7.44000006      -1.65570339E-06
   7.48000002      -1.96677343E-06
   7.51999998      -2.32823209E-06
   7.55999994      -2.74675290E-06
   7.59999990      -3.22985193E-06
   7.63999987      -3.78600043E-06
   7.67999983      -4.42473902E-06
   7.71999979      -5.15678857E-06
   7.76000023      -5.99415080E-06
   7.80000019      -6.95021026E-06
   7.84000015      -8.03981675E-06
   7.88000011      -9.27936890E-06
   7.92000008      -1.06868865E-05
   7.96000004      -1.22820784E-05
   8.00000000      -1.40863986E-05
   8.03999996      -1.61231001E-05
   8.07999992      -1.84172804E-05
   8.11999989      -2.09959107E-05
   8.15999985      -2.38878365E-05
   8.19999981      -2.71237568E-05
   8.23999977      -3.07361406E-05
   8.27999973      -3.47591231E-05
   8.31999969      -3.92282855E-05
   8.35999966      -4.41804405E-05
   8.39999962      -4.96532411E-05
   8.43999958      -5.56847808E-05
   8.47999954      -6.23130400E-05
   8.52000046      -6.95752824E-05
   8.56000042      -7.75073640E-05
   8.60000038      -8.61429071E-05
   8.64000034      -9.55124560E-05
   8.68000031      -1.05642546E-04
   8.72000027      -1.16554722E-04
   8.76000023      -1.28264466E-04
   8.80000019      -1.40780190E-04
   8.84000015      -1.54102076E-04
   8.88000011      -1.68221115E-04
   8.92000008      -1.83117896E-04
   8.96000004      -1.98761700E-04
   9.00000000      -2.15109452E-04
   9.03999996      -2.32104911E-04
   9.07999992      -2.49677920E-04
   9.11999989      -2.67743744E-04
   9.15999985      -2.86202587E-04
   9.19999981      -3.04939429E-04
   9.23999977      -3.23823944E-04
   9.27999973      -3.42710671E-04
   9.31999969      -3.61439394E-04
   9.35999966      -3.79835983E-04
   9.39999962      -3.97713331E-04
   9.43999958      -4.14872688E-04
   9.47999954      -4.31105116E-04
   9.52000046      -4.46193648E-04
   9.56000042      -4.59915202E-04
   9.60000038      -4.72043117E-04
   9.64000034      -4.82349744E-04
   9.68000031      -4.90609382E-04
   9.72000027      -4.96601278E-04
   9.76000023      -5.00112888E-04
   9.80000019      -5.00943221E-04
   9.84000015      -4.98906069E-04
   9.88000011      -4.93833446E-04
   9.92000008      -4.85578814E-04
   9.96000004      -4.74020169E-04
   10.0000000      -4.59063041E-04
   10.0400000      -4.40643315E-04
   10.0799999      -4.18729440E-04
   10.1199999      -3.93324503E-04
   10.1599998      -3.64467967E-04
   10.1999998      -3.32236639E-04
   10.2399998      -2.96745304E-04
   10.2799997      -2.58146960E-04
   10.3199997      -2.16632077E-04
   10.3599997      -1.72427521E-04
   10.3999996      -1.25794992E-04
   10.4399996      -7.70286060E-05
   10.4799995      -2.64521259E-05
   10.5200005       2.55844552E-05
   10.5600004       7.87086610E-05
   10.6000004       1.32529793E-04
   10.6400003       1.86643490E-04
   10.6800003       2.40636524E-04
   10.7200003       2.94091733E-04
   10.7600002       3.46593210E-04
   10.8000002       3.97731346E-04
   10.8400002       4.47107799E-04
   10.8800001       4.94340551E-04
   10.9200001       5.39068307E-04
   10.9600000       5.80955122E-04
   11.0000000       6.19694125E-04
   11.0400000       6.55011099E-04
   11.0799999       6.86667569E-04
   11.1199999       7.14463124E-04
   11.1599998       7.38237286E-04
   11.1999998       7.57870963E-04
   11.2399998       7.73286447E-04
   11.2799997       7.84448173E-04
   11.3199997       7.91361148E-04
   11.3599997       7.94069958E-04
   11.3999996       7.92656967E-04
   11.4399996       7.87239405E-04
   11.4799995       7.77966925E-04
   11.5200005       7.65018223E-04
   11.5600004       7.48597202E-04
   11.6000004       7.28929532E-04
   11.6400003       7.06258230E-04
   11.6800003       6.80840167E-04
   11.7200003       6.52941759E-04
   11.7600002       6.22835476E-04
   11.8000002       5.90795884E-04
   11.8400002       5.57096268E-04
   11.8800001       5.22005663E-04
   11.9200001       4.85785771E-04
   11.9600000       4.48688574E-04
   12.0000000       4.10954293E-04
   12.0400000       3.72809882E-04
   12.0799999       3.34467564E-04
   12.1199999       2.96124403E-04
   12.1599998       2.57961685E-04
   12.1999998       2.20145012E-04
   12.2399998       1.82824762E-04
   12.2799997       1.46136590E-04
   12.3199997       1.10202280E-04
   12.3599997       7.51307452E-05
   12.3999996       4.10191788E-05
   12.4399996       7.95416872E-06
   12.4799995      -2.39870897E-05
   12.5200005      -5.47356503E-05
   12.5600004      -8.42297013E-05
   12.6000004      -1.12413567E-04
   12.6400003      -1.39236843E-04
   12.6800003      -1.64653538E-04
   12.7200003      -1.88621416E-04
   12.7600002      -2.11101462E-04
   12.8000002      -2.32057631E-04
   12.8400002      -2.51456455E-04
   12.8800001      -2.69266893E-04
   12.9200001      -2.85460643E-04
   12.9600000      -3.00011976E-04
   13.0000000      -3.12898308E-04
   13.0400000      -3.24100169E-04
   13.0799999      -3.33601842E-04
   13.1199999      -3.41391395E-04
   13.1599998      -3.47461435E-04
   13.1999998      -3.51809314E-04
   13.2399998      -3.54437419E-04
   13.2799997      -3.55353666E-04
   13.3199997      -3.54571734E-04
   13.3599997      -3.52111558E-04
   13.3999996      -3.47999594E-04
   13.4399996      -3.42269428E-04
   13.4799995      -3.34961805E-04
   13.5200005      -3.26125446E-04
   13.5600004      -3.15817102E-04
   13.6000004      -3.04101995E-04
   13.6400003      -2.91053904E-04
   13.6800003      -2.76755280E-04
   13.7200003      -2.61297275E-04
   13.7600002      -2.44779570E-04
   13.8000002      -2.27310084E-04
   13.8400002      -2.09004618E-04
   13.8800001      -1.89986298E-04
   13.9200001      -1.70384927E-04
   13.9600000      -1.50336316E-04
   14.0000000      -1.29981388E-04
   14.0400000      -1.09465160E-04
   14.0799999      -8.89357398E-05
   14.1199999      -6.85430205E-05
   14.1599998      -4.84373813E-05
   14.1999998      -2.87682924E-05
   14.2399998      -9.68278982E-06
   14.2799997       8.67605013E-06
   14.3199997       2.61706755E-05
   14.3599997       4.26705847E-05
   14.3999996       5.80538144E-05
   14.4399996       7.22083423E-05
   14.4799995       8.50333672E-05
   14.5200005       9.64404753E-05
   14.5600004       1.06354710E-04
   14.6000004       1.14715411E-04
   14.6400003       1.21476922E-04
   14.6800003       1.26609142E-04
   14.7200003       1.30097891E-04
   14.7600002       1.31944966E-04
   14.8000002       1.32168090E-04
   14.8400002       1.30800559E-04
   14.8800001       1.27890700E-04
   14.9200001       1.23500940E-04
   14.9600000       1.17706812E-04
   15.0000000       1.10595647E-04
   15.0400000       1.02265185E-04
   15.0799999       9.28220252E-05
   15.1199999       8.23800656E-05
   15.1599998       7.10589156E-05
   15.1999998       5.89824667E-05
   15.2399998       4.62774478E-05
   15.2799997       3.30722651E-05
   15.3199997       1.94959175E-05
   15.3599997       5.67715233E-06
   15.3999996      -8.25622828E-06
   15.4399996      -2.21778973E-05
   15.4799995      -3.59633341E-05
   15.5200005      -4.94900487E-05
   15.5600004      -6.26376786E-05
   15.6000004      -7.52879787E-05
   15.6400003      -8.73247409E-05
   15.6800003      -9.86336818E-05
   15.7200003      -1.09102337E-04
   15.7600002      -1.18620017E-04
   15.8000002      -1.27077888E-04
   15.8400002      -1.34369227E-04
   15.8800001      -1.40389879E-04
   15.9200001      -1.45039070E-04
   15.9600000      -1.48220512E-04
   16.0000000      -1.49843909E-04
   16.0400009      -1.49826723E-04
   16.0799999      -1.48096369E-04
   16.1200008      -1.44592574E-04
   16.1599998      -1.39270065E-04
   16.2000008      -1.32101166E-04
   16.2399998      -1.23078687E-04
   16.2800007      -1.12218455E-04
   16.3199997      -9.95619121E-05
   16.3600006      -8.51782243E-05
   16.3999996      -6.91661480E-05
   16.4400005      -5.16554501E-05
   16.4799995      -3.28077076E-05
   16.5200005      -1.28165930E-05
   16.5599995       8.09260746E-06
   16.6000004       2.96641683E-05
   16.6399994       5.16139517E-05
   16.6800003       7.36322690E-05
   16.7199993       9.53876443E-05
   16.7600002       1.16531381E-04
   16.7999992       1.36703093E-04
   16.8400002       1.55536894E-04
   16.8799992       1.72668399E-04
   16.9200001       1.87742029E-04
   16.9599991       2.00419105E-04
   17.0000000       2.10385741E-04
   17.0400009       2.17360983E-04
   17.0799999       2.21104783E-04
   17.1200008       2.21425435E-04
   17.1599998       2.18186542E-04
   17.2000008       2.11313163E-04
   17.2399998       2.00797047E-04
   17.2800007       1.86700665E-04
   17.3199997       1.69160034E-04
   17.3600006       1.48386171E-04
   17.3999996       1.24664992E-04
   17.4400005       9.83556092E-05
   17.4799995       6.98872100E-05
   17.5200005       3.97541044E-05
   17.5599995       8.50936158E-06
   17.6000004      -2.32430757E-05
   17.6399994      -5.48576718E-05
   17.6800003      -8.56577171E-05
   17.7199993      -1.14946735E-04
   17.7600002      -1.42020683E-04
   17.7999992      -1.66180573E-04
   17.8400002      -1.86745456E-04
   17.8799992      -2.03065138E-04
   17.9200001      -2.14532818E-04
   17.9599991      -2.20596994E-04
   18.0000000      -2.20772505E-04
   18.0400009      -2.14650572E-04
   18.0799999      -2.01907460E-04
   18.1200008      -1.82311633E-04
   18.1599998      -1.55729300E-04
   18.2000008      -1.22128069E-04
   18.2399998      -8.15788881E-05
   18.2800007      -3.42558196E-05
   18.3199997       1.95658322E-05
   18.3600006       7.95134474E-05
   18.3999996       1.45122714E-04
   18.4400005       2.15844775E-04
   18.4799995       2.91055097E-04
   18.5200005       3.70063150E-04
   18.5599995       4.52123524E-04
   18.6000004       5.36447391E-04
   18.6399994       6.22214808E-04
   18.6800003       7.08586711E-04
   18.7199993       7.94717751E-04
   18.7600002       8.79767642E-04
   18.7999992       9.62912804E-04
   18.8400002       1.04335719E-03
   18.8799992       1.12034159E-03
   18.9200001       1.19315216E-03
   18.9599991       1.26112788E-03
   19.0000000       1.32366573E-03
   19.0400009       1.38022564E-03
   19.0799999       1.43033220E-03
   19.1200008       1.47357688E-03
   19.1599998       1.50961685E-03
   19.2000008       1.53817411E-03
   19.2399998       1.55903189E-03
   19.2800007       1.57203164E-03
   19.3199997       1.57706777E-03
   19.3600006       1.57408311E-03
   19.3999996       1.56306289E-03
   19.4400005       1.54402992E-03
   19.4799995       1.51703821E-03
   19.5200005       1.48216938E-03
   19.5599995       1.43952691E-03
   19.6000004       1.38923281E-03
   19.6399994       1.33142504E-03
   19.6800003       1.26625493E-03
   19.7199993       1.19388639E-03
   19.7600002       1.11449603E-03
   19.7999992       1.02827488E-03
   19.8400002       9.35429533E-04
   19.8799992       8.36185587E-04
   19.9200001       7.30791711E-04
   19.9599991       6.19524042E-04
   20.0000000       5.02690731E-04
   20.0400009       3.80637066E-04
   20.0799999       2.53750652E-04
   20.1200008       1.22465572E-04
   20.1599998      -1.27333642E-05
   20.2000008      -1.51307599E-04
   20.2399998      -2.92662589E-04
   20.2800007      -4.36146976E-04
   20.3199997      -5.81053086E-04
   20.3600006      -7.26618571E-04
   20.3999996      -8.72030098E-04
   20.4400005      -1.01642811E-03
   20.4799995      -1.15891348E-03
   20.5200005      -1.29855494E-03
   20.5599995      -1.43439905E-03
   20.6000004      -1.56548049E-03
   20.6399994      -1.69083325E-03
   20.6800003      -1.80950365E-03
   20.7199993      -1.92056270E-03
   20.7600002      -2.02311995E-03
   20.7999992      -2.11633649E-03
   20.8400002      -2.19943747E-03
   20.8799992      -2.27172486E-03
   20.9200001      -2.33258866E-03
   20.9599991      -2.38151709E-03
   21.0000000      -2.41810456E-03
   21.0400009      -2.44205957E-03
   21.0799999      -2.45320913E-03
   21.1200008      -2.45150155E-03
   21.1599998      -2.43700948E-03
   21.2000008      -2.40992708E-03
   21.2399998      -2.37056846E-03
   21.2800007      -2.31936341E-03
   21.3199997      -2.25685001E-03
   21.3600006      -2.18366669E-03
   21.3999996      -2.10054382E-03
   21.4400005      -2.00829143E-03
   21.4799995      -1.90778798E-03
   21.5200005      -1.79996714E-03
   21.5599995      -1.68580434E-03
   21.6000004      -1.56630343E-03
   21.6399994      -1.44248235E-03
   21.6800003      -1.31536019E-03
   21.7199993      -1.18594454E-03
   21.7600002      -1.05521840E-03
   21.7999992      -9.24130611E-04
   21.8400002      -7.93585146E-04
   21.8799992      -6.64433115E-04
   21.9200001      -5.37465210E-04
   21.9599991      -4.13406640E-04
   22.0000000      -2.92912649E-04
   22.0400009      -1.76565867E-04
   22.0799999      -6.48750429E-05
   22.1200008       4.17248484E-05
   22.1599998       1.42871446E-04
   22.2000008       2.38272492E-04
   22.2399998       3.27702612E-04
   22.2800007       4.10998968E-04
   22.3199997       4.88056598E-04
   22.3600006       5.58823056E-04
   22.3999996       6.23292814E-04
   22.4400005       6.81501755E-04
   22.4799995       7.33521534E-04
   22.5200005       7.79454189E-04
   22.5599995       8.19427543E-04
   22.6000004       8.53590493E-04
   22.6399994       8.82109103E-04
   22.6800003       9.05163353E-04
   22.7199993       9.22944513E-04
   22.7600002       9.35652934E-04
   22.7999992       9.43496590E-04
   22.8400002       9.46689805E-04
   22.8799992       9.45453474E-04
   22.9200001       9.40013735E-04
   22.9599991       9.30603186E-04
   23.0000000       9.17460653E-04
   23.0400009       9.00832471E-04
   23.0799999       8.80972191E-04
   23.1200008       8.58141924E-04
   23.1599998       8.32612161E-04
   23.2000008       8.04662413E-04
   23.2399998       7.74580520E-04
   23.2800007       7.42662174E-04
   23.3199997       7.09209591E-04
   23.3600006       6.74530107E-04
   23.3999996       6.38933619E-04
   23.4400005       6.02730317E-04
   23.4799995       5.66227536E-04
   23.5200005       5.29726327E-04
   23.5599995       4.93518193E-04
   23.6000004       4.57881048E-04
   23.6399994       4.23075515E-04
   23.6800003       3.89341381E-04
   23.7199993       3.56893754E-04
   23.7600002       3.25919886E-04
   23.7999992       2.96576327E-04
   23.8400002       2.68986099E-04
   23.8799992       2.43236937E-04
   23.9200001       2.19379959E-04
   23.9599991       1.97429006E-04
   24.0000000       1.77360824E-04
   24.0400009       1.59116185E-04
   24.0799999       1.42601682E-04
   24.1200008       1.27692605E-04
   24.1599998       1.14236369E-04
   24.2000008       1.02056903E-04
   24.2399998       9.09595328E-05
   24.2800007       8.07364559E-05
   24.3199997       7.11725734E-05
   24.3600006       6.20515566E-05
   24.3999996       5.31620281E-05
   24.4400005       4.43036624E-05
   24.4799995       3.52930329E-05
   24.5200005       2.59691024E-05
   24.5599995       1.61981588E-05
   24.6000004       5.87808245E-06
   24.6399994      -5.05819071E-06
   24.6800003      -1.66401314E-05
   24.7199993      -2.88580977E-05
   24.7600002      -4.16628754E-05
   24.7999992      -5.49663346E-05
   24.8400002      -6.86432104E-05
   24.8799992      -8.25339230E-05
   24.9200001      -9.64484134E-05
   24.9599991      -1.10170920E-04
   25.0000000      -1.23465448E-04
   25.0400009      -1.36081915E-04
   25.0799999      -1.47762752E-04
   25.1200008      -1.58249706E-04
   25.1599998      -1.67290884E-04
   25.2000008      -1.74647648E-04
   25.2399998      -1.80101197E-04
   25.2800007      -1.83458847E-04
   25.3199997      -1.84559714E-04
   25.3600006      -1.83279553E-04
   25.3999996      -1.79534865E-04
   25.4400005      -1.73285924E-04
   25.4799995      -1.64538753E-04
   25.5200005      -1.53346031E-04
   25.5599995      -1.39806711E-04
   25.6000004      -1.24064696E-04
   25.6399994      -1.06306274E-04
   25.6800003      -8.67566778E-05
   25.7199993      -6.56757547E-05
   25.7600002      -4.33529167E-05
   25.7999992      -2.01014864E-05
   25.8400002       3.74732349E-06
   25.8799992       2.78507086E-05
   25.9200001       5.18606976E-05
   25.9599991       7.54305365E-05
   26.0000000       9.82209240E-05
   26.0400009       1.19905948E-04
   26.0799999       1.40178643E-04
   26.1200008       1.58755982E-04
   26.1599998       1.75383320E-04
   26.2000008       1.89838043E-04
   26.2399998       2.01932504E-04
   26.2800007       2.11515988E-04
   26.3199997       2.18475965E-04
   26.3600006       2.22738308E-04
   26.3999996       2.24266842E-04
   26.4400005       2.23061972E-04
   26.4799995       2.19158755E-04
   26.5200005       2.12624393E-04
   26.5599995       2.03555188E-04
   26.6000004       1.92073276E-04
   26.6399994       1.78323084E-04
   26.6800003       1.62467608E-04
   26.7199993       1.44684644E-04
   26.7600002       1.25163046E-04
   26.7999992       1.04098974E-04
   26.8400002       8.16923639E-05
   26.8799992       5.81435197E-05
   26.9200001       3.36499215E-05
   26.9599991       8.40344183E-06
   27.0000000      -1.74121560E-05
   27.0400009      -4.36232112E-05
   27.0799999      -7.00677774E-05
   27.1200008      -9.65966392E-05
   27.1599998      -1.23074002E-04
   27.2000008      -1.49377607E-04
   27.2399998      -1.75398600E-04
   27.2800007      -2.01040966E-04
   27.3199997      -2.26220829E-04
   27.3600006      -2.50865531E-04
   27.3999996      -2.74912687E-04
   27.4400005      -2.98308936E-04
   27.4799995      -3.21008993E-04
   27.5200005      -3.42974352E-04
   27.5599995      -3.64172040E-04
   27.6000004      -3.84573388E-04
   27.6399994      -4.04152495E-04
   27.6800003      -4.22885088E-04
   27.7199993      -4.40746895E-04
   27.7600002      -4.57712420E-04
   27.7999992      -4.73753666E-04
   27.8400002      -4.88838938E-04
   27.8799992      -5.02932002E-04
   27.9200001      -5.15991298E-04
   27.9599991      -5.27969329E-04
   28.0000000      -5.38812426E-04
   28.0400009      -5.48460346E-04
   28.0799999      -5.56846440E-04
   28.1200008      -5.63897367E-04
   28.1599998      -5.69532800E-04
   28.2000008      -5.73665777E-04
   28.2399998      -5.76202234E-04
   28.2800007      -5.77040832E-04
   28.3199997      -5.76073246E-04
   28.3600006      -5.73183992E-04
   28.3999996      -5.68250718E-04
   28.4400005      -5.61144436E-04
   28.4799995      -5.51730685E-04
   28.5200005      -5.39870176E-04
   28.5599995      -5.25419950E-04
   28.6000004      -5.08235244E-04
   28.6399994      -4.88170568E-04
   28.6800003      -4.65082179E-04
   28.7199993      -4.38829651E-04
   28.7600002      -4.09278233E-04
   28.7999992      -3.76301148E-04
   28.8400002      -3.39782215E-04
   28.8799992      -2.99618405E-04
   28.9200001      -2.55722931E-04
   28.9599991      -2.08028214E-04
   29.0000000      -1.56489317E-04
   29.0400009      -1.01087382E-04
   29.0799999      -4.18331474E-05
   29.1200008       2.12295181E-05
   29.1599998       8.80200751E-05
   29.2000008       1.58418115E-04
   29.2399998       2.32260325E-04
   29.2800007       3.09337920E-04
   29.3199997       3.89394147E-04
   29.3600006       4.72123094E-04
   29.3999996       5.57167863E-04
   29.4400005       6.44120446E-04
   29.4799995       7.32521759E-04