  -4.80000019       0.00000000
  -4.76000023       0.00000000
  -4.71999979       0.00000000
  -4.67999983       0.00000000
  -4.63999987       0.00000000
  -4.59999990       0.00000000
  -4.55999994       0.00000000
  -4.51999998       0.00000000
  -4.48000002       0.00000000
  -4.44000006      -4.70567779E-27
  -4.40000010      -7.99523901E-26
  -4.36000013      -7.03601903E-25
  -4.32000017      -4.25912905E-24
  -4.28000021      -1.98683849E-23
  -4.23999977      -7.58433025E-23
  -4.19999981      -2.45505403E-22
  -4.15999985      -6.88777352E-22
  -4.11999989      -1.69553083E-21
  -4.07999992      -3.67579233E-21
  -4.03999996      -6.96780193E-21
  -4.00000000      -1.12342719E-20
  -3.96000004      -1.41314744E-20
  -3.92000008      -8.96088070E-21
  -3.88000011       1.86950864E-20
  -3.83999991       9.46063010E-20
  -3.79999995       2.57719468E-19
  -3.75999999       5.56252854E-19
  -3.72000003       1.03225616E-18
  -3.68000007       1.68794414E-18
  -3.64000010       2.42886470E-18
  -3.59999990       2.98530993E-18
  -3.55999994       2.82597219E-18
  -3.51999998       1.09681585E-18
  -3.48000002      -3.35920032E-18
  -3.44000006      -1.18264303E-17
  -3.40000010      -2.53048463E-17
  -3.35999990      -4.38068103E-17
  -3.31999993      -6.53752734E-17
  -3.27999997      -8.49572524E-17
  -3.24000001      -9.34339479E-17
  -3.20000005      -7.72947872E-17
  -3.16000009      -1.95923204E-17
  -3.11999989       9.71523365E-17
  -3.07999992       2.85599578E-16
  -3.03999996       5.45769374E-16
  -3.00000000       8.55508306E-16
  -2.96000004       1.16106480E-15
  -2.92000008       1.37074569E-15
  -2.88000011       1.35556728E-15
  -2.83999991       9.61129979E-16
  -2.79999995       3.41761846E-17
  -2.75999999      -1.53492238E-15
  -2.72000003      -3.75631245E-15
  -2.68000007      -6.47912611E-15
  -2.64000010      -9.33763700E-15
  -2.59999990      -1.17233942E-14
  -2.55999994      -1.28040719E-14
  -2.51999998      -1.16079174E-14
  -2.48000002      -7.18497900E-15
  -2.44000006       1.15775110E-15
  -2.40000010       1.35698583E-14
  -2.35999990       2.93649755E-14
  -2.31999993       4.67886160E-14
  -2.27999997       6.29267349E-14
  -2.24000001       7.38356181E-14
  -2.20000005       7.49548400E-14
  -2.16000009       6.18247857E-14
  -2.11999989       3.10693345E-14
  -2.07999992      -1.84693925E-14
  -2.03999996      -8.46325438E-14
  -2.00000000      -1.61129749E-13
  -1.96000004      -2.37280627E-13
  -1.91999996      -2.98559273E-13
  -1.88000000      -3.28101912E-13
  -1.84000003      -3.09188141E-13
  -1.79999995      -2.28511573E-13
  -1.75999999      -7.98366839E-14
  -1.72000003       1.32557038E-13
  -1.67999995       3.91377577E-13
  -1.63999999       6.65525523E-13
  -1.60000002       9.11638928E-13
  -1.55999994       1.07834011E-12
  -1.51999998       1.11313465E-12
  -1.48000002       9.71401995E-13
  -1.44000006       6.26399865E-13
  -1.39999998       7.87489851E-14
  -1.36000001      -6.36396426E-13
  -1.32000005      -1.44630477E-12
  -1.27999997      -2.24324986E-12
  -1.24000001      -2.89359032E-12
  -1.20000005      -3.25331320E-12
  -1.15999997      -3.18892460E-12
  -1.12000000      -2.60147893E-12
  -1.08000004      -1.45058011E-12
  -1.03999996       2.25432791E-13
  -1.00000000       2.29705621E-12
 -0.959999979       4.54247013E-12
 -0.920000017       6.66017892E-12
 -0.879999995       8.29640957E-12
 -0.839999974       9.08628381E-12
 -0.800000012       8.70559874E-12
 -0.759999990       6.92798032E-12
 -0.720000029       3.68032558E-12
 -0.680000007      -9.11705498E-13
 -0.639999986      -6.49674845E-12
 -0.600000024      -1.24971916E-11
 -0.560000002      -1.81409714E-11
 -0.519999981      -2.25284617E-11
 -0.479999989      -2.47329483E-11
 -0.439999998      -2.39280609E-11
 -0.400000006      -1.95300876E-11
 -0.360000014      -1.13380191E-11
 -0.319999993       3.49771129E-13
 -0.280000001       1.46650088E-11
 -0.239999995       3.01667337E-11
 -0.200000003       4.49227669E-11
 -0.159999996       5.66830784E-11
 -0.119999997       6.31400765E-11
  -7.99999982E-02   6.22559990E-11
  -3.99999991E-02   5.26219832E-11
   2.77555756E-16   3.37998518E-11
   3.99999991E-02   6.58917148E-12
   7.99999982E-02  -2.68391073E-11
  0.119999997      -6.29920907E-11
  0.159999996      -9.73180841E-11
  0.200000003      -1.24685096E-10
  0.239999995      -1.40041048E-10
  0.280000001      -1.39184983E-10
  0.319999993      -1.19545915E-10
  0.360000014      -8.08451014E-11
  0.400000006      -2.55139607E-11
  0.439999998       4.12420931E-11
  0.479999989       1.11803344E-10
  0.519999981       1.76928333E-10
  0.560000002       2.26917457E-10
  0.600000024       2.53013138E-10
  0.639999986       2.48841947E-10
  0.680000007       2.11668169E-10
  0.720000029       1.43228887E-10
  0.759999990       4.99604455E-11
  0.800000012      -5.74939089E-11
  0.839999974      -1.65496158E-10
  0.879999995      -2.59222505E-10
  0.920000017      -3.24830052E-10
  0.959999979      -3.51654011E-10
   1.00000000      -3.34070022E-10
   1.03999996      -2.72678657E-10
   1.08000004      -1.74557299E-10
   1.12000000      -5.24662813E-11
   1.15999997       7.69270134E-11
   1.20000005       1.95561831E-10
   1.24000001       2.86839746E-10
   1.27999997       3.38337164E-10
   1.32000005       3.43882617E-10
   1.36000001       3.04594988E-10
   1.39999998       2.28647629E-10
   1.44000006       1.29753944E-10
   1.48000002       2.46144945E-11
   1.51999998      -7.02172834E-11
   1.55999994      -1.41453502E-10
   1.60000002      -1.81546667E-10
   1.63999999      -1.89988428E-10
   1.67999995      -1.73112011E-10
   1.72000003      -1.42371656E-10
   1.75999999      -1.11396586E-10
   1.79999995      -9.24027729E-11
   1.84000003      -9.27336749E-11
   1.88000000      -1.12339471E-10
   1.91999996      -1.42872839E-10
   1.96000004      -1.68789038E-10
   2.00000000      -1.70434403E-10
   2.03999996      -1.28665550E-10
   2.07999992      -3.01496675E-11
   2.11999989       1.27756472E-10
   2.16000009       3.33698097E-10
   2.20000005       5.61544311E-10
   2.24000001       7.72686914E-10
   2.27999997       9.21389909E-10
   2.31999993       9.62535052E-10
   2.35999990       8.60538585E-10
   2.40000010       5.97838667E-10
   2.44000006       1.81249432E-10
   2.48000002      -3.55290131E-10
   2.51999998      -9.52508517E-10
   2.55999994      -1.53229740E-09
   2.59999990      -2.00820383E-09
   2.64000010      -2.29840613E-09
   2.68000007      -2.33908004E-09
   2.72000003      -2.09584172E-09
   2.75999999      -1.57115188E-09
   2.79999995      -8.06184619E-10
   2.83999991       1.23412142E-10
   2.88000011       1.11734699E-09
   2.92000008       2.06456185E-09
   2.96000004       2.85882829E-09
   3.00000000       3.41338358E-09
   3.03999996       3.67207775E-09
   3.07999992       3.61514529E-09
   3.11999989       3.25875971E-09
   3.16000009       2.64873634E-09
   3.20000005       1.84992088E-09
   3.24000001       9.33655264E-10
   3.27999997      -3.39191245E-11
   3.31999993      -1.00018593E-09
   3.35999990      -1.92926541E-09
   3.40000010      -2.79958323E-09
   3.44000006      -3.59664676E-09
   3.48000002      -4.30313696E-09
   3.51999998      -4.88925167E-09
   3.55999994      -5.30644506E-09
   3.59999990      -5.48715606E-09
   3.64000010      -5.35190781E-09
   3.68000007      -4.82350027E-09
   3.72000003      -3.84617937E-09
   3.75999999      -2.40614129E-09
   3.79999995      -5.48783741E-10
   3.83999991       1.61189673E-09
   3.88000011       3.89540800E-09
   3.92000008       6.07012351E-09
   3.96000004       7.88117749E-09
   4.00000000       9.08752273E-09
   4.03999996       9.50247436E-09
   4.07999992       9.03066510E-09
   4.11999989       7.69410580E-09
   4.15999985       5.64126523E-09
   4.19999981       3.13555759E-09
   4.23999977       5.23051491E-10
   4.28000021      -1.81701143E-09
   4.32000017      -3.53184371E-09
   4.36000013      -4.35539027E-09
   4.40000010      -4.15883061E-09
   4.44000006      -2.98178193E-09
   4.48000002      -1.03735387E-09
   4.51999998       1.31172140E-09
   4.55999994       3.60380481E-09
   4.59999990       5.34906919E-09
   4.63999987       6.10954443E-09
   4.67999983       5.57562441E-09
   4.71999979       3.62616048E-09
   4.76000023       3.61436769E-10
   4.80000019      -3.89749388E-09
   4.84000015      -8.64423200E-09
   4.88000011      -1.32524764E-08
   4.92000008      -1.70615895E-08
   4.96000004      -1.94687519E-08
   5.00000000      -2.00127577E-08
   5.03999996      -1.84356814E-08
   5.07999992      -1.47122057E-08
   5.11999989      -9.04174957E-09
   5.15999985      -1.80493587E-09
   5.19999981       6.50799281E-09
   5.23999977       1.53841810E-08
   5.28000021       2.43752201E-08
   5.32000017       3.31686998E-08
   5.36000013       4.16312425E-08
   5.40000010       4.98149362E-08
   5.44000006       5.79252415E-08
   5.48000002       6.62555379E-08
   5.51999998       7.50990523E-08
   5.55999994       8.46534576E-08
   5.59999990       9.49346699E-08
   5.63999987       1.05715316E-07
   5.67999983       1.16499230E-07
   5.71999979       1.26537358E-07
   5.76000023       1.34883194E-07
   5.80000019       1.40479059E-07
   5.84000015       1.42259225E-07
   5.88000011       1.39251938E-07
   5.92000008       1.30662755E-07
   5.96000004       1.15923825E-07
   6.00000000       9.46988976E-08
   6.03999996       6.68404425E-08
   6.07999992       3.23033120E-08
   6.11999989      -8.97485819E-09
   6.15999985      -5.72110785E-08
   6.19999981      -1.12915316E-07
   6.23999977      -1.77013106E-07
   6.28000021      -2.50940474E-07
   6.32000017      -3.36705881E-07
   6.36000013      -4.36919919E-07
   6.40000010      -5.54803819E-07
   6.44000006      -6.94188827E-07
   6.48000002      -8.59527347E-07
   6.51999998      -1.05593472E-06
   6.55999994      -1.28927559E-06
   6.59999990      -1.56630574E-06
   6.63999987      -1.89487127E-06
   6.67999983      -2.28415774E-06
   6.71999979      -2.74497597E-06
   6.76000023      -3.29006548E-06
   6.80000019      -3.93439359E-06
   6.84000015      -4.69542965E-06
   6.88000011      -5.59338787E-06
   6.92000008      -6.65142352E-06
   6.96000004      -7.89580372E-06
   7.00000000      -9.35605385E-06
   7.03999996      -1.10651226E-05
   7.07999992      -1.30595645E-05
   7.11999989      -1.53798137E-05
   7.15999985      -1.80705229E-05
   7.19999981      -2.11810257E-05
   7.23999977      -2.47658918E-05
   7.28000021      -2.88855936E-05
   7.32000017      -3.36072189E-05
   7.36000013      -3.90052483E-05
   7.40000010      -4.51622982E-05
   7.44000006      -5.21698457E-05
   7.48000002      -6.01288484E-05
   7.51999998      -6.91502428E-05
   7.55999994      -7.93553627E-05
   7.59999990      -9.08761576E-05
   7.63999987      -1.03855273E-04
   7.67999983      -1.18446049E-04
   7.71999979      -1.34812348E-04
   7.76000023      -1.53128174E-04
   7.80000019      -1.73577253E-04
   7.84000015      -1.96352310E-04
   7.88000011      -2.21654132E-04
   7.92000008      -2.49690289E-04
   7.96000004      -2.80673499E-04
   8.00000000      -3.14819568E-04
   8.03999996      -3.52344621E-04
   8.07999992      -3.93462193E-04
   8.11999989      -4.38379153E-04
   8.15999985      -4.87291691E-04
   8.19999981      -5.40380308E-04
   8.23999977      -5.97804610E-04
   8.27999973      -6.59697223E-04
   8.31999969      -7.26158149E-04
   8.35999966      -7.97248387E-04
   8.39999962      -8.72983423E-04
   8.43999958      -9.53326875E-04
   8.47999954      -1.03818439E-03
   8.52000046      -1.12739776E-03
   8.56000042      -1.22073852E-03
   8.60000038      -1.31790282E-03
   8.64000034      -1.41850708E-03
   8.68000031      -1.52208318E-03
   8.72000027      -1.62807596E-03
   8.76000023      -1.73584034E-03
   8.80000019      -1.84464094E-03
   8.84000015      -1.95365166E-03
   8.88000011      -2.06195889E-03
   8.92000008      -2.16856319E-03
   8.96000004      -2.27238750E-03
   9.00000000      -2.37228186E-03
   9.03999996      -2.46703438E-03
   9.07999992      -2.55538127E-03
   9.11999989      -2.63602077E-03
   9.15999985      -2.70762667E-03
   9.19999981      -2.76886509E-03
   9.23999977      -2.81841028E-03
   9.27999973      -2.85496446E-03
   9.31999969      -2.87727523E-03
   9.35999966      -2.88415584E-03
   9.39999962      -2.87450477E-03
   9.43999958      -2.84732576E-03
   9.47999954      -2.80174590E-03
   9.52000046      -2.73703621E-03
   9.56000042      -2.65262788E-03
   9.60000038      -2.54812953E-03
   9.64000034      -2.42334255E-03
   9.68000031      -2.27827253E-03
   9.72000027      -2.11313996E-03
   9.76000023      -1.92838931E-03
   9.80000019      -1.72469101E-03
   9.84000015      -1.50294404E-03
   9.88000011      -1.26427202E-03
   9.92000008      -1.01001840E-03
   9.96000004      -7.41734926E-04
   10.0000000      -4.61169082E-04
   10.0400000      -1.70246436E-04
   10.0799999       1.28949570E-04
   10.1199999       4.34200803E-04
   10.1599998       7.43180164E-04
   10.1999998       1.05347973E-03
   10.2399998       1.36263995E-03
   10.2799997       1.66818104E-03
   10.3199997       1.96763454E-03
   10.3599997       2.25857506E-03
   10.3999996       2.53865193E-03
   10.4399996       2.80562090E-03
   10.4799995       3.05737322E-03
   10.5200005       3.29196383E-03
   10.5600004       3.50763742E-03
   10.6000004       3.70285031E-03
   10.6400003       3.87629122E-03
   10.6800003       4.02689539E-03
   10.7200003       4.15385701E-03
   10.7600002       4.25663544E-03
   10.8000002       4.33495874E-03
   10.8400002       4.38881991E-03
   10.8800001       4.41847090E-03
   10.9200001       4.42441041E-03
   10.9600000       4.40736907E-03
   11.0000000       4.36829031E-03
   11.0400000       4.30830708E-03
   11.0799999       4.22871672E-03
   11.1199999       4.13095439E-03
   11.1599998       4.01656283E-03
   11.1999998       3.88716394E-03
   11.2399998       3.74442711E-03
   11.2799997       3.59004107E-03
   11.3199997       3.42568243E-03
   11.3599997       3.25299054E-03
   11.3999996       3.07354098E-03
   11.4399996       2.88882176E-03
   11.4799995       2.70021497E-03
   11.5200005       2.50897952E-03
   11.5600004       2.31623999E-03
   11.6000004       2.12297728E-03
   11.6400003       1.93002564E-03
   11.6800003       1.73807354E-03
   11.7200003       1.54766813E-03
   11.7600002       1.35922479E-03
   11.8000002       1.17303955E-03
   11.8400002       9.89305554E-04
   11.8800001       8.08130892E-04
   11.9200001       6.29559800E-04
   11.9600000       4.53594024E-04
   12.0000000       2.80215463E-04
   12.0400000       1.09408094E-04
   12.0799999      -5.88204202E-05
   12.1199999      -2.24418793E-04
   12.1599998      -3.87274398E-04
   12.1999998      -5.47197706E-04
   12.2399998      -7.03910366E-04
   12.2799997      -8.57036095E-04
   12.3199997      -1.00609602E-03
   12.3599997      -1.15050760E-03
   12.3999996      -1.28958747E-03
   12.4399996      -1.42256008E-03
   12.4799995      -1.54856802E-03
   12.5200005      -1.66668801E-03
   12.5600004      -1.77595054E-03
   12.6000004      -1.87536143E-03
   12.6400003      -1.96392625E-03
   12.6800003      -2.04067794E-03
   12.7200003      -2.10470310E-03
   12.7600002      -2.15517031E-03
   12.8000002      -2.19135685E-03
   12.8400002      -2.21267412E-03
   12.8800001      -2.21869024E-03
   12.9200001      -2.20915070E-03
   12.9600000      -2.18399451E-03
   13.0000000      -2.14336650E-03
   13.0400000      -2.08762405E-03
   13.0799999      -2.01734086E-03
   13.1199999      -1.93330343E-03
   13.1599998      -1.83650502E-03
   13.1999998      -1.72813167E-03
   13.2399998      -1.60954695E-03
   13.2799997      -1.48226961E-03
   13.3199997      -1.34794821E-03
   13.3599997      -1.20833307E-03
   13.3999996      -1.06524408E-03
   13.4399996      -9.20538267E-04
   13.4799995      -7.76073837E-04
   13.5200005      -6.33676187E-04
   13.5600004      -4.95102489E-04
   13.6000004      -3.62008694E-04
   13.6400003      -2.35918371E-04
   13.6800003      -1.18194628E-04
   13.7200003      -1.00157322E-05
   13.7600002       8.76446938E-05
   13.8000002       1.74032743E-04
   13.8400002       2.48623866E-04
   13.8800001       3.11127282E-04
   13.9200001       3.61484679E-04
   13.9600000       3.99863726E-04
   14.0000000       4.26646526E-04
   14.0400000       4.42413439E-04
   14.0799999       4.47922590E-04
   14.1199999       4.44086414E-04
   14.1599998       4.31944936E-04
   14.1999998       4.12637048E-04
   14.2399998       3.87370761E-04
   14.2799997       3.57392593E-04
   14.3199997       3.23957269E-04
   14.3599997       2.88298354E-04
   14.3999996       2.51600519E-04
   14.4399996       2.14974061E-04
   14.4799995       1.79432318E-04
   14.5200005       1.45872487E-04
   14.5600004       1.15060371E-04
   14.6000004       8.76189806E-05
   14.6400003       6.40217040E-05
   14.6800003       4.45896912E-05
   14.7200003       2.94934089E-05
   14.7600002       1.87583119E-05
   14.8000002       1.22740539E-05
   14.8400002       9.80688765E-06
   14.8800001       1.10146893E-05
   14.9200001       1.54639911E-05
   14.9600000       2.26484080E-05
   15.0000000       3.20078507E-05
   15.0400000       4.29479114E-05
   15.0799999       5.48588687E-05
   15.1199999       6.71337984E-05
   15.1599998       7.91853454E-05
   15.1999998       9.04607659E-05
   15.2399998       1.00454949E-04
   15.2799997       1.08721062E-04
   15.3199997       1.14878800E-04
   15.3599997       1.18619922E-04
   15.3999996       1.19711221E-04
   15.4399996       1.17994867E-04
   15.4799995       1.13386282E-04
   15.5200005       1.05869738E-04
   15.5600004       9.54920906E-05
   15.6000004       8.23548689E-05
   15.6400003       6.66051928E-05
   15.6800003       4.84260854E-05
   15.7200003       2.80265667E-05
   15.7600002       5.63196909E-06
   15.8000002      -1.85249810E-05
   15.8400002      -4.42119890E-05
   15.8800001      -7.12036126E-05
   15.9200001      -9.92860223E-05
   15.9600000      -1.28259897E-04
   16.0000000      -1.57941497E-04
   16.0400009      -1.88161794E-04
   16.0799999      -2.18763831E-04
   16.1200008      -2.49598379E-04
   16.1599998      -2.80518172E-04
   16.2000008      -3.11370910E-04
   16.2399998      -3.41991195E-04
   16.2800007      -3.72192066E-04
   16.3199997      -4.01755853E-04
   16.3600006      -4.30425513E-04
   16.3999996      -4.57895861E-04
   16.4400005      -4.83805954E-04
   16.4799995      -5.07732097E-04
   16.5200005      -5.29182726E-04
   16.5599995      -5.47594565E-04
   16.6000004      -5.62330941E-04
   16.6399994      -5.72682067E-04
   16.6800003      -5.77867846E-04
   16.7199993      -5.77042694E-04
   16.7600002      -5.69303287E-04
   16.7999992      -5.53698221E-04
   16.8400002      -5.29240118E-04
   16.8799992      -4.94919659E-04
   16.9200001      -4.49721527E-04
   16.9599991      -3.92641959E-04
   17.0000000      -3.22707143E-04
   17.0400009      -2.38992565E-04
   17.0799999      -1.40642893E-04
   17.1200008      -2.68914901E-05
   17.1599998       1.02920239E-04
   17.2000008       2.49324425E-04
   17.2399998       4.12709633E-04
   17.2800007       5.93304867E-04
   17.3199997       7.91165978E-04
   17.3600006       1.00616331E-03
   17.3999996       1.23797276E-03
   17.4400005       1.48606813E-03
   17.4799995       1.74971682E-03
   17.5200005       2.02797796E-03
   17.5599995       2.31970311E-03
   17.6000004       2.62354128E-03
   17.6399994       2.93794367E-03
   17.6800003       3.26117384E-03
   17.7199993       3.59131978E-03
   17.7600002       3.92630836E-03
   17.7999992       4.26392118E-03
   17.8400002       4.60181432E-03
   17.8799992       4.93753748E-03
   17.9200001       5.26855467E-03
   17.9599991       5.59226936E-03
   18.0000000       5.90604683E-03
   18.0400009       6.20723702E-03
   18.0799999       6.49320101E-03
   18.1200008       6.76133158E-03
   18.1599998       7.00907921E-03
   18.2000008       7.23397313E-03
   18.2399998       7.43364543E-03
   18.2800007       7.60585070E-03
   18.3199997       7.74848508E-03
   18.3600006       7.85960630E-03
   18.3999996       7.93744903E-03
   18.4400005       7.98044074E-03
   18.4799995       7.98721425E-03
   18.5200005       7.95661658E-03
   18.5599995       7.88772292E-03
   18.6000004       7.77983759E-03
   18.6399994       7.63250468E-03
   18.6800003       7.44550675E-03
   18.7199993       7.21886894E-03
   18.7600002       6.95285667E-03
   18.7999992       6.64797332E-03
   18.8400002       6.30495697E-03
   18.8799992       5.92477713E-03
   18.9200001       5.50862355E-03
   18.9599991       5.05790394E-03
   19.0000000       4.57423134E-03
   19.0400009       4.05941764E-03
   19.0799999       3.51546006E-03
   19.1200008       2.94453232E-03
   19.1599998       2.34897248E-03
   19.2000008       1.73127151E-03
   19.2399998       1.09405990E-03
   19.2800007       4.40096162E-04
   19.3199997      -2.27746350E-04
   19.3600006      -9.06491885E-04
   19.3999996      -1.59307511E-03
   19.4400005      -2.28435406E-03
   19.4799995      -2.97712302E-03
   19.5200005      -3.66812712E-03
   19.5599995      -4.35407460E-03
   19.6000004      -5.03165415E-03
   19.6399994      -5.69754653E-03
   19.6800003      -6.34844275E-03
   19.7199993      -6.98105944E-03
   19.7600002      -7.59215793E-03
   19.7999992      -8.17856006E-03
   19.8400002      -8.73716734E-03
   19.8799992      -9.26498324E-03
   19.9200001      -9.75912623E-03
   19.9599991      -1.02168573E-02
   20.0000000      -1.06355986E-02
   20.0400009      -1.10129481E-02
   20.0799999      -1.13467090E-02
   20.1200008      -1.16349040E-02
   20.1599998      -1.18757971E-02
   20.2000008      -1.20679121E-02
   20.2399998      -1.22100543E-02
   20.2800007      -1.23013183E-02
   20.3199997      -1.23411110E-02
   20.3600006      -1.23291584E-02
   20.3999996      -1.22655202E-02
   20.4400005      -1.21505884E-02
   20.4799995      -1.19851036E-02
   20.5200005      -1.17701404E-02
   20.5599995      -1.15071163E-02
   20.6000004      -1.11977775E-02
   20.6399994      -1.08441906E-02
   20.6800003      -1.04487268E-02
   20.7199993      -1.00140432E-02
   20.7600002      -9.54306405E-03
   20.7999992      -9.03894845E-03
   20.8400002      -8.50506686E-03
   20.8799992      -7.94497132E-03
   20.9200001      -7.36235641E-03
   20.9599991      -6.76102424E-03
   21.0000000      -6.14485098E-03
   21.0400009      -5.51774539E-03
   21.0799999      -4.88361204E-03
   21.1200008      -4.24631080E-03
   21.1599998      -3.60962446E-03
   21.2000008      -2.97721708E-03
   21.2399998      -2.35260464E-03
   21.2800007      -1.73912221E-03
   21.3199997      -1.13989634E-03
   21.3600006      -5.57820254E-04
   21.3999996       4.46564809E-06
   21.4400005       5.44590992E-04
   21.4799995       1.06046675E-03
   21.5200005       1.55029271E-03
   21.5599995       2.01256084E-03
   21.6000004       2.44605239E-03
   21.6399994       2.84983404E-03
   21.6800003       3.22324689E-03
   21.7199993       3.56589351E-03
   21.7600002       3.87762091E-03
   21.7999992       4.15850384E-03
   21.8400002       4.40881960E-03
   21.8799992       4.62903036E-03
   21.9200001       4.81975544E-03
   21.9599991       4.98174829E-03
   22.0000000       5.11587551E-03
   22.0400009       5.22308983E-03
   22.0799999       5.30441059E-03
   22.1200008       5.36090462E-03
   22.1599998       5.39366715E-03
   22.2000008       5.40380692E-03
   22.2399998       5.39243361E-03
   22.2800007       5.36064850E-03
   22.3199997       5.30953612E-03
   22.3600006       5.24016190E-03
   22.3999996       5.15357032E-03
   22.4400005       5.05078351E-03
   22.4799995       4.93280636E-03
   22.5200005       4.80063027E-03
   22.5599995       4.65523964E-03
   22.6000004       4.49761655E-03
   22.6399994       4.32875101E-03
   22.6800003       4.14964184E-03
   22.7199993       3.96131072E-03
   22.7600002       3.76480073E-03
   22.7999992       3.56118497E-03
   22.8400002       3.35156638E-03
   22.8799992       3.13708046E-03
   22.9200001       2.91889277E-03
   22.9599991       2.69819680E-03
   23.0000000       2.47620791E-03
   23.0400009       2.25415616E-03
   23.0799999       2.03327835E-03
   23.1200008       1.81480555E-03
   23.1599998       1.59995223E-03
   23.2000008       1.38990139E-03
   23.2399998       1.18579180E-03
   23.2800007       9.88702872E-04
   23.3199997       7.99640489E-04
   23.3600006       6.19523635E-04
   23.3999996       4.49171523E-04
   23.4400005       2.89292657E-04
   23.4799995       1.40475429E-04
   23.5200005       3.18112052E-06
   23.5599995      -1.22260899E-04
   23.6000004      -2.35655418E-04
   23.6399994      -3.36940895E-04
   23.6800003      -4.26186481E-04
   23.7199993      -5.03586489E-04
   23.7600002      -5.69452241E-04
   23.7999992      -6.24202192E-04
   23.8400002      -6.68349850E-04
   23.8799992      -7.02490041E-04
   23.9200001      -7.27284467E-04
   23.9599991      -7.43446173E-04
   24.0000000      -7.51723768E-04
   24.0400009      -7.52885710E-04
   24.0799999      -7.47705344E-04
   24.1200008      -7.36946589E-04
   24.1599998      -7.21350661E-04
   24.2000008      -7.01625017E-04
   24.2399998      -6.78433513E-04
   24.2800007      -6.52388611E-04
   24.3199997      -6.24045671E-04
   24.3600006      -5.93899342E-04
   24.3999996      -5.62381640E-04
   24.4400005      -5.29862184E-04
   24.4799995      -4.96650173E-04
   24.5200005      -4.62997472E-04
   24.5599995      -4.29103209E-04
   24.6000004      -3.95119481E-04
   24.6399994      -3.61157145E-04
   24.6800003      -3.27292510E-04
   24.7199993      -2.93573976E-04
   24.7600002      -2.60028202E-04
   24.7999992      -2.26666438E-04
   24.8400002      -1.93489657E-04
   24.8799992      -1.60493248E-04
   24.9200001      -1.27670850E-04
   24.9599991      -9.50172689E-05
   25.0000000      -6.25304237E-05
   25.0400009      -3.02125609E-05
   25.0799999       1.92920015E-06
   25.1200008       3.38830432E-05
   25.1599998       6.56328339E-05
   25.2000008       9.71587579E-05
   25.2399998       1.28437940E-04
   25.2800007       1.59444782E-04
   25.3199997       1.90150909E-04
   25.3600006       2.20524700E-04
   25.3999996       2.50529876E-04
   25.4400005       2.80123757E-04
   25.4799995       3.09254538E-04
   25.5200005       3.37858044E-04
   25.5599995       3.65854095E-04
   25.6000004       3.93142283E-04
   25.6399994       4.19597811E-04
   25.6800003       4.45067213E-04
   25.7199993       4.69364662E-04
   25.7600002       4.92268649E-04
   25.7999992       5.13519743E-04
   25.8400002       5.32819016E-04
   25.8799992       5.49828692E-04
   25.9200001       5.64173621E-04
   25.9599991       5.75444428E-04
   26.0000000       5.83203509E-04
   26.0400009       5.86991548E-04
   26.0799999       5.86337468E-04
   26.1200008       5.80768567E-04
   26.1599998       5.69824246E-04
   26.2000008       5.53069403E-04
   26.2399998       5.30110206E-04
   26.2800007       5.00610040E-04
   26.3199997       4.64305660E-04
   26.3600006       4.21023520E-04
   26.3999996       3.70694994E-04
   26.4400005       3.13370227E-04
   26.4799995       2.49230216E-04
   26.5200005       1.78596427E-04
   26.5599995       1.01937549E-04
   26.6000004       1.98728012E-05
   26.6399994      -6.68281427E-05
   26.6800003      -1.57249291E-04
   26.7199993      -2.50336278E-04
   26.7600002      -3.44908360E-04
   26.7999992      -4.39674302E-04
   26.8400002      -5.33251965E-04
   26.8799992      -6.24191191E-04
   26.9200001      -7.10999477E-04
   26.9599991      -7.92170526E-04
   27.0000000      -8.66214279E-04
   27.0400009      -9.31687769E-04
   27.0799999      -9.87226842E-04
   27.1200008      -1.03157712E-03
   27.1599998      -1.06362393E-03
   27.2000008      -1.08241930E-03
   27.2399998      -1.08720746E-03
   27.2800007      -1.07744604E-03
   27.3199997      -1.05282234E-03
   27.3600006      -1.01326685E-03
   27.3999996      -9.58960096E-04
   27.4400005      -8.90334544E-04
   27.4799995      -8.08072160E-04
   27.5200005      -7.13095244E-04
   27.5599995      -6.06553396E-04
   27.6000004      -4.89804894E-04
   27.6399994      -3.64393869E-04
   27.6800003      -2.32024133E-04
   27.7199993      -9.45290085E-05
   27.7600002       4.61608397E-05
   27.7999992       1.88051650E-04
   27.8400002       3.29121860E-04
   27.8799992       4.67357662E-04
   27.9200001       6.00787927E-04
   27.9599991       7.27518171E-04
   28.0000000       8.45762377E-04
   28.0400009       9.53872455E-04
   28.0799999       1.05036399E-03
   28.1200008       1.13393937E-03
   28.1599998       1.20350579E-03
   28.2000008       1.25819060E-03
   28.2399998       1.29735016E-03
   28.2800007       1.32057676E-03
   28.3199997       1.32769940E-03
   28.3600006       1.31878187E-03
   28.3999996       1.29411498E-03
   28.4400005       1.25420815E-03
   28.4799995       1.19977479E-03
   28.5200005       1.13171665E-03
   28.5599995       1.05110544E-03
   28.6000004       9.59162309E-04
   28.6399994       8.57236097E-04
   28.6800003       7.46780250E-04
   28.7199993       6.29329472E-04
   28.7600002       5.06476033E-04
   28.7999992       3.79846315E-04
   28.8400002       2.51078047E-04
   28.8799992       1.21797959E-04
   28.9200001      -6.39927021E-06
   28.9599991      -1.31970810E-04
   29.0000000      -2.53444217E-04
   29.0400009      -3.69434507E-04
   29.0799999      -4.78659553E-04
   29.1200008      -5.79953950E-04
   29.1599998      -6.72281021E-04
   29.2000008      -7.54743291E-04
   29.2399998      -8.26591044E-04
   29.2800007      -8.87228874E-04
   29.3199997      -9.36220866E-04
   29.3600006      -9.73293616E-04
   29.3999996      -9.98337404E-04
   29.4400005      -1.01140549E-03
   29.4799995      -1.01271179E-03