  -4.80000019       0.00000000
  -4.76000023       0.00000000
  -4.71999979       0.00000000
  -4.67999983       0.00000000
  -4.63999987       0.00000000
  -4.59999990       0.00000000
  -4.55999994       0.00000000
  -4.51999998       0.00000000
  -4.48000002       0.00000000
  -4.44000006       0.00000000
  -4.40000010       0.00000000
  -4.36000013       0.00000000
  -4.32000017       0.00000000
  -4.28000021       0.00000000
  -4.23999977       0.00000000
  -4.19999981       0.00000000
  -4.15999985      -2.80259693E-45
  -4.11999989      -4.20389539E-44
  -4.07999992      -4.06376555E-43
  -4.03999996      -3.09827090E-42
  -4.00000000      -1.88334514E-41
  -3.96000004      -9.88700144E-41
  -3.92000008      -4.58821551E-40
  -3.88000011      -1.91667362E-39
  -3.83999991      -7.30256987E-39
  -3.79999995      -2.56377111E-38
  -3.75999999      -8.36161800E-38
  -3.72000003      -2.55005470E-37
  -3.68000007      -7.31084403E-37
  -3.64000010      -1.97895575E-36
  -3.59999990      -5.07584832E-36
  -3.55999994      -1.23725430E-35
  -3.51999998      -2.87292283E-35
  -3.48000002      -6.36698480E-35
  -3.44000006      -1.34875097E-34
  -3.40000010      -2.73390828E-34
  -3.35999990      -5.30614936E-34
  -3.31999993      -9.86323514E-34
  -3.27999997      -1.75545737E-33
  -3.24000001      -2.98893610E-33
  -3.20000005      -4.86047078E-33
  -3.16000009      -7.52780117E-33
  -3.11999989      -1.10543827E-32
  -3.07999992      -1.52787317E-32
  -3.03999996      -1.96266929E-32
  -3.00000000      -2.28805097E-32
  -2.96000004      -2.29502650E-32
  -2.92000008      -1.67372455E-32
  -2.88000011      -2.28577586E-34
  -2.83999991       3.09968809E-32
  -2.79999995       8.06635097E-32
  -2.75999999       1.49961952E-31
  -2.72000003       2.34994698E-31
  -2.68000007       3.23775437E-31
  -2.64000010       3.93408854E-31
  -2.59999990       4.08480901E-31
  -2.55999994       3.22039702E-31
  -2.51999998       8.07036117E-32
  -2.48000002      -3.64762268E-31
  -2.44000006      -1.04274229E-30
  -2.40000010      -1.93850773E-30
  -2.35999990      -2.96868879E-30
  -2.31999993      -3.95681931E-30
  -2.27999997      -4.61641496E-30
  -2.24000001      -4.54995533E-30
  -2.20000005      -3.27363892E-30
  -2.16000009      -2.78656860E-31
  -2.11999989       4.86030351E-30
  -2.07999992       1.23204251E-29
  -2.03999996       2.18064501E-29
  -2.00000000       3.22752877E-29
  -1.96000004       4.16414251E-29
  -1.91999996       4.65336212E-29
  -1.88000000       4.22286050E-29
  -1.84000003       2.29522761E-29
  -1.79999995      -1.72063033E-29
  -1.75999999      -8.25158907E-29
  -1.72000003      -1.72801729E-28
  -1.67999995      -2.79722547E-28
  -1.63999999      -3.82693186E-28
  -1.60000002      -4.45688260E-28
  -1.55999994      -4.16929407E-28
  -1.51999998      -2.34084892E-28
  -1.48000002       1.62293253E-28
  -1.44000006       8.05294962E-28
  -1.39999998       1.66876899E-27
  -1.36000001       2.62982980E-27
  -1.32000005       3.43719523E-27
  -1.27999997       3.70181223E-27
  -1.24000001       2.93054238E-27
  -1.20000005       6.23285000E-28
  -1.15999997      -3.55457296E-27
  -1.12000000      -9.53181633E-27
  -1.08000004      -1.65612981E-26
  -1.03999996      -2.29968300E-26
  -1.00000000      -2.62315079E-26
 -0.959999979      -2.29338521E-26
 -0.920000017      -9.70532567E-27
 -0.879999995       1.57839835E-26
 -0.839999974       5.32575836E-26
 -0.800000012       9.81636817E-26
 -0.759999990       1.40373878E-25
 -0.720000029       1.63948420E-25
 -0.680000007       1.48750423E-25
 -0.639999986       7.45530440E-26
 -0.600000024      -7.21689584E-26
 -0.560000002      -2.89377846E-25
 -0.519999981      -5.50256711E-25
 -0.479999989      -7.96546925E-25
 -0.439999998      -9.38282303E-25
 -0.400000006      -8.63956914E-25
 -0.360000014      -4.64107627E-25
 -0.319999993       3.31407418E-25
 -0.280000001       1.50655699E-24
 -0.239999995       2.91246933E-24
 -0.200000003       4.23640394E-24
 -0.159999996       5.00573068E-24
 -0.119999997       4.64607243E-24
  -7.99999982E-02   2.60617161E-24
  -3.99999991E-02  -1.45241530E-24
   2.77555756E-16  -7.42469573E-24
   3.99999991E-02  -1.45412545E-23
   7.99999982E-02  -2.12327230E-23
  0.119999997      -2.51705399E-23
  0.159999996      -2.35692075E-23
  0.200000003      -1.37995880E-23
  0.239999995       5.70788709E-24
  0.280000001       3.43931774E-23
  0.319999993       6.85710337E-23
  0.360000014       1.00857097E-22
  0.400000006       1.20417636E-22
  0.439999998       1.14404332E-22
  0.479999989       7.07638840E-23
  0.519999981      -1.77067892E-23
  0.560000002      -1.48632110E-22
  0.600000024      -3.05725707E-22
  0.639999986      -4.56352525E-22
  0.680000007      -5.52680141E-22
  0.720000029      -5.37907262E-22
  0.759999990      -3.58305066E-22
  0.800000012       1.95295596E-23
  0.839999974       5.88632508E-22
  0.879999995       1.28326853E-21
  0.920000017       1.96828495E-21
  0.959999979       2.44308965E-21
   1.00000000       2.46625313E-21
   1.03999996       1.80374528E-21
   1.08000004       2.98560225E-22
   1.12000000      -2.04761129E-21
   1.15999997      -4.99778528E-21
   1.20000005      -8.03188578E-21
   1.24000001      -1.03545217E-20
   1.27999997      -1.09821579E-20
   1.32000005      -8.92264298E-21
   1.36000001      -3.44075389E-21
   1.39999998       5.62281878E-21
   1.44000006       1.75407365E-20
   1.48000002       3.04835927E-20
   1.51999998       4.15001005E-20
   1.55999994       4.67854227E-20
   1.60000002       4.22945364E-20
   1.63999999       2.46916127E-20
   1.67999995      -7.46552959E-21
   1.72000003      -5.25112186E-20
   1.75999999      -1.04728685E-19
   1.79999995      -1.54035997E-19
   1.84000003      -1.86648963E-19
   1.88000000      -1.86965294E-19
   1.91999996      -1.40706059E-19
   1.96000004      -3.90487863E-20
   2.00000000       1.16870669E-19
   2.03999996       3.12054972E-19
   2.07999992       5.15549519E-19
   2.11999989       6.81400473E-19
   2.16000009       7.53658422E-19
   2.20000005       6.75823621E-19
   2.24000001       4.04205012E-19
   2.27999997      -7.64838013E-20
   2.31999993      -7.38152249E-19
   2.35999990      -1.49879006E-18
   2.40000010      -2.22055167E-18
   2.44000006      -2.72020661E-18
   2.48000002      -2.79418592E-18
   2.51999998      -2.25786434E-18
   2.55999994      -9.95277051E-19
   2.59999990       9.88340625E-19
   2.64000010       3.52220949E-18
   2.68000007       6.24696353E-18
   2.72000003       8.62583695E-18
   2.75999999       9.99982199E-18
   2.79999995       9.69004285E-18
   2.83999991       7.14111475E-18
   2.88000011       2.08795834E-18
   2.92000008      -5.28271330E-18
   2.96000004      -1.42136215E-17
   3.00000000      -2.33414934E-17
   3.03999996      -3.07809887E-17
   3.07999992      -3.43499223E-17
   3.11999989      -3.19344094E-17
   3.16000009      -2.19618554E-17
   3.20000005      -3.91617908E-18
   3.24000001       2.12004522E-17
   3.27999997       5.05743686E-17
   3.31999993       7.95713603E-17
   3.35999990       1.02104190E-16
   3.40000010       1.11418886E-16
   3.44000006       1.01267924E-16
   3.48000002       6.73482779E-17
   3.51999998       8.79071886E-18
   3.55999994      -7.05882715E-17
   3.59999990      -1.61598362E-16
   3.64000010      -2.49859579E-16
   3.68000007      -3.17081649E-16
   3.72000003      -3.43505688E-16
   3.75999999      -3.11362218E-16
   3.79999995      -2.08954518E-16
   3.83999991      -3.47419993E-17
   3.88000011       1.99379115E-16
   3.92000008       4.66465809E-16
   3.96000004       7.25371540E-16
   4.00000000       9.24562932E-16
   4.03999996       1.00899507E-15
   4.07999992       9.29565614E-16
   4.11999989       6.54044114E-16
   4.15999985       1.77798860E-16
   4.19999981      -4.67758222E-16
   4.23999977      -1.21119909E-15
   4.28000021      -1.94349507E-15
   4.32000017      -2.52802955E-15
   4.36000013      -2.81831261E-15
   4.40000010      -2.68209552E-15
   4.44000006      -2.02908712E-15
   4.48000002      -8.38115173E-16
   4.51999998       8.21336509E-16
   4.55999994       2.77849190E-15
   4.59999990       4.76612268E-15
   4.63999987       6.44374047E-15
   4.67999983       7.43942092E-15
   4.71999979       7.40727094E-15
   4.76000023       6.09410348E-15
   4.80000019       3.40576109E-15
   4.84000015      -5.38555459E-16
   4.88000011      -5.37615030E-15
   4.92000008      -1.05055853E-14
   4.96000004      -1.51333549E-14
   5.00000000      -1.83638657E-14
   5.03999996      -1.93269337E-14
   5.07999992      -1.73294420E-14
   5.11999989      -1.20108095E-14
   5.15999985      -3.47702006E-15
   5.19999981       7.61376148E-15
   5.23999977       2.00384075E-14
   5.28000021       3.20862315E-14
   5.32000017       4.17325442E-14
   5.36000013       4.68996451E-14
   5.40000010       4.57805418E-14
   5.44000006       3.71855189E-14
   5.48000002       2.08601667E-14
   5.51999998      -2.28181973E-15
   5.55999994      -3.00650482E-14
   5.59999990      -5.91399217E-14
   5.63999987      -8.52722434E-14
   5.67999983      -1.03827774E-13
   5.71999979      -1.10412547E-13
   5.76000023      -1.01598058E-13
   5.80000019      -7.56343637E-14
   5.84000015      -3.30384219E-14
   5.88000011       2.30555897E-14
   5.92000008       8.68806708E-14
   5.96000004       1.50418184E-13
   6.00000000       2.04188080E-13
   6.03999996       2.38400228E-13
   6.07999992       2.44355751E-13
   6.11999989       2.15931195E-13
   6.15999985       1.50937382E-13
   6.19999981       5.21301108E-14
   6.23999977      -7.23359564E-14
   6.28000021      -2.09168755E-13
   6.32000017      -3.40994431E-13
   6.36000013      -4.48180718E-13
   6.40000010      -5.11285296E-13
   6.44000006      -5.13871660E-13
   6.48000002      -4.45342710E-13
   6.51999998      -3.03385084E-13
   6.55999994      -9.56131333E-14
   6.59999990       1.59944581E-13
   6.63999987       4.35759664E-13
   6.67999983       6.97196749E-13
   6.71999979       9.06261936E-13
   6.76000023       1.02637289E-12
   6.80000019       1.02762427E-12
   6.84000015       8.91877663E-13
   6.88000011       6.16939768E-13
   6.92000008       2.19118235E-13
   6.96000004      -2.66419997E-13
   7.00000000      -7.87831226E-13
   7.03999996      -1.28135068E-12
   7.07999992      -1.67829845E-12
   7.11999989      -1.91365738E-12
   7.15999985      -1.93524233E-12
   7.19999981      -1.71227680E-12
   7.23999977      -1.24213378E-12
   7.28000021      -5.54101957E-13
   7.32000017       2.90681894E-13
   7.36000013       1.20356503E-12
   7.40000010       2.07686689E-12
   7.44000006       2.79583431E-12
   7.48000002       3.25282141E-12
   7.51999998       3.36202333E-12
   7.55999994       3.07283474E-12
   7.59999990       2.37990834E-12
   7.63999987       1.32823895E-12
   7.67999983       1.21254782E-14
   7.71999979      -1.43241820E-12
   7.76000023      -2.84137449E-12
   7.80000019      -4.04125518E-12
   7.84000015      -4.87038881E-12
   7.88000011      -5.20034666E-12
   7.92000008      -4.95465518E-12
   7.96000004      -4.12209589E-12
   8.00000000      -2.76242310E-12
   8.03999996      -1.00321043E-12
   8.07999992       9.72339288E-13
   8.11999989       2.94555027E-12
   8.15999985       4.68815785E-12
   8.19999981       5.99074262E-12
   8.23999977       6.68998711E-12
   8.27999973       6.69096462E-12
   8.31999969       5.98116088E-12
   8.35999966       4.63390134E-12
   8.39999962       2.80025395E-12
   8.43999958       6.90084545E-13
   8.47999954      -1.45545175E-12
   8.52000046      -3.39632012E-12
   8.56000042      -4.92634015E-12
   8.60000038      -5.90138225E-12
   8.64000034      -6.25859217E-12
   8.68000031      -6.02335456E-12
   8.72000027      -5.30241736E-12
   8.76000023      -4.26369877E-12
   8.80000019      -3.10545903E-12
   8.84000015      -2.01942087E-12
   8.88000011      -1.15375873E-12
   8.92000008      -5.82374481E-13
   8.96000004      -2.86383574E-13
   9.00000000      -1.52245255E-13
   9.03999996       1.13973501E-14
   9.07999992       4.39043712E-13
   9.11999989       1.35983336E-12
   9.15999985       2.94205047E-12
   9.19999981       5.23953754E-12
   9.23999977       8.14979507E-12
   9.27999973       1.13929794E-11
   9.31999969       1.45188852E-11
   9.35999966       1.69454849E-11
   9.39999962       1.80280704E-11
   9.43999958       1.71529995E-11
   9.47999954       1.38453094E-11
   9.52000046       7.87568708E-12
   9.56000042      -6.49852351E-13
   9.60000038      -1.12340571E-11
   9.64000034      -2.29802635E-11
   9.68000031      -3.46408909E-11
   9.72000027      -4.47246060E-11
   9.76000023      -5.16560128E-11
   9.80000019      -5.39732911E-11
   9.84000015      -5.05419491E-11
   9.88000011      -4.07574946E-11
   9.92000008      -2.47078261E-11
   9.96000004      -3.26785972E-12
   10.0000000       2.18954091E-11
   10.0400000       4.84197821E-11
   10.0799999       7.34468528E-11
   10.1199999       9.39097272E-11
   10.1599998       1.06882704E-10
   10.1999998       1.09955017E-10
   10.2399998       1.01583429E-10
   10.2799997       8.13762807E-11
   10.3199997       5.02658089E-11
   10.3599997       1.05354041E-11
   10.3999996      -3.43158349E-11
   10.4399996      -7.98698815E-11
   10.4799995      -1.21225543E-10
   10.5200005      -1.53531216E-10
   10.5600004      -1.72556788E-10
   10.6000004      -1.75236603E-10
   10.6400003      -1.60114241E-10
   10.6800003      -1.27626465E-10
   10.7200003      -8.01794672E-11
   10.7600002      -2.19936812E-11
   10.8000002       4.12792786E-11
   10.8400002       1.03134577E-10
   10.8800001       1.56927527E-10
   10.9200001       1.96641731E-10
   10.9600000       2.17619811E-10
   11.0000000       2.17163912E-10
   11.0400000       1.94924354E-10
   11.0799999       1.53017779E-10
   11.1199999       9.58473093E-11
   11.1599998       2.96343158E-11
   11.1999998      -3.82913493E-11
   11.2399998      -1.00362336E-10
   11.2799997      -1.49701113E-10
   11.3199997      -1.80986851E-10
   11.3599997      -1.91147681E-10
   11.3999996      -1.79782106E-10
   11.4399996      -1.49244742E-10
   11.4799995      -1.04372830E-10
   11.5200005      -5.18765621E-11
   11.5600004       5.38444127E-13
   11.6000004       4.52095791E-11
   11.6400003       7.55838031E-11
   11.6800003       8.71701322E-11
   11.7200003       7.82450632E-11
   11.7600002       5.02051942E-11
   11.8000002       7.50408763E-12
   11.8400002      -4.28364844E-11
   11.8800001      -9.20942281E-11
   11.9200001      -1.30993147E-10
   11.9600000      -1.50987889E-10
   12.0000000      -1.45519069E-10
   12.0400000      -1.11069542E-10
   12.0799999      -4.78705998E-11
   12.1199999       3.98529786E-11
   12.1599998       1.44153522E-10
   12.1999998       2.54134963E-10
   12.2399998       3.57152086E-10
   12.2799997       4.40295883E-10
   12.3199997       4.91982954E-10
   12.3599997       5.03446118E-10
   12.3999996       4.69928152E-10
   12.4399996       3.91414234E-10
   12.4799995       2.72792094E-10
   12.5200005       1.23402649E-10
   12.5600004      -4.39770304E-11
   12.6000004      -2.14598797E-10
   12.6400003      -3.73472642E-10
   12.6800003      -5.07133890E-10
   12.7200003      -6.05209161E-10
   12.7600002      -6.61559085E-10
   12.8000002      -6.74824474E-10
   12.8400002      -6.48275711E-10
   12.8800001      -5.88954052E-10
   12.9200001      -5.06188758E-10
   12.9600000      -4.09660306E-10
   13.0000000      -3.07249282E-10
   13.0400000      -2.02950726E-10
   13.0799999      -9.51397017E-11
   13.1199999       2.45546344E-11
   13.1599998       1.71572437E-10
   13.1999998       3.67837039E-10
   13.2399998       6.40254794E-10
   13.2799997       1.01840136E-09
   13.3199997       1.53158730E-09
   13.3599997       2.20556418E-09
   13.3999996       3.05917158E-09
   13.4399996       4.10122247E-09
   13.4799995       5.32788125E-09
   13.5200005       6.72072176E-09
   13.5600004       8.24554736E-09
   13.6000004       9.85194060E-09
   13.6400003       1.14733991E-08
   13.6800003       1.30278108E-08
   13.7200003       1.44179380E-08
   13.7600002       1.55315423E-08
   13.8000002       1.62407492E-08
   13.8400002       1.64003016E-08
   13.8800001       1.58443569E-08
   13.9200001       1.43815972E-08
   13.9600000       1.17884236E-08
   14.0000000       7.80014808E-09
   14.0400000       2.10005169E-09
   14.0799999      -5.69376102E-09
   14.1199999      -1.60438329E-08
   14.1599998      -2.95113622E-08
   14.1999998      -4.67770462E-08
   14.2399998      -6.86652371E-08
   14.2799997      -9.61719451E-08
   14.3199997      -1.30497625E-07
   14.3599997      -1.73085567E-07
   14.3999996      -2.25667009E-07
   14.4399996      -2.90314318E-07
   14.4799995      -3.69503312E-07
   14.5200005      -4.66186208E-07
   14.5600004      -5.83876670E-07
   14.6000004      -7.26747885E-07
   14.6400003      -8.99745316E-07
   14.6800003      -1.10871554E-06
   14.7200003      -1.36055155E-06
   14.7600002      -1.66335644E-06
   14.8000002      -2.02662636E-06
   14.8400002      -2.46145351E-06
   14.8800001      -2.98075065E-06
   14.9200001      -3.59949649E-06
   14.9600000      -4.33500600E-06
   15.0000000      -5.20722233E-06
   15.0400000      -6.23903406E-06
   15.0799999      -7.45661555E-06
   15.1199999      -8.88979048E-06
   15.1599998      -1.05724175E-05
   15.1999998      -1.25427996E-05
   15.2399998      -1.48441068E-05
   15.2799997      -1.75248133E-05
   15.3199997      -2.06391469E-05
   15.3599997      -2.42475326E-05
   15.3999996      -2.84170401E-05
   15.4399996      -3.32218042E-05
   15.4799995      -3.87434229E-05
   15.5200005      -4.50713233E-05
   15.5600004      -5.23030503E-05
   15.6000004      -6.05445130E-05
   15.6400003      -6.99101220E-05
   15.6800003      -8.05228265E-05
   15.7200003      -9.25140484E-05
   15.7600002      -1.06023414E-04
   15.8000002      -1.21198398E-04
   15.8400002      -1.38193689E-04
   15.8800001      -1.57170420E-04
   15.9200001      -1.78295115E-04
   15.9600000      -2.01738425E-04
   16.0000000      -2.27673547E-04
   16.0400009      -2.56274419E-04
   16.0799999      -2.87713570E-04
   16.1200008      -3.22159613E-04
   16.1599998      -3.59774567E-04
   16.2000008      -4.00710735E-04
   16.2399998      -4.45107289E-04
   16.2800007      -4.93086583E-04
   16.3199997      -5.44750190E-04
   16.3600006      -6.00174826E-04
   16.3999996      -6.59407757E-04
   16.4400005      -7.22462137E-04
   16.4799995      -7.89312588E-04
   16.5200005      -8.59890133E-04
   16.5599995      -9.34077776E-04
   16.6000004      -1.01170572E-03
   16.6399994      -1.09254685E-03
   16.6800003      -1.17631268E-03
   16.7199993      -1.26264966E-03
   16.7600002      -1.35113602E-03
   16.7999992      -1.44127884E-03
   16.8400002      -1.53251237E-03
   16.8799992      -1.62419665E-03
   16.9200001      -1.71561749E-03
   16.9599991      -1.80598756E-03
   17.0000000      -1.89444795E-03
   17.0400009      -1.98007212E-03
   17.0799999      -2.06186925E-03
   17.1200008      -2.13879091E-03
   17.1599998      -2.20973836E-03
   17.2000008      -2.27357051E-03
   17.2399998      -2.32911436E-03
   17.2800007      -2.37517594E-03
   17.3199997      -2.41055316E-03
   17.3600006      -2.43404950E-03
   17.3999996      -2.44448823E-03
   17.4400005      -2.44072941E-03
   17.4799995      -2.42168526E-03
   17.5200005      -2.38633808E-03
   17.5599995      -2.33375723E-03
   17.6000004      -2.26311642E-03
   17.6399994      -2.17371131E-03
   17.6800003      -2.06497661E-03
   17.7199993      -1.93650194E-03
   17.7600002      -1.78804668E-03
   17.7999992      -1.61955378E-03
   17.8400002      -1.43116200E-03
   17.8799992      -1.22321595E-03
   17.9200001      -9.96273709E-04
   17.9599991      -7.51112588E-04
   18.0000000      -4.88731486E-04
   18.0400009      -2.10350961E-04
   18.0799999       8.25899697E-05
   18.1200008       3.88440094E-04
   18.1599998       7.05345476E-04
   18.2000008       1.03126210E-03
   18.2399998       1.36397174E-03
   18.2800007       1.70110073E-03
   18.3199997       2.04014149E-03
   18.3600006       2.37847725E-03
   18.3999996       2.71340879E-03
   18.4400005       3.04218242E-03
   18.4799995       3.36202164E-03
   18.5200005       3.67015786E-03
   18.5599995       3.96386348E-03
   18.6000004       4.24048444E-03
   18.6399994       4.49747406E-03
   18.6800003       4.73242300E-03
   18.7199993       4.94309328E-03
   18.7600002       5.12744486E-03
   18.7999992       5.28366491E-03
   18.8400002       5.41019021E-03
   18.8799992       5.50573179E-03
   18.9200001       5.56929084E-03
   18.9599991       5.60017349E-03
   19.0000000       5.59800258E-03
   19.0400009       5.56272175E-03
   19.0799999       5.49460156E-03
   19.1200008       5.39423339E-03
   19.1599998       5.26252389E-03
   19.2000008       5.10068517E-03
   19.2399998       4.91021946E-03
   19.2800007       4.69289999E-03
   19.3199997       4.45074774E-03
   19.3600006       4.18600719E-03
   19.3999996       3.90111678E-03
   19.4400005       3.59867979E-03
   19.4799995       3.28142941E-03
   19.5200005       2.95219617E-03
   19.5599995       2.61387206E-03
   19.6000004       2.26937677E-03
   19.6399994       1.92162150E-03
   19.6800003       1.57347578E-03
   19.7199993       1.22773473E-03
   19.7600002       8.87087488E-04
   19.7999992       5.54089202E-04
   19.8400002       2.31134371E-04
   19.8799992      -7.95660453E-05
   19.9200001      -3.76004784E-04
   19.9599991      -6.56394870E-04
   20.0000000      -9.19182785E-04
   20.0400009      -1.16305763E-03
   20.0799999      -1.38695736E-03
   20.1200008      -1.59007043E-03
   20.1599998      -1.77183514E-03
   20.2000008      -1.93193427E-03
   20.2399998      -2.07028817E-03
   20.2800007      -2.18704320E-03
   20.3199997      -2.28255941E-03
   20.3600006      -2.35739420E-03
   20.3999996      -2.41228566E-03
   20.4400005      -2.44813412E-03
   20.4799995      -2.46598013E-03
   20.5200005      -2.46698549E-03
   20.5599995      -2.45241122E-03
   20.6000004      -2.42359517E-03
   20.6399994      -2.38193199E-03
   20.6800003      -2.32885173E-03
   20.7199993      -2.26579956E-03
   20.7600002      -2.19421694E-03
   20.7999992      -2.11552368E-03
   20.8400002      -2.03110161E-03
   20.8799992      -1.94227952E-03
   20.9200001      -1.85032038E-03
   20.9599991      -1.75640895E-03
   21.0000000      -1.66164304E-03
   21.0400009      -1.56702474E-03
   21.0799999      -1.47345464E-03
   21.1200008      -1.38172763E-03
   21.1599998      -1.29252963E-03
   21.2000008      -1.20643678E-03
   21.2399998      -1.12391578E-03
   21.2800007      -1.04532565E-03
   21.3199997      -9.70920781E-04
   21.3600006      -9.00855230E-04
   21.3999996      -8.35187966E-04
   21.4400005      -7.73889187E-04
   21.4799995      -7.16847251E-04
   21.5200005      -6.63876592E-04
   21.5599995      -6.14725752E-04
   21.6000004      -5.69086347E-04
   21.6399994      -5.26601798E-04
   21.6800003      -4.86876874E-04
   21.7199993      -4.49486804E-04
   21.7600002      -4.13986738E-04
   21.7999992      -3.79920821E-04
   21.8400002      -3.46831337E-04
   21.8799992      -3.14267381E-04
   21.9200001      -2.81793094E-04
   21.9599991      -2.48995464E-04
   22.0000000      -2.15491600E-04
   22.0400009      -1.80935342E-04
   22.0799999      -1.45023107E-04
   22.1200008      -1.07499007E-04
   22.1599998      -6.81591773E-05
   22.2000008      -2.68551357E-05
   22.2399998       1.65036599E-05
   22.2800007       6.19482307E-05
   22.3199997       1.09449400E-04
   22.3600006       1.58918047E-04
   22.3999996       2.10206286E-04
   22.4400005       2.63109454E-04
   22.4799995       3.17369064E-04
   22.5200005       3.72676353E-04
   22.5599995       4.28676693E-04
   22.6000004       4.84974560E-04
   22.6399994       5.41139103E-04
   22.6800003       5.96710015E-04
   22.7199993       6.51203853E-04
   22.7600002       7.04120786E-04
   22.7999992       7.54950801E-04
   22.8400002       8.03180679E-04
   22.8799992       8.48300522E-04
   22.9200001       8.89810035E-04
   22.9599991       9.27224406E-04
   23.0000000       9.60080186E-04
   23.0400009       9.87940468E-04
   23.0799999       1.01039943E-03
   23.1200008       1.02708652E-03
   23.1599998       1.03767030E-03
   23.2000008       1.04186102E-03
   23.2399998       1.03941292E-03
   23.2800007       1.03012659E-03
   23.3199997       1.01384998E-03
   23.3600006       9.90479253E-04
   23.3999996       9.59959056E-04
   23.4400005       9.22283041E-04
   23.4799995       8.77493352E-04
   23.5200005       8.25680327E-04
   23.5599995       7.66982092E-04
   23.6000004       7.01583689E-04
   23.6399994       6.29716378E-04
   23.6800003       5.51657402E-04
   23.7199993       4.67728969E-04
   23.7600002       3.78297787E-04
   23.7999992       2.83774600E-04
   23.8400002       1.84613658E-04
   23.8799992       8.13121806E-05
   23.9200001      -2.55901414E-05
   23.9599991      -1.35511873E-04
   24.0000000      -2.47830700E-04
   24.0400009      -3.61884653E-04
   24.0799999      -4.76973626E-04
   24.1200008      -5.92361437E-04
   24.1599998      -7.07278610E-04
   24.2000008      -8.20925576E-04
   24.2399998      -9.32476716E-04
   24.2800007      -1.04108558E-03
   24.3199997      -1.14589033E-03
   24.3600006      -1.24602078E-03
   24.3999996      -1.34060625E-03
   24.4400005      -1.42878375E-03
   24.4799995      -1.50970765E-03
   24.5200005      -1.58255966E-03
   24.5599995      -1.64655992E-03
   24.6000004      -1.70097826E-03
   24.6399994      -1.74514612E-03
   24.6800003      -1.77846802E-03
   24.7199993      -1.80043350E-03
   24.7600002      -1.81062869E-03
   24.7999992      -1.80874695E-03
   24.8400002      -1.79459923E-03
   24.8799992      -1.76812266E-03
   24.9200001      -1.72938884E-03
   24.9599991      -1.67860906E-03
   25.0000000      -1.61613908E-03
   25.0400009      -1.54248101E-03
   25.0799999      -1.45828351E-03
   25.1200008      -1.36433938E-03
   25.1599998      -1.26158074E-03
   25.2000008      -1.15107209E-03
   25.2399998      -1.03400007E-03
   25.2800007      -9.11661889E-04
   25.3199997      -7.85450626E-04
   25.3600006      -6.56838820E-04
   25.3999996      -5.27360186E-04
   25.4400005      -3.98589182E-04
   25.4799995      -2.72119825E-04
   25.5200005      -1.49543135E-04
   25.5599995      -3.24239081E-05
   25.6000004       7.77226232E-05
   25.6399994       1.79454073E-04
   25.6800003       2.71423574E-04
   25.7199993       3.52401548E-04
   25.7600002       4.21296019E-04
   25.7999992       4.77171096E-04
   25.8400002       5.19263500E-04
   25.8799992       5.46996307E-04
   25.9200001       5.59990236E-04
   25.9599991       5.58071595E-04
   26.0000000       5.41277288E-04
   26.0400009       5.09856327E-04
   26.0799999       4.64268174E-04
   26.1200008       4.05177329E-04
   26.1599998       3.33444768E-04
   26.2000008       2.50116253E-04
   26.2399998       1.56407550E-04
   26.2800007       5.36868865E-05
   26.3199997      -5.65450391E-05
   26.3600006      -1.72677115E-04
   26.3999996      -2.93011602E-04
   26.4400005      -4.15789051E-04
   26.4799995      -5.39214350E-04
   26.5200005      -6.61482743E-04
   26.5599995      -7.80806004E-04
   26.6000004      -8.95437901E-04
   26.6399994      -1.00369856E-03
   26.6800003      -1.10399758E-03
   26.7199993      -1.19485508E-03
   26.7600002      -1.27492065E-03
   26.7999992      -1.34299020E-03
   26.8400002      -1.39801891E-03
   26.8799992      -1.43913273E-03
   26.9200001      -1.46563549E-03
   26.9599991      -1.47701404E-03
   27.0000000      -1.47293916E-03
   27.0400009      -1.45326450E-03
   27.0799999      -1.41802186E-03
   27.1200008      -1.36741367E-03
   27.1599998      -1.30180386E-03
   27.2000008      -1.22170569E-03
   27.2399998      -1.12776796E-03
   27.2800007      -1.02076016E-03
   27.3199997      -9.01556225E-04
   27.3600006      -7.71117455E-04
   27.3999996      -6.30475872E-04
   27.4400005      -4.80717019E-04
   27.4799995      -3.22963548E-04
   27.5200005      -1.58359966E-04
   27.5599995       1.19416709E-05
   27.6000004       1.86794539E-04
   27.6399994       3.65068059E-04
   27.6800003       5.45657123E-04
   27.7199993       7.27489241E-04
   27.7600002       9.09529743E-04
   27.7999992       1.09078491E-03
   27.8400002       1.27030339E-03
   27.8799992       1.44717551E-03
   27.9200001       1.62053131E-03
   27.9599991       1.78953691E-03
   28.0000000       1.95339043E-03
   28.0400009       2.11131596E-03
   28.0799999       2.26255949E-03
   28.1200008       2.40638177E-03
   28.1599998       2.54205335E-03
   28.2000008       2.66885082E-03
   28.2399998       2.78605265E-03
   28.2800007       2.89293681E-03
   28.3199997       2.98878038E-03
   28.3600006       3.07286065E-03
   28.3999996       3.14445817E-03
   28.4400005       3.20286234E-03
   28.4799995       3.24737816E-03
   28.5200005       3.27733555E-03
   28.5599995       3.29210074E-03
   28.6000004       3.29108885E-03
   28.6399994       3.27377860E-03
   28.6800003       3.23972781E-03
   28.7199993       3.18858889E-03
   28.7600002       3.12012690E-03
   28.7999992       3.03423451E-03
   28.8400002       2.93094874E-03
   28.8799992       2.81046564E-03
   28.9200001       2.67315307E-03
   28.9599991       2.51956237E-03
   29.0000000       2.35043629E-03
   29.0400009       2.16671498E-03
   29.0799999       1.96953770E-03
   29.1200008       1.76024286E-03
   29.1599998       1.54036155E-03
   29.2000008       1.31160894E-03
   29.2399998       1.07587094E-03
   29.2800007       8.35187617E-04
   29.3199997       5.91731630E-04
   29.3600006       3.47783935E-04
   29.3999996       1.05705774E-04
   29.4400005      -1.32092115E-04
   29.4799995      -3.63182742E-04