  -4.80000019       0.00000000
  -4.76000023       0.00000000
  -4.71999979       0.00000000
  -4.67999983       0.00000000
  -4.63999987       0.00000000
  -4.59999990       0.00000000
  -4.55999994       0.00000000
  -4.51999998       0.00000000
  -4.48000002       0.00000000
  -4.44000006       0.00000000
  -4.40000010       0.00000000
  -4.36000013       0.00000000
  -4.32000017       0.00000000
  -4.28000021       0.00000000
  -4.23999977       0.00000000
  -4.19999981       0.00000000
  -4.15999985      -5.60519386E-45
  -4.11999989      -6.02558340E-44
  -4.07999992      -5.59118087E-43
  -4.03999996      -3.90121492E-42
  -4.00000000      -2.30583662E-41
  -3.96000004      -1.19647067E-40
  -3.92000008      -5.54548453E-40
  -3.88000011      -2.32723865E-39
  -3.83999991      -8.93921641E-39
  -3.79999995      -3.17027999E-38
  -3.75999999      -1.04555374E-37
  -3.72000003      -3.22582247E-37
  -3.68000007      -9.35767115E-37
  -3.64000010      -2.56321784E-36
  -3.59999990      -6.65389209E-36
  -3.55999994      -1.64204967E-35
  -3.51999998      -3.86243366E-35
  -3.48000002      -8.67884297E-35
  -3.44000006      -1.86631195E-34
  -3.40000010      -3.84650978E-34
  -3.35999990      -7.60668042E-34
  -3.31999993      -1.44443901E-33
  -3.27999997      -2.63477416E-33
  -3.24000001      -4.61643154E-33
  -3.20000005      -7.76507838E-33
  -3.16000009      -1.25239122E-32
  -3.11999989      -1.93281261E-32
  -3.07999992      -2.84478890E-32
  -3.03999996      -3.97212707E-32
  -3.00000000      -5.21621269E-32
  -2.96000004      -6.34617015E-32
  -2.92000008      -6.94627471E-32
  -2.88000011      -6.37720555E-32
  -2.83999991      -3.77814875E-32
  -2.79999995       1.85375871E-32
  -2.75999999       1.14661904E-31
  -2.72000003       2.56040537E-31
  -2.68000007       4.39057437E-31
  -2.64000010       6.44879727E-31
  -2.59999990       8.33380168E-31
  -2.55999994       9.39202777E-31
  -2.51999998       8.72831263E-31
  -2.48000002       5.29868279E-31
  -2.44000006      -1.88806186E-31
  -2.40000010      -1.34516916E-30
  -2.35999990      -2.92298200E-30
  -2.31999993      -4.78459115E-30
  -2.27999997      -6.63761449E-30
  -2.24000001      -8.02723538E-30
  -2.20000005      -8.37017354E-30
  -2.16000009      -7.04133228E-30
  -2.11999989      -3.51234251E-30
  -2.07999992       2.47650159E-30
  -2.03999996       1.07494809E-29
  -2.00000000       2.05880316E-29
  -1.96000004       3.07387266E-29
  -1.91999996       3.95720194E-29
  -1.88000000       4.53788215E-29
  -1.84000003       4.67210202E-29
  -1.79999995       4.26766365E-29
  -1.75999999       3.27743955E-29
  -1.72000003       1.64407371E-29
  -1.67999995      -8.07187031E-30
  -1.63999999      -4.50216217E-29
  -1.60000002      -1.02128321E-28
  -1.55999994      -1.90078248E-28
  -1.51999998      -3.19282833E-28
  -1.48000002      -4.92772191E-28
  -1.44000006      -6.94966957E-28
  -1.39999998      -8.77785713E-28
  -1.36000001      -9.48051245E-28
  -1.32000005      -7.63022774E-28
  -1.27999997      -1.43194938E-28
  -1.24000001       1.08809688E-27
  -1.20000005       3.03186016E-27
  -1.15999997       5.60910148E-27
  -1.12000000       8.44021773E-27
  -1.08000004       1.07413119E-26
  -1.03999996       1.12892705E-26
  -1.00000000       8.52042347E-27
 -0.959999979       8.26137568E-28
 -0.920000017      -1.29167553E-26
 -0.879999995      -3.25996862E-26
 -0.839999974      -5.60287040E-26
 -0.800000012      -7.81845836E-26
 -0.759999990      -9.09296608E-26
 -0.720000029      -8.35662174E-26
 -0.680000007      -4.46320644E-26
 -0.639999986       3.48438876E-26
 -0.600000024       1.56746859E-25
 -0.560000002       3.10587209E-25
 -0.519999981       4.68805836E-25
 -0.479999989       5.84586064E-25
 -0.439999998       5.94469160E-25
 -0.400000006       4.27944321E-25
 -0.360000014       2.52740788E-26
 -0.319999993      -6.37056309E-25
 -0.280000001      -1.51668350E-24
 -0.239999995      -2.47832013E-24
 -0.200000003      -3.27937998E-24
 -0.159999996      -3.58031622E-24
 -0.119999997      -2.99105112E-24
  -7.99999982E-02  -1.16026707E-24
  -3.99999991E-02   2.09505206E-24
   2.77555756E-16   6.63638072E-24
   3.99999991E-02   1.18599739E-23
   7.99999982E-02   1.66119134E-23
  0.119999997       1.92207395E-23
  0.159999996       1.77036322E-23
  0.200000003       1.01806752E-23
  0.239999995      -4.51197475E-24
  0.280000001      -2.60837505E-23
  0.319999993      -5.20771796E-23
  0.360000014      -7.74057646E-23
  0.400000006      -9.44126086E-23
  0.439999998      -9.37100302E-23
  0.479999989      -6.59684869E-23
  0.519999981      -4.63367548E-24
  0.560000002       9.07299724E-23
  0.600000024       2.11108493E-22
  0.639999986       3.35682959E-22
  0.680000007       4.31622076E-22
  0.720000029       4.57173950E-22
  0.759999990       3.68847933E-22
  0.800000012       1.32712001E-22
  0.839999974      -2.61316044E-22
  0.879999995      -7.84698395E-22
  0.920000017      -1.35890578E-21
  0.959999979      -1.85225954E-21
   1.00000000      -2.08984900E-21
   1.03999996      -1.88010823E-21
   1.08000004      -1.05877412E-21
   1.12000000       4.53463300E-22
   1.15999997       2.58875886E-21
   1.20000005       5.07999281E-21
   1.24000001       7.43742646E-21
   1.27999997       8.97372300E-21
   1.32000005       8.89295414E-21
   1.36000001       6.44933942E-21
   1.39999998       1.16562572E-21
   1.44000006      -6.91916872E-21
   1.48000002      -1.70240507E-20
   1.51999998      -2.74907402E-20
   1.55999994      -3.58136280E-20
   1.60000002      -3.88998905E-20
   1.63999999      -3.35936691E-20
   1.67999995      -1.74454055E-20
   1.72000003       1.03628363E-20
   1.75999999       4.81022781E-20
   1.79999995       9.08259822E-20
   1.84000003       1.30210817E-19
   1.88000000       1.55166391E-19
   1.91999996       1.53378970E-19
   1.96000004       1.13796400E-19
   2.00000000       2.98323722E-20
   2.03999996      -9.71963134E-20
   2.07999992      -2.55135821E-19
   2.11999989      -4.19471018E-19
   2.16000009      -5.54134238E-19
   2.20000005      -6.15373469E-19
   2.24000001      -5.58959286E-19
   2.27999997      -3.50328489E-19
   2.31999993       2.35827415E-20
   2.35999990       5.42929146E-19
   2.40000010       1.14677715E-18
   2.44000006       1.73125893E-18
   2.48000002       2.15684760E-18
   2.51999998       2.26646909E-18
   2.55999994       1.91431369E-18
   2.59999990       1.00273377E-18
   2.64000010      -4.78157337E-19
   2.68000007      -2.41608269E-18
   2.72000003      -4.55691690E-18
   2.75999999      -6.50929104E-18
   2.79999995      -7.78098279E-18
   2.83999991      -7.85016570E-18
   2.88000011      -6.26797226E-18
   2.92000008      -2.78078828E-18
   2.96000004       2.54749957E-18
   3.00000000       9.23965211E-18
   3.03999996       1.63650091E-17
   3.07999992       2.25822706E-17
   3.11999989       2.62833116E-17
   3.16000009       2.58406508E-17
   3.20000005       1.99400870E-17
   3.24000001       7.95625409E-18
   3.27999997      -9.69349964E-18
   3.31999993      -3.12971362E-17
   3.35999990      -5.37818739E-17
   3.40000010      -7.29055022E-17
   3.44000006      -8.37454725E-17
   3.48000002      -8.14773962E-17
   3.51999998      -6.23732563E-17
   3.55999994      -2.48842878E-17
   3.59999990       2.93835167E-17
   3.64000010       9.50279514E-17
   3.68000007       1.62769041E-16
   3.72000003       2.20107004E-16
   3.75999999       2.52804077E-16
   3.79999995       2.47136421E-16
   3.83999991       1.92695813E-16
   3.88000011       8.53521220E-17
   3.92000008      -7.01510503E-17
   3.96000004      -2.58569195E-16
   4.00000000      -4.54076893E-16
   4.03999996      -6.22172752E-16
   4.07999992      -7.23746825E-16
   4.11999989      -7.21121764E-16
   4.15999985      -5.85459221E-16
   4.19999981      -3.04505380E-16
   4.23999977       1.10678573E-16
   4.28000021       6.21513443E-16
   4.32000017       1.16165391E-15
   4.36000013       1.64175250E-15
   4.40000010       1.95963465E-15
   4.44000006       2.01539144E-15
   4.48000002       1.72988353E-15
   4.51999998       1.06415597E-15
   4.55999994       3.65057635E-17
   4.59999990      -1.26642278E-15
   4.63999987      -2.68792650E-15
   4.67999983      -4.01145995E-15
   4.71999979      -4.98380295E-15
   4.76000023      -5.35015402E-15
   4.80000019      -4.89779353E-15
   4.84000015      -3.50269787E-15
   4.88000011      -1.17171433E-15
   4.92000008       1.92798082E-15
   4.96000004       5.46005103E-15
   5.00000000       8.93689470E-15
   5.03999996       1.17671325E-14
   5.07999992       1.33311094E-14
   5.11999989       1.30777906E-14
   5.15999985       1.06313748E-14
   5.19999981       5.89191841E-15
   5.23999977      -8.88035906E-16
   5.28000021      -9.06851346E-15
   5.32000017      -1.76432406E-14
   5.36000013      -2.53249095E-14
   5.40000010      -3.06937059E-14
   5.44000006      -3.23976990E-14
   5.48000002      -2.93830342E-14
   5.51999998      -2.11227147E-14
   5.55999994      -7.80702559E-15
   5.59999990       9.54230049E-15
   5.63999987       2.90669859E-14
   5.67999983       4.81977299E-14
   5.71999979       6.39152224E-14
   5.76000023       7.31309612E-14
   5.80000019       7.31504362E-14
   5.84000015       6.21616812E-14
   5.88000011       3.96780387E-14
   5.92000008       6.85847448E-15
   5.96000004      -3.33654308E-14
   6.00000000      -7.64093514E-14
   6.03999996      -1.16427484E-13
   6.07999992      -1.46962480E-13
   6.11999989      -1.61799678E-13
   6.15999985      -1.55931271E-13
   6.19999981      -1.26503937E-13
   6.23999977      -7.36054216E-14
   6.28000021      -7.46839855E-16
   6.32000017       8.50798788E-14
   6.36000013       1.73845327E-13
   6.40000010       2.53439929E-13
   6.44000006       3.11084491E-13
   6.48000002       3.35056771E-13
   6.51999998       3.16530575E-13
   6.55999994       2.51277135E-13
   6.59999990       1.40962193E-13
   6.63999987      -6.20637600E-15
   6.67999983      -1.75666366E-13
   6.71999979      -3.47615030E-13
   6.76000023      -4.99018361E-13
   6.80000019      -6.06352425E-13
   6.84000015      -6.48786255E-13
   6.88000011      -6.11415432E-13
   6.92000008      -4.88097572E-13
   6.96000004      -2.83440616E-13
   7.00000000      -1.35604376E-14
   7.03999996       2.94649586E-13
   7.07999992       6.05814281E-13
   7.11999989       8.79803500E-13
   7.15999985       1.07654044E-12
   7.19999981       1.16134890E-12
   7.23999977       1.11016437E-12
   7.28000021       9.13878890E-13
   7.32000017       5.81133611E-13
   7.36000013       1.39020428E-13
   7.40000010      -3.68610660E-13
   7.44000006      -8.85237196E-13
   7.48000002      -1.34781086E-12
   7.51999998      -1.69431667E-12
   7.55999994      -1.87184252E-12
   7.59999990      -1.84411102E-12
   7.63999987      -1.59741372E-12
   7.67999983      -1.14402108E-12
   7.71999979      -5.22428021E-13
   7.76000023       2.05816917E-13
   7.80000019       9.62491805E-13
   7.84000015       1.66162169E-12
   7.88000011       2.21987121E-12
   7.92000008       2.56707351E-12
   7.96000004       2.65546244E-12
   8.00000000       2.46628564E-12
   8.03999996       2.01278274E-12
   8.07999992       1.33899402E-12
   8.11999989       5.14446938E-13
   8.15999985      -3.74623699E-13
   8.19999981      -1.23632213E-12
   8.23999977      -1.98482116E-12
   8.27999973      -2.55103187E-12
   8.31999969      -2.89058230E-12
   8.35999966      -2.98784717E-12
   8.39999962      -2.85538195E-12
   8.43999958      -2.52885408E-12
   8.47999954      -2.05835110E-12
   8.52000046      -1.49761822E-12
   8.56000042      -8.93244625E-13
   8.60000038      -2.75951083E-13
   8.64000034       3.44099423E-13
   8.68000031       9.76656039E-13
   8.72000027       1.64499913E-12
   8.76000023       2.37451747E-12
   8.80000019       3.17804225E-12
   8.84000015       4.04065713E-12
   8.88000011       4.90726123E-12
   8.92000008       5.67620040E-12
   8.96000004       6.20172793E-12
   9.00000000       6.30692070E-12
   9.03999996       5.80705753E-12
   9.07999992       4.54157675E-12
   9.11999989       2.41083585E-12
   9.15999985      -5.87683710E-13
   9.19999981      -4.33004587E-12
   9.23999977      -8.54980756E-12
   9.27999973      -1.28407207E-11
   9.31999969      -1.66816977E-11
   9.35999966      -1.94847159E-11
   9.39999962      -2.06629106E-11
   9.43999958      -1.97125736E-11
   9.47999954      -1.62995849E-11
   9.52000046      -1.03385850E-11
   9.56000042      -2.05230559E-12
   9.60000038       8.00067391E-12
   9.64000034       1.89388193E-11
   9.68000031       2.96159347E-11
   9.72000027       3.87239789E-11
   9.76000023       4.49332307E-11
   9.80000019       4.70565947E-11
   9.84000015       4.42196349E-11
   9.88000011       3.60148265E-11
   9.92000008       2.26177115E-11
   9.96000004       4.84503410E-12
   10.0000000      -1.58600286E-11
   10.0400000      -3.75225268E-11
   10.0799999      -5.78077586E-11
   10.1199999      -7.42578499E-11
   10.1599998      -8.45702883E-11
   10.1999998      -8.68882535E-11
   10.2399998      -8.00677927E-11
   10.2799997      -6.38865350E-11
   10.3199997      -3.91625100E-11
   10.3599997      -7.76011633E-12
   10.3999996       2.75277735E-11
   10.4399996       6.32180072E-11
   10.4799995       9.54770013E-11
   10.5200005       1.20529350E-10
   10.5600004       1.35091646E-10
   10.6000004       1.36781295E-10
   10.6400003       1.24449895E-10
   10.6800003       9.83965825E-11
   10.7200003       6.04282457E-11
   10.7600002       1.37504305E-11
   10.8000002      -3.73079692E-11
   10.8400002      -8.77125872E-11
   10.8800001      -1.32242176E-10
   10.9200001      -1.66051811E-10
   10.9600000      -1.85216759E-10
   11.0000000      -1.87192539E-10
   11.0400000      -1.71134829E-10
   11.0799999      -1.38037262E-10
   11.1199999      -9.06662245E-11
   11.1599998      -3.32955295E-11
   11.1999998       2.87317167E-11
   11.2399998       8.95651608E-11
   11.2799997       1.43468196E-10
   11.3199997       1.85424703E-10
   11.3599997       2.11659301E-10
   11.3999996       2.20008664E-10
   11.4399996       2.10100298E-10
   11.4799995       1.83318721E-10
   11.5200005       1.42566930E-10
   11.5600004       9.18570983E-11
   11.6000004       3.57873280E-11
   11.6400003      -2.10235926E-11
   11.6800003      -7.44657808E-11
   11.7200003      -1.21359284E-10
   11.7600002      -1.59708732E-10
   11.8000002      -1.88757412E-10
   11.8400002      -2.08835380E-10
   11.8800001      -2.21027308E-10
   11.9200001      -2.26713828E-10
   11.9600000      -2.27061828E-10
   12.0000000      -2.22550978E-10
   12.0400000      -2.12623516E-10
   12.0799999      -1.95531341E-10
   12.1199999      -1.68429701E-10
   12.1599998      -1.27733574E-10
   12.1999998      -6.97138597E-11
   12.2399998       8.72742070E-12
   12.2799997       1.09197443E-10
   12.3199997       2.30985828E-10
   12.3599997       3.70397824E-10
   12.3999996       5.20367582E-10
   12.4399996       6.70449085E-10
   12.4799995       8.07243383E-10
   12.5200005       9.15274578E-10
   12.5600004       9.78270687E-10
   12.6000004       9.80753589E-10
   12.6400003       9.09796516E-10
   12.6800003       7.56774643E-10
   12.7200003       5.18920851E-10
   12.7600002       2.00505293E-10
   12.8000002      -1.86514915E-10
   12.8400002      -6.22480956E-10
   12.8800001      -1.08069764E-09
   12.9200001      -1.52875224E-09
   12.9600000      -1.93039251E-09
   13.0000000      -2.24780594E-09
   13.0400000      -2.44409848E-09
   13.0799999      -2.48574494E-09
   13.1199999      -2.34478748E-09
   13.1599998      -2.00058303E-09
   13.1999998      -1.44095713E-09
   13.2399998      -6.62688238E-10
   13.2799997       3.28665983E-10
   13.3199997       1.51950963E-09
   13.3599997       2.88934521E-09
   13.3999996       4.41207781E-09
   13.4399996       6.05721917E-09
   13.4799995       7.79072185E-09
   13.5200005       9.57519486E-09
   13.5600004       1.13693037E-08
   13.6000004       1.31262228E-08
   13.6400003       1.47910981E-08
   13.6800003       1.62975624E-08
   13.7200003       1.75633961E-08
   13.7600002       1.84854940E-08
   13.8000002       1.89343083E-08
   13.8400002       1.87478832E-08
   13.8800001       1.77255686E-08
   13.9200001       1.56213655E-08
   13.9600000       1.21367352E-08
   14.0000000       6.91251500E-09
   14.0400000      -4.80539608E-10
   14.0799999      -1.05532676E-08
   14.1199999      -2.39124507E-08
   14.1599998      -4.12789305E-08
   14.1999998      -6.35104840E-08
   14.2399998      -9.16304188E-08
   14.2799997      -1.26863029E-07
   14.3199997      -1.70676714E-07
   14.3599997      -2.24835873E-07
   14.3999996      -2.91462385E-07
   14.4399996      -3.73107611E-07
   14.4799995      -4.72835524E-07
   14.5200005      -5.94318237E-07
   14.5600004      -7.41944746E-07
   14.6000004      -9.20943705E-07
   14.6400003      -1.13752242E-06
   14.6800003      -1.39902227E-06
   14.7200003      -1.71409363E-06
   14.7600002      -2.09289101E-06
   14.8000002      -2.54729207E-06
   14.8400002      -3.09114034E-06
   14.8800001      -3.74051638E-06
   14.9200001      -4.51403776E-06
   14.9600000      -5.43319129E-06
   15.0000000      -6.52269773E-06
   15.0400000      -7.81090876E-06
   15.0799999      -9.33024057E-06
   15.1199999      -1.11176423E-05
   15.1599998      -1.32150908E-05
   15.1999998      -1.56701244E-05
   15.2399998      -1.85363951E-05
   15.2799997      -2.18742425E-05
   15.3199997      -2.57512929E-05
   15.3599997      -3.02430490E-05
   15.3999996      -3.54334879E-05
   15.4399996      -4.14156493E-05
   15.4799995      -4.82921678E-05
   15.5200005      -5.61758025E-05
   15.5600004      -6.51898881E-05
   15.6000004      -7.54686916E-05
   15.6400003      -8.71576849E-05
   15.6800003      -1.00413716E-04
   15.7200003      -1.15404975E-04
   15.7600002      -1.32310859E-04
   15.8000002      -1.51321554E-04
   15.8400002      -1.72637490E-04
   15.8800001      -1.96468434E-04
   15.9200001      -2.23032344E-04
   15.9600000      -2.52553931E-04
   16.0000000      -2.85262853E-04
   16.0400009      -3.21391562E-04
   16.0799999      -3.61172744E-04
   16.1200008      -4.04836290E-04
   16.1599998      -4.52606124E-04
   16.2000008      -5.04696276E-04
   16.2399998      -5.61306719E-04
   16.2800007      -6.22619002E-04
   16.3199997      -6.88790868E-04
   16.3600006      -7.59951305E-04
   16.3999996      -8.36194900E-04
   16.4400005      -9.17575904E-04
   16.4799995      -1.00410217E-03
   16.5200005      -1.09572907E-03
   16.5599995      -1.19235355E-03
   16.6000004      -1.29380787E-03
   16.6399994      -1.39985362E-03
   16.6800003      -1.51017646E-03
   16.7199993      -1.62438082E-03
   16.7600002      -1.74198544E-03
   16.7999992      -1.86242000E-03
   16.8400002      -1.98502117E-03
   16.8799992      -2.10903212E-03
   16.9200001      -2.23360071E-03
   16.9599991      -2.35778023E-03
   17.0000000      -2.48053158E-03
   17.0400009      -2.60072621E-03
   17.0799999      -2.71715177E-03
   17.1200008      -2.82851839E-03
   17.1599998      -2.93346704E-03
   17.2000008      -3.03058000E-03
   17.2399998      -3.11839208E-03
   17.2800007      -3.19540501E-03
   17.3199997      -3.26010189E-03
   17.3600006      -3.31096468E-03
   17.3999996      -3.34649137E-03
   17.4400005      -3.36521561E-03
   17.4799995      -3.36572714E-03
   17.5200005      -3.34669207E-03
   17.5599995      -3.30687524E-03
   17.6000004      -3.24516091E-03
   17.6399994      -3.16057424E-03
   17.6800003      -3.05230217E-03
   17.7199993      -2.91971373E-03
   17.7600002      -2.76237773E-03
   17.7999992      -2.58008111E-03
   17.8400002      -2.37284275E-03
   17.8799992      -2.14092666E-03
   17.9200001      -1.88485254E-03
   17.9599991      -1.60540233E-03
   18.0000000      -1.30362436E-03
   18.0400009      -9.80833778E-04
   18.0799999      -6.38609694E-04
   18.1200008      -2.78788357E-04
   18.1599998       9.65472500E-05
   18.2000008       4.85081633E-04
   18.2399998       8.84284673E-04
   18.2800007       1.29143300E-03
   18.3199997       1.70363463E-03
   18.3600006       2.11785687E-03
   18.3999996       2.53095664E-03
   18.4400005       2.93971365E-03
   18.4799995       3.34086455E-03
   18.5200005       3.73113994E-03
   18.5599995       4.10730112E-03
   18.6000004       4.46617790E-03
   18.6399994       4.80470527E-03
   18.6800003       5.11996076E-03
   18.7199993       5.40919974E-03
   18.7600002       5.66988904E-03
   18.7999992       5.89973759E-03
   18.8400002       6.09672535E-03
   18.8799992       6.25912845E-03
   18.9200001       6.38553966E-03
   18.9599991       6.47488749E-03
   19.0000000       6.52644783E-03
   19.0400009       6.53985282E-03
   19.0799999       6.51509501E-03
   19.1200008       6.45252736E-03
   19.1599998       6.35285629E-03
   19.2000008       6.21713372E-03
   19.2399998       6.04674220E-03
   19.2800007       5.84337628E-03
   19.3199997       5.60902059E-03
   19.3600006       5.34592569E-03
   19.3999996       5.05657680E-03
   19.4400005       4.74366546E-03
   19.4799995       4.41005547E-03
   19.5200005       4.05874848E-03
   19.5599995       3.69284768E-03
   19.6000004       3.31552210E-03
   19.6399994       2.92997062E-03
   19.6800003       2.53938627E-03
   19.7199993       2.14692135E-03
   19.7600002       1.75565481E-03
   19.7999992       1.36856060E-03
   19.8400002       9.88478656E-04
   19.8799992       6.18088641E-04
   19.9200001       2.59886408E-04
   19.9599991      -8.38366686E-05
   20.0000000      -4.11011075E-04
   20.0400009      -7.19803153E-04
   20.0799999      -1.00862561E-03
   20.1200008      -1.27614499E-03
   20.1599998      -1.52128562E-03
   20.2000008      -1.74323015E-03
   20.2399998      -1.94141758E-03
   20.2800007      -2.11553765E-03
   20.3199997      -2.26552342E-03
   20.3600006      -2.39153998E-03
   20.3999996      -2.49397242E-03
   20.4400005      -2.57341145E-03
   20.4799995      -2.63063679E-03
   20.5200005      -2.66659912E-03
   20.5599995      -2.68240203E-03
   20.6000004      -2.67928187E-03
   20.6399994      -2.65858741E-03
   20.6800003      -2.62176013E-03
   20.7199993      -2.57031270E-03
   20.7600002      -2.50580953E-03
   20.7999992      -2.42984644E-03
   20.8400002      -2.34403205E-03
   20.8799992      -2.24996847E-03
   20.9200001      -2.14923476E-03
   20.9599991      -2.04337039E-03
   21.0000000      -1.93386083E-03
   21.0400009      -1.82212377E-03
   21.0799999      -1.70949742E-03
   21.1200008      -1.59723056E-03
   21.1599998      -1.48647395E-03
   21.2000008      -1.37827336E-03
   21.2399998      -1.27356488E-03
   21.2800007      -1.17317121E-03
   21.3199997      -1.07780041E-03
   21.3600006      -9.88045940E-04
   21.3999996      -9.04388144E-04
   21.4400005      -8.27197568E-04
   21.4799995      -7.56739639E-04
   21.5200005      -6.93180365E-04
   21.5599995      -6.36593380E-04
   21.6000004      -5.86968032E-04
   21.6399994      -5.44218114E-04
   21.6800003      -5.08191180E-04
   21.7199993      -4.78678383E-04
   21.7600002      -4.55424422E-04
   21.7999992      -4.38137562E-04
   21.8400002      -4.26499493E-04
   21.8799992      -4.20174649E-04
   21.9200001      -4.18818992E-04
   21.9599991      -4.22088022E-04
   22.0000000      -4.29644017E-04
   22.0400009      -4.41161974E-04
   22.0799999      -4.56334557E-04
   22.1200008      -4.74875735E-04
   22.1599998      -4.96523222E-04
   22.2000008      -5.21039416E-04
   22.2399998      -5.48211276E-04
   22.2800007      -5.77848696E-04
   22.3199997      -6.09781826E-04
   22.3600006      -6.43857522E-04
   22.3999996      -6.79934165E-04
   22.4400005      -7.17876595E-04
   22.4799995      -7.57549598E-04
   22.5200005      -7.98811845E-04
   22.5599995      -8.41508561E-04
   22.6000004      -8.85465124E-04
   22.6399994      -9.30480543E-04
   22.6800003      -9.76321229E-04
   22.7199993      -1.02271559E-03
   22.7600002      -1.06934959E-03
   22.7999992      -1.11586275E-03
   22.8400002      -1.16184622E-03
   22.8799992      -1.20684144E-03
   22.9200001      -1.25034025E-03
   22.9599991      -1.29178667E-03
   23.0000000      -1.33058033E-03
   23.0400009      -1.36608083E-03
   23.0799999      -1.39761367E-03
   23.1200008      -1.42447802E-03
   23.1599998      -1.44595513E-03
   23.2000008      -1.46131811E-03
   23.2399998      -1.46984286E-03
   23.2800007      -1.47081900E-03
   23.3199997      -1.46356248E-03
   23.3600006      -1.44742732E-03
   23.3999996      -1.42181828E-03
   23.4400005      -1.38620287E-03
   23.4799995      -1.34012336E-03
   23.5200005      -1.28320791E-03
   23.5599995      -1.21518085E-03
   23.6000004      -1.13587175E-03
   23.6399994      -1.04522379E-03
   23.6800003      -9.43300489E-04
   23.7199993      -8.30290373E-04
   23.7600002      -7.06510677E-04
   23.7999992      -5.72409132E-04
   23.8400002      -4.28563595E-04
   23.8799992      -2.75680504E-04
   23.9200001      -1.14591014E-04
   23.9599991       5.37545820E-05
   24.0000000       2.28293939E-04
   24.0400009       4.07861575E-04
   24.0799999       5.91199263E-04
   24.1200008       7.76967849E-04
   24.1599998       9.63760307E-04
   24.2000008       1.15011598E-03
   24.2399998       1.33453566E-03
   24.2800007       1.51549769E-03
   24.3199997       1.69147423E-03
   24.3600006       1.86094816E-03
   24.3999996       2.02243007E-03
   24.4400005       2.17447523E-03
   24.4799995       2.31570075E-03
   24.5200005       2.44480092E-03
   24.5599995       2.56056408E-03
   24.6000004       2.66188662E-03
   24.6399994       2.74778740E-03
   24.6800003       2.81741959E-03
   24.7199993       2.87008309E-03
   24.7600002       2.90523330E-03
   24.7999992       2.92249024E-03
   24.8400002       2.92164413E-03
   24.8799992       2.90266098E-03
   24.9200001       2.86568375E-03
   24.9599991       2.81103444E-03
   25.0000000       2.73921154E-03
   25.0400009       2.65088701E-03
   25.0799999       2.54690042E-03
   25.1200008       2.42825062E-03
   25.1599998       2.29608710E-03
   25.2000008       2.15169671E-03
   25.2399998       1.99649157E-03
   25.2800007       1.83199160E-03
   25.3199997       1.65980915E-03
   25.3600006       1.48162979E-03
   25.3999996       1.29919266E-03
   25.4400005       1.11426960E-03
   25.4799995       9.28643509E-04
   25.5200005       7.44087098E-04
   25.5599995       5.62339905E-04
   25.6000004       3.85086838E-04
   25.6399994       2.13936291E-04
   25.6800003       5.03992815E-05
   25.7199993      -1.04130326E-04
   25.7600002      -2.48394324E-04
   25.7999992      -3.81287129E-04
   25.8400002      -5.01870527E-04
   25.8799992      -6.09386654E-04
   25.9200001      -7.03268335E-04
   25.9599991      -7.83146883E-04
   26.0000000      -8.48857104E-04
   26.0400009      -9.00439627E-04
   26.0799999      -9.38140263E-04
   26.1200008      -9.62406048E-04
   26.1599998      -9.73878836E-04
   26.2000008      -9.73385700E-04
   26.2399998      -9.61926591E-04
   26.2800007      -9.40659316E-04
   26.3199997      -9.10882081E-04
   26.3600006      -8.74013873E-04
   26.3999996      -8.31572630E-04
   26.4400005      -7.85151846E-04
   26.4799995      -7.36396003E-04
   26.5200005      -6.86974498E-04
   26.5599995      -6.38555561E-04
   26.6000004      -5.92779368E-04
   26.6399994      -5.51231613E-04
   26.6800003      -5.15417487E-04
   26.7199993      -4.86736739E-04
   26.7600002      -4.66459838E-04
   26.7999992      -4.55706002E-04
   26.8400002      -4.55423375E-04
   26.8799992      -4.66371392E-04
   26.9200001      -4.89105936E-04
   26.9599991      -5.23967552E-04
   27.0000000      -5.71072800E-04
   27.0400009      -6.30308990E-04
   27.0799999      -7.01332348E-04
   27.1200008      -7.83569994E-04
   27.1599998      -8.76225415E-04
   27.2000008      -9.78287659E-04
   27.2399998      -1.08854368E-03
   27.2800007      -1.20559463E-03
   27.3199997      -1.32787507E-03
   27.3600006      -1.45367498E-03
   27.3999996      -1.58116466E-03
   27.4400005      -1.70842174E-03
   27.4799995      -1.83346006E-03
   27.5200005      -1.95426028E-03
   27.5599995      -2.06880085E-03
   27.6000004      -2.17509037E-03
   27.6399994      -2.27119913E-03
   27.6800003      -2.35528988E-03
   27.7199993      -2.42564920E-03
   27.7600002      -2.48071458E-03
   27.7999992      -2.51910184E-03
   27.8400002      -2.53962888E-03
   27.8799992      -2.54133623E-03
   27.9200001      -2.52350443E-03
   27.9599991      -2.48566829E-03
   28.0000000      -2.42762570E-03
   28.0400009      -2.34944420E-03
   28.0799999      -2.25146138E-03
   28.1200008      -2.13428214E-03
   28.1599998      -1.99877052E-03
   28.2000008      -1.84603909E-03
   28.2399998      -1.67743198E-03
   28.2800007      -1.49450602E-03
   28.3199997      -1.29900756E-03
   28.3600006      -1.09284639E-03
   28.3999996      -8.78067163E-04
   28.4400005      -6.56819146E-04
   28.4799995      -4.31323773E-04
   28.5200005      -2.03841846E-04
   28.5599995       2.33598621E-05
   28.6000004       2.48041644E-04
   28.6399994       4.68023121E-04
   28.6800003       6.81214093E-04
   28.7199993       8.85643531E-04
   28.7600002       1.07948622E-03
   28.7999992       1.26108644E-03
   28.8400002       1.42897898E-03
   28.8799992       1.58190634E-03
   28.9200001       1.71883230E-03
   28.9599991       1.83895230E-03
   29.0000000       1.94169942E-03
   29.0400009       2.02674698E-03
   29.0799999       2.09400756E-03
   29.1200008       2.14362796E-03
   29.1599998       2.17598211E-03
   29.2000008       2.19165976E-03
   29.2399998       2.19145278E-03
   29.2800007       2.17634020E-03
   29.3199997       2.14747014E-03
   29.3600006       2.10614013E-03
   29.3999996       2.05377769E-03
   29.4400005       1.99191901E-03
   29.4799995       1.92218716E-03