  -4.80000019       0.00000000
  -4.76000023       0.00000000
  -4.71999979       0.00000000
  -4.67999983       0.00000000
  -4.63999987       0.00000000
  -4.59999990       0.00000000
  -4.55999994       0.00000000
  -4.51999998       0.00000000
  -4.48000002       0.00000000
  -4.44000006       2.84552225E-28
  -4.40000010       2.15629736E-27
  -4.36000013      -9.11113854E-27
  -4.32000017      -2.59066802E-25
  -4.28000021      -2.36147129E-24
  -4.23999977      -1.44304211E-23
  -4.19999981      -6.87414529E-23
  -4.15999985      -2.72767351E-22
  -4.11999989      -9.35978289E-22
  -4.07999992      -2.84458042E-21
  -4.03999996      -7.78231554E-21
  -4.00000000      -1.93849631E-20
  -3.96000004      -4.43078617E-20
  -3.92000008      -9.33903908E-20
  -3.88000011      -1.81924365E-19
  -3.83999991      -3.27231591E-19
  -3.79999995      -5.40631548E-19
  -3.75999999      -8.09905566E-19
  -3.72000003      -1.06828463E-18
  -3.68000007      -1.14795174E-18
  -3.64000010      -7.21424537E-19
  -3.59999990       7.55856809E-19
  -3.55999994       4.07372100E-18
  -3.51999998       1.02206197E-17
  -3.48000002       2.02009036E-17
  -3.44000006       3.46496727E-17
  -3.40000010       5.31957933E-17
  -3.35999990       7.35754986E-17
  -3.31999993       9.05947662E-17
  -3.27999997       9.51787696E-17
  -3.24000001       7.39143052E-17
  -3.20000005       9.64795177E-18
  -3.16000009      -1.16214734E-16
  -3.11999989      -3.19136339E-16
  -3.07999992      -6.04340961E-16
  -3.03999996      -9.57527654E-16
  -3.00000000      -1.33467416E-15
  -2.96000004      -1.65332710E-15
  -2.92000008      -1.78889356E-15
  -2.88000011      -1.58021916E-15
  -2.83999991      -8.48717855E-16
  -2.79999995       5.65936382E-16
  -2.75999999       2.75337292E-15
  -2.72000003       5.66761773E-15
  -2.68000007       9.05971617E-15
  -2.64000010       1.24239405E-14
  -2.59999990       1.49785715E-14
  -2.55999994       1.57041552E-14
  -2.51999998       1.34590317E-14
  -2.48000002       7.18227612E-15
  -2.44000006      -3.82257541E-15
  -2.40000010      -1.95525731E-14
  -2.35999990      -3.89745778E-14
  -2.31999993      -5.97778459E-14
  -2.27999997      -7.83039608E-14
  -2.24000001      -8.97467593E-14
  -2.20000005      -8.86907193E-14
  -2.16000009      -7.00068936E-14
  -2.11999989      -3.00514889E-14
  -2.07999992       3.19772319E-14
  -2.03999996       1.12758354E-13
  -2.00000000       2.03949488E-13
  -1.96000004       2.92002723E-13
  -1.91999996       3.58992323E-13
  -1.88000000       3.84636171E-13
  -1.84000003       3.49500539E-13
  -1.79999995       2.39123012E-13
  -1.75999999       4.85082826E-14
  -1.72000003      -2.13800386E-13
  -1.67999995      -5.23032681E-13
  -1.63999999      -8.37854200E-13
  -1.60000002      -1.10315685E-12
  -1.55999994      -1.25634832E-12
  -1.51999998      -1.23691227E-12
  -1.48000002      -9.98292486E-13
  -1.44000006      -5.20437480E-13
  -1.39999998       1.79235546E-13
  -1.36000001       1.03897316E-12
  -1.32000005       1.95227341E-12
  -1.27999997       2.77562803E-12
  -1.24000001       3.34496927E-12
  -1.20000005       3.49983887E-12
  -1.15999997       3.11261954E-12
  -1.12000000       2.11860867E-12
  -1.08000004       5.41650871E-13
  -1.03999996      -1.49027026E-12
  -1.00000000      -3.74437590E-12
 -0.959999979      -5.90053874E-12
 -0.920000017      -7.58732226E-12
 -0.879999995      -8.43386559E-12
 -0.839999974      -8.13154318E-12
 -0.800000012      -6.49651687E-12
 -0.759999990      -3.52266979E-12
 -0.720000029       5.85645790E-13
 -0.680000007       5.40978243E-12
 -0.639999986       1.03469733E-11
 -0.600000024       1.46745706E-11
 -0.560000002       1.76427033E-11
 -0.519999981       1.85842591E-11
 -0.479999989       1.70269580E-11
 -0.439999998       1.27902003E-11
 -0.400000006       6.05003721E-12
 -0.360000014      -2.64090767E-12
 -0.319999993      -1.23858736E-11
 -0.280000001      -2.20285231E-11
 -0.239999995      -3.02815134E-11
 -0.200000003      -3.58839763E-11
 -0.159999996      -3.77678687E-11
 -0.119999997      -3.52112992E-11
  -7.99999982E-02  -2.79582676E-11
  -3.99999991E-02  -1.62886198E-11
   2.77555756E-16  -1.02875987E-12
   3.99999991E-02   1.64989498E-11
   7.99999982E-02   3.45826735E-11
  0.119999997       5.12723752E-11
  0.159999996       6.45610995E-11
  0.200000003       7.25802266E-11
  0.239999995       7.37933811E-11
  0.280000001       6.71753903E-11
  0.319999993       5.23643143E-11
  0.360000014       2.97757478E-11
  0.400000006       6.67981837E-13
  0.439999998      -3.28543096E-11
  0.479999989      -6.79111975E-11
  0.519999981      -1.01005967E-10
  0.560000002      -1.28279012E-10
  0.600000024      -1.45856410E-10
  0.639999986      -1.50278331E-10
  0.680000007      -1.38975192E-10
  0.720000029      -1.10740091E-10
  0.759999990      -6.61313851E-11
  0.800000012      -7.72963291E-12
  0.839999974       5.98226677E-11
  0.879999995       1.30053190E-10
  0.920000017       1.95186547E-10
  0.959999979       2.46944409E-10
   1.00000000       2.77548845E-10
   1.03999996       2.80811596E-10
   1.08000004       2.53157134E-10
   1.12000000       1.94414249E-10
   1.15999997       1.08223167E-10
   1.20000005       1.94876602E-12
   1.24000001      -1.13942702E-10
   1.27999997      -2.27001959E-10
   1.32000005      -3.24282351E-10
   1.36000001      -3.93992144E-10
   1.39999998      -4.27069019E-10
   1.44000006      -4.18427265E-10
   1.48000002      -3.67670588E-10
   1.51999998      -2.79142820E-10
   1.55999994      -1.61301542E-10
   1.60000002      -2.55177789E-11
   1.63999999       1.15487939E-10
   1.67999995       2.49293419E-10
   1.72000003       3.65209557E-10
   1.75999999       4.55247728E-10
   1.79999995       5.14465637E-10
   1.84000003       5.40673617E-10
   1.88000000       5.33632749E-10
   1.91999996       4.94003560E-10
   1.96000004       4.22381075E-10
   2.00000000       3.18752691E-10
   2.03999996       1.82634602E-10
   2.07999992       1.39868915E-11
   2.11999989      -1.85197135E-10
   2.16000009      -4.08941742E-10
   2.20000005      -6.45464626E-10
   2.24000001      -8.76049677E-10
   2.27999997      -1.07515419E-09
   2.31999993      -1.21212851E-09
   2.35999990      -1.25464872E-09
   2.40000010      -1.17361354E-09
   2.44000006      -9.48893741E-10
   2.48000002      -5.75020531E-10
   2.51999998      -6.57292901E-11
   2.55999994       5.43710466E-10
   2.59999990       1.19722987E-09
   2.64000010       1.82219184E-09
   2.68000007       2.33699837E-09
   2.72000003       2.66134359E-09
   2.75999999       2.72782841E-09
   2.79999995       2.49324894E-09
   2.83999991       1.94773331E-09
   2.88000011       1.12004594E-09
   2.92000008       7.78353770E-11
   2.96000004      -1.07769393E-09
   3.00000000      -2.22236096E-09
   3.03999996      -3.22364868E-09
   3.07999992      -3.95749744E-09
   3.11999989      -4.32488534E-09
   3.16000009      -4.26574465E-09
   3.20000005      -3.76805831E-09
   3.24000001      -2.87065816E-09
   3.27999997      -1.65917136E-09
   3.31999993      -2.55612365E-10
   3.35999990       1.19689691E-09
   3.40000010       2.55203436E-09
   3.44000006       3.67816999E-09
   3.48000002       4.47363302E-09
   3.51999998       4.87721019E-09
   3.55999994       4.87254592E-09
   3.59999990       4.48613813E-09
   3.64000010       3.77968279E-09
   3.68000007       2.83839929E-09
   3.72000003       1.75756210E-09
   3.75999999       6.29613695E-10
   3.79999995      -4.66035655E-10
   3.83999991      -1.46907497E-09
   3.88000011      -2.33967579E-09
   3.92000008      -3.05561376E-09
   3.96000004      -3.60640384E-09
   4.00000000      -3.98627709E-09
   4.03999996      -4.18800017E-09
   4.07999992      -4.19926938E-09
   4.11999989      -4.00276123E-09
   4.15999985      -3.58004315E-09
   4.19999981      -2.91857738E-09
   4.23999977      -2.02024464E-09
   4.28000021      -9.09283038E-10
   4.32000017       3.62536473E-10
   4.36000013       1.71529768E-09
   4.40000010       3.04590486E-09
   4.44000006       4.23856639E-09
   4.48000002       5.17961407E-09
   4.51999998       5.77448178E-09
   4.55999994       5.96403593E-09
   4.59999990       5.73731418E-09
   4.63999987       5.13812948E-09
   4.67999983       4.26392743E-09
   4.71999979       3.25655125E-09
   4.76000023       2.28596497E-09
   4.80000019       1.52931479E-09
   4.84000015       1.14860921E-09
   4.88000011       1.27071020E-09
   4.92000008       1.97305772E-09
   4.96000004       3.27766947E-09
   5.00000000       5.15457277E-09
   5.03999996       7.53416529E-09
   5.07999992       1.03263780E-08
   5.11999989       1.34431684E-08
   5.15999985       1.68200600E-08
   5.19999981       2.04324699E-08
   5.23999977       2.43031266E-08
   5.28000021       2.84982793E-08
   5.32000017       3.31122827E-08
   5.36000013       3.82418079E-08
   5.40000010       4.39529444E-08
   5.44000006       5.02455819E-08
   5.48000002       5.70197507E-08
   5.51999998       6.40483862E-08
   5.55999994       7.09597430E-08
   5.59999990       7.72304318E-08
   5.63999987       8.21881443E-08
   5.67999983       8.50202184E-08
   5.71999979       8.47829753E-08
   5.76000023       8.04048028E-08
   5.80000019       7.06759522E-08
   5.84000015       5.42191536E-08
   5.88000011       2.94364941E-08
   5.92000008      -5.57017676E-09
   5.96000004      -5.31041664E-08
   6.00000000      -1.16001424E-07
   6.03999996      -1.97775549E-07
   6.07999992      -3.02774595E-07
   6.11999989      -4.36344777E-07
   6.15999985      -6.04995762E-07
   6.19999981      -8.16568445E-07
   6.23999977      -1.08040626E-06
   6.28000021      -1.40753627E-06
   6.32000017      -1.81086955E-06
   6.36000013      -2.30543674E-06
   6.40000010      -2.90866819E-06
   6.44000006      -3.64073640E-06
   6.48000002      -4.52497670E-06
   6.51999998      -5.58839338E-06
   6.55999994      -6.86226940E-06
   6.59999990      -8.38288179E-06
   6.63999987      -1.01923233E-05
   6.67999983      -1.23394448E-05
   6.71999979      -1.48809158E-05
   6.76000023      -1.78824030E-05
   6.80000019      -2.14198844E-05
   6.84000015      -2.55810810E-05
   6.88000011      -3.04670484E-05
   6.92000008      -3.61939092E-05
   6.96000004      -4.28947496E-05
   7.00000000      -5.07216682E-05
   7.03999996      -5.98480146E-05
   7.07999992      -7.04707709E-05
   7.11999989      -8.28130796E-05
   7.15999985      -9.71268819E-05
   7.19999981      -1.13695678E-04
   7.23999977      -1.32837318E-04
   7.28000021      -1.54906724E-04
   7.32000017      -1.80298695E-04
   7.36000013      -2.09450314E-04
   7.40000010      -2.42843467E-04
   7.44000006      -2.81006738E-04
   7.48000002      -3.24517168E-04
   7.51999998      -3.74001509E-04
   7.55999994      -4.30136686E-04
   7.59999990      -4.93650092E-04
   7.63999987      -5.65318507E-04
   7.67999983      -6.45966560E-04
   7.71999979      -7.36464397E-04
   7.76000023      -8.37723259E-04
   7.80000019      -9.50691290E-04
   7.84000015      -1.07634638E-03
   7.88000011      -1.21568912E-03
   7.92000008      -1.36973255E-03
   7.96000004      -1.53949182E-03
   8.00000000      -1.72597077E-03
   8.03999996      -1.93014753E-03
   8.07999992      -2.15295865E-03
   8.11999989      -2.39527971E-03
   8.15999985      -2.65790685E-03
   8.19999981      -2.94153509E-03
   8.23999977      -3.24673485E-03
   8.27999973      -3.57392896E-03
   8.31999969      -3.92336724E-03
   8.35999966      -4.29510092E-03
   8.39999962      -4.68895771E-03
   8.43999958      -5.10451430E-03
   8.47999954      -5.54107269E-03
   8.52000046      -5.99763449E-03
   8.56000042      -6.47287723E-03
   8.60000038      -6.96513616E-03
   8.64000034      -7.47238100E-03
   8.68000031      -7.99220335E-03
   8.72000027      -8.52180179E-03
   8.76000023      -9.05797817E-03
   8.80000019      -9.59712826E-03
   8.84000015      -1.01352483E-02
   8.88000011      -1.06679378E-02
   8.92000008      -1.11904200E-02
   8.96000004      -1.16975550E-02
   9.00000000      -1.21838730E-02
   9.03999996      -1.26436036E-02
   9.07999992      -1.30707221E-02
   9.11999989      -1.34589924E-02
   9.15999985      -1.38020273E-02
   9.19999981      -1.40933478E-02
   9.23999977      -1.43264551E-02
   9.27999973      -1.44949034E-02
   9.31999969      -1.45923793E-02
   9.35999966      -1.46127855E-02
   9.39999962      -1.45503301E-02
   9.43999958      -1.43996188E-02
   9.47999954      -1.41557381E-02
   9.52000046      -1.38143552E-02
   9.56000042      -1.33718019E-02
   9.60000038      -1.28251621E-02
   9.64000034      -1.21723553E-02
   9.68000031      -1.14122080E-02
   9.72000027      -1.05445292E-02
   9.76000023      -9.57015902E-03
   9.80000019      -8.49102717E-03
   9.84000015      -7.31018186E-03
   9.88000011      -6.03181636E-03
   9.92000008      -4.66127833E-03
   9.96000004      -3.20506282E-03
   10.0000000      -1.67079177E-03
   10.0400000      -6.71760063E-05
   10.0799999       1.59603741E-03
   10.1199999       3.30813485E-03
   10.1599998       5.05752210E-03
   10.1999998       6.83182338E-03
   10.2399998       8.61799531E-03
   10.2799997       1.04024550E-02
   10.3199997       1.21712191E-02
   10.3599997       1.39100524E-02
   10.3999996       1.56046236E-02
   10.4399996       1.72406677E-02
   10.4799995       1.88041516E-02
   10.5200005       2.02814471E-02
   10.5600004       2.16594879E-02
   10.6000004       2.29259394E-02
   10.6400003       2.40693539E-02
   10.6800003       2.50793174E-02
   10.7200003       2.59465892E-02
   10.7600002       2.66632177E-02
   10.8000002       2.72226576E-02
   10.8400002       2.76198480E-02
   10.8800001       2.78512985E-02
   10.9200001       2.79151276E-02
   10.9600000       2.78110988E-02
   11.0000000       2.75406241E-02
   11.0400000       2.71067526E-02
   11.0799999       2.65141409E-02
   11.1199999       2.57689785E-02
   11.1599998       2.48789284E-02
   11.1999998       2.38530152E-02
   11.2399998       2.27015149E-02
   11.2799997       2.14358196E-02
   11.3199997       2.00682953E-02
   11.3599997       1.86121166E-02
   11.3999996       1.70811005E-02
   11.4399996       1.54895335E-02
   11.4799995       1.38519881E-02
   11.5200005       1.21831438E-02
   11.5600004       1.04976110E-02
   11.6000004       8.80974717E-03
   11.6400003       7.13349646E-03
   11.6800003       5.48223173E-03
   11.7200003       3.86860175E-03
   11.7600002       2.30440218E-03
   11.8000002       8.00458132E-04
   11.8400002      -6.33475778E-04
   11.8800001      -1.98879815E-03
   11.9200001      -3.25812353E-03
   11.9600000      -4.43532364E-03
   12.0000000      -5.51555306E-03
   12.0400000      -6.49525179E-03
   12.0799999      -7.37213064E-03
   12.1199999      -8.14513769E-03
   12.1599998      -8.81441031E-03
   12.1999998      -9.38120577E-03
   12.2399998      -9.84782539E-03
   12.2799997      -1.02175241E-02
   12.3199997      -1.04944073E-02
   12.3599997      -1.06833233E-02
   12.3999996      -1.07897483E-02
   12.4399996      -1.08196717E-02
   12.4799995      -1.07794739E-02
   12.5200005      -1.06758093E-02
   12.5600004      -1.05154943E-02
   12.6000004      -1.03053926E-02
   12.6400003      -1.00523140E-02
   12.6800003      -9.76292416E-03
   12.7200003      -9.44365095E-03
   12.7600002      -9.10061132E-03
   12.8000002      -8.73954874E-03
   12.8400002      -8.36578105E-03
   12.8800001      -7.98415765E-03
   12.9200001      -7.59903202E-03
   12.9600000      -7.21424259E-03
   13.0000000      -6.83310907E-03
   13.0400000      -6.45843474E-03
   13.0799999      -6.09252369E-03
   13.1199999      -5.73719945E-03
   13.1599998      -5.39383804E-03
   13.1999998      -5.06340293E-03
   13.2399998      -4.74648923E-03
   13.2799997      -4.44336655E-03
   13.3199997      -4.15402697E-03
   13.3599997      -3.87823442E-03
   13.3999996      -3.61557375E-03
   13.4399996      -3.36549594E-03
   13.4799995      -3.12736398E-03
   13.5200005      -2.90049450E-03
   13.5600004      -2.68419366E-03
   13.6000004      -2.47779000E-03
   13.6400003      -2.28066114E-03
   13.6800003      -2.09225528E-03
   13.7200003      -1.91210711E-03
   13.7600002      -1.73984806E-03
   13.8000002      -1.57521118E-03
   13.8400002      -1.41803117E-03
   13.8800001      -1.26823981E-03
   13.9200001      -1.12585747E-03
   13.9600000      -9.90980887E-04
   14.0000000      -8.63768102E-04
   14.0400000      -7.44421326E-04
   14.0799999      -6.33168442E-04
   14.1199999      -5.30243968E-04
   14.1599998      -4.35869209E-04
   14.1999998      -3.50233982E-04
   14.2399998      -2.73478974E-04
   14.2799997      -2.05680524E-04
   14.3199997      -1.46837134E-04
   14.3599997      -9.68594613E-05
   14.3999996      -5.55629631E-05
   14.4399996      -2.26639550E-05
   14.4799995       2.22090944E-06
   14.5200005       1.95719131E-05
   14.5600004       2.99603471E-05
   14.6000004       3.40396800E-05
   14.6400003       3.25341134E-05
   14.6800003       2.62250214E-05
   14.7200003       1.59355859E-05
   14.7600002       2.51424467E-06
   14.8000002      -1.31826164E-05
   14.8400002      -3.03081761E-05
   14.8800001      -4.80424424E-05
   14.9200001      -6.56087504E-05
   14.9600000      -8.22890579E-05
   15.0000000      -9.74376526E-05
   15.0400000      -1.10492882E-04
   15.0799999      -1.20986770E-04
   15.1199999      -1.28552070E-04
   15.1599998      -1.32926813E-04
   15.1999998      -1.33956200E-04
   15.2399998      -1.31591834E-04
   15.2799997      -1.25888313E-04
   15.3199997      -1.16997471E-04
   15.3599997      -1.05160281E-04
   15.3999996      -9.06967325E-05
   15.4399996      -7.39940369E-05
   15.4799995      -5.54933831E-05
   15.5200005      -3.56757482E-05
   15.5600004      -1.50470078E-05
   15.6000004       5.87714703E-06
   15.6400003       2.65860617E-05
   15.6800003       4.65884004E-05
   15.7200003       6.54253963E-05
   15.7600002       8.26828255E-05
   15.8000002       9.80012483E-05
   15.8400002       1.11084359E-04
   15.8800001       1.21705314E-04
   15.9200001       1.29710737E-04
   15.9600000       1.35022579E-04
   16.0000000       1.37637646E-04
   16.0400009       1.37625000E-04
   16.0799999       1.35121285E-04
   16.1200008       1.30324261E-04
   16.1599998       1.23484642E-04
   16.2000008       1.14896582E-04
   16.2399998       1.04887105E-04
   16.2800007       9.38046433E-05
   16.3199997       8.20072601E-05
   16.3600006       6.98506483E-05
   16.3999996       5.76763559E-05
   16.4400005       4.58007089E-05
   16.4799995       3.45044646E-05
   16.5200005       2.40237805E-05
   16.5599995       1.45427121E-05
   16.6000004       6.18734293E-06
   16.6399994      -9.78109824E-07
   16.6800003      -6.95316885E-06
   16.7199993      -1.18008466E-05
   16.7600002      -1.56453352E-05
   16.7999992      -1.86675406E-05
   16.8400002      -2.10987128E-05
   16.8799992      -2.32122020E-05
   16.9200001      -2.53136059E-05
   16.9599991      -2.77294330E-05
   17.0000000      -3.07945993E-05
   17.0400009      -3.48390204E-05
   17.0799999      -4.01735888E-05
   17.1200008      -4.70758714E-05
   17.1599998      -5.57758576E-05
   17.2000008      -6.64421968E-05
   17.2399998      -7.91692364E-05
   17.2800007      -9.39652746E-05
   17.3199997      -1.10742440E-04
   17.3600006      -1.29308362E-04
   17.3999996      -1.49360145E-04
   17.4400005      -1.70480809E-04
   17.4799995      -1.92138294E-04
   17.5200005      -2.13687352E-04
   17.5599995      -2.34374063E-04
   17.6000004      -2.53343489E-04
   17.6399994      -2.69649754E-04
   17.6800003      -2.82268826E-04
   17.7199993      -2.90113821E-04
   17.7600002      -2.92052224E-04
   17.7999992      -2.86925177E-04
   17.8400002      -2.73568323E-04
   17.8799992      -2.50833546E-04
   17.9200001      -2.17611698E-04
   17.9599991      -1.72855507E-04
   18.0000000      -1.15602044E-04
   18.0400009      -4.49949875E-05
   18.0799999       3.96947435E-05
   18.1200008       1.39049676E-04
   18.1599998       2.53488746E-04
   18.2000008       3.83252656E-04
   18.2399998       5.28392149E-04
   18.2800007       6.88759319E-04
   18.3199997       8.64002563E-04
   18.3600006       1.05356460E-03
   18.3999996       1.25668477E-03
   18.4400005       1.47240411E-03
   18.4799995       1.69957546E-03
   18.5200005       1.93687482E-03
   18.5599995       2.18281802E-03
   18.6000004       2.43577990E-03
   18.6399994       2.69401446E-03
   18.6800003       2.95567908E-03
   18.7199993       3.21886106E-03
   18.7600002       3.48160160E-03
   18.7999992       3.74192465E-03
   18.8400002       3.99786420E-03
   18.8799992       4.24748939E-03
   18.9200001       4.48893150E-03
   18.9599991       4.72040521E-03
   19.0000000       4.94023459E-03
   19.0400009       5.14686760E-03
   19.0799999       5.33889513E-03
   19.1200008       5.51506458E-03
   19.1599998       5.67428861E-03
   19.2000008       5.81565080E-03
   19.2399998       5.93841029E-03
   19.2800007       6.04200223E-03
   19.3199997       6.12603221E-03
   19.3600006       6.19026925E-03
   19.3999996       6.23463932E-03
   19.4400005       6.25921134E-03
   19.4799995       6.26418367E-03
   19.5200005       6.24986598E-03
   19.5599995       6.21666526E-03
   19.6000004       6.16506673E-03
   19.6399994       6.09561428E-03
   19.6800003       6.00889511E-03
   19.7199993       5.90552157E-03
   19.7600002       5.78611484E-03
   19.7999992       5.65129146E-03
   19.8400002       5.50165121E-03
   19.8799992       5.33776777E-03
   19.9200001       5.16018132E-03
   19.9599991       4.96939477E-03
   20.0000000       4.76587145E-03
   20.0400009       4.55003930E-03
   20.0799999       4.32229089E-03
   20.1200008       4.08299314E-03
   20.1599998       3.83249437E-03
   20.2000008       3.57113662E-03
   20.2399998       3.29926610E-03
   20.2800007       3.01724765E-03
   20.3199997       2.72547896E-03
   20.3600006       2.42440519E-03
   20.3999996       2.11453298E-03
   20.4400005       1.79644453E-03
   20.4799995       1.47081050E-03
   20.5200005       1.13840064E-03
   20.5599995       8.00092879E-04
   20.6000004       4.56880458E-04
   20.6399994       1.09874796E-04
   20.6800003      -2.39692745E-04
   20.7199993      -5.90473239E-04
   20.7600002      -9.41005885E-04
   20.7999992      -1.28972612E-03
   20.8400002      -1.63497834E-03
   20.8799992      -1.97502971E-03
   20.9200001      -2.30808859E-03
   20.9599991      -2.63232389E-03
   21.0000000      -2.94588739E-03
   21.0400009      -3.24693788E-03
   21.0799999      -3.53366602E-03
   21.1200008      -3.80432047E-03
   21.1599998      -4.05723276E-03
   21.2000008      -4.29084478E-03
   21.2399998      -4.50373208E-03
   21.2800007      -4.69462620E-03
   21.3199997      -4.86243935E-03
   21.3600006      -5.00628026E-03
   21.3999996      -5.12547093E-03
   21.4400005      -5.21956058E-03
   21.4799995      -5.28833317E-03
   21.5200005      -5.33181615E-03
   21.5599995      -5.35027776E-03
   21.6000004      -5.34423022E-03
   21.6399994      -5.31441998E-03
   21.6800003      -5.26182167E-03
   21.7199993      -5.18762413E-03
   21.7600002      -5.09321364E-03
   21.7999992      -4.98015434E-03
   21.8400002      -4.85017058E-03
   21.8799992      -4.70511615E-03
   21.9200001      -4.54695337E-03
   21.9599991      -4.37772460E-03
   22.0000000      -4.19952022E-03
   22.0400009      -4.01445478E-03
   22.0799999      -3.82463168E-03
   22.1200008      -3.63211846E-03
   22.1599998      -3.43891676E-03
   22.2000008      -3.24693532E-03
   22.2399998      -3.05796531E-03
   22.2800007      -2.87365611E-03
   22.3199997      -2.69549666E-03
   22.3600006      -2.52479594E-03
   22.3999996      -2.36266875E-03
   22.4400005      -2.21002498E-03
   22.4799995      -2.06755963E-03
   22.5200005      -1.93575036E-03
   22.5599995      -1.81485468E-03
   22.6000004      -1.70491391E-03
   22.6399994      -1.60575763E-03
   22.6800003      -1.51701493E-03
   22.7199993      -1.43812608E-03
   22.7600002      -1.36835943E-03
   22.7999992      -1.30682962E-03
   22.8400002      -1.25251943E-03
   22.8799992      -1.20430440E-03
   22.9200001      -1.16097752E-03
   22.9599991      -1.12127757E-03
   23.0000000      -1.08391664E-03
   23.0400009      -1.04760937E-03
   23.0799999      -1.01110211E-03
   23.1200008      -9.73200426E-04
   23.1599998      -9.32796451E-04
   23.2000008      -8.88894603E-04
   23.2399998      -8.40634457E-04
   23.2800007      -7.87311350E-04
   23.3199997      -7.28393672E-04
   23.3600006      -6.63536834E-04
   23.3999996      -5.92593336E-04
   23.4400005      -5.15618420E-04
   23.4799995      -4.32872155E-04
   23.5200005      -3.44816450E-04
   23.5599995      -2.52108235E-04
   23.6000004      -1.55588234E-04
   23.6399994      -5.62655478E-05
   23.6800003       4.47013445E-05
   23.7199993       1.46027232E-04
   23.7600002       2.46325741E-04
   23.7999992       3.44137545E-04
   23.8400002       4.37960320E-04
   23.8799992       5.26280433E-04
   23.9200001       6.07604801E-04
   23.9599991       6.80493482E-04
   24.0000000       7.43590936E-04
   24.0400009       7.95656175E-04
   24.0799999       8.35591229E-04
   24.1200008       8.62466579E-04
   24.1599998       8.75543919E-04
   24.2000008       8.74294899E-04
   24.2399998       8.58416024E-04
   24.2800007       8.27839714E-04
   24.3199997       7.82740186E-04
   24.3600006       7.23535020E-04
   24.3999996       6.50882488E-04
   24.4400005       5.65673748E-04
   24.4799995       4.69020917E-04
   24.5200005       3.62241233E-04
   24.5599995       2.46836949E-04
   24.6000004       1.24472033E-04
   24.6399994      -3.05407320E-06
   24.6800003      -1.33835420E-04
   24.7199993      -2.65890441E-04
   24.7600002      -3.97194264E-04
   24.7999992      -5.25711977E-04
   24.8400002      -6.49432070E-04
   24.8799992      -7.66399666E-04
   24.9200001      -8.74748861E-04
   24.9599991      -9.72733542E-04
   25.0000000      -1.05875637E-03
   25.0400009      -1.13139499E-03
   25.0799999      -1.18942582E-03
   25.1200008      -1.23184442E-03
   25.1599998      -1.25788222E-03
   25.2000008      -1.26701978E-03
   25.2399998      -1.25899597E-03
   25.2800007      -1.23381300E-03
   25.3199997      -1.19173748E-03
   25.3600006      -1.13329780E-03
   25.3999996      -1.05927687E-03
   25.4400005      -9.70700639E-04
   25.4799995      -8.68824369E-04
   25.5200005      -7.55113200E-04
   25.5599995      -6.31220406E-04
   25.6000004      -4.98962763E-04
   25.6399994      -3.60292208E-04
   25.6800003      -2.17265697E-04
   25.7199993      -7.20132230E-05
   25.7600002       7.32959525E-05
   25.7999992       2.16487650E-04
   25.8400002       3.55417287E-04
   25.8799992       4.88004385E-04
   25.9200001       6.12265721E-04
   25.9599991       7.26347440E-04
   26.0000000       8.28554737E-04
   26.0400009       9.17379512E-04
   26.0799999       9.91524314E-04
   26.1200008       1.04992383E-03
   26.1599998       1.09176186E-03
   26.2000008       1.11648429E-03
   26.2399998       1.12380844E-03
   26.2800007       1.11372687E-03
   26.3199997       1.08650723E-03
   26.3600006       1.04268698E-03
   26.3999996       9.83063946E-04
   26.4400005       9.08681599E-04
   26.4799995       8.20811023E-04
   26.5200005       7.20928481E-04
   26.5599995       6.10689749E-04
   26.6000004       4.91901068E-04
   26.6399994       3.66489025E-04
   26.6800003       2.36467546E-04
   26.7199993       1.03904800E-04
   26.7600002      -2.91106517E-05
   26.7999992      -1.60503274E-04
   26.8400002      -2.88243027E-04
   26.8799992      -4.10376437E-04
   26.9200001      -5.25055744E-04
   26.9599991      -6.30565453E-04
   27.0000000      -7.25346385E-04
   27.0400009      -8.08016281E-04
   27.0799999      -8.77387007E-04
   27.1200008      -9.32478346E-04
   27.1599998      -9.72527778E-04
   27.2000008      -9.96996416E-04
   27.2399998      -1.00557122E-03
   27.2800007      -9.98163596E-04
   27.3199997      -9.74904513E-04
   27.3600006      -9.36136057E-04
   27.3999996      -8.82400840E-04
   27.4400005      -8.14428320E-04
   27.4799995      -7.33119377E-04
   27.5200005      -6.39529084E-04
   27.5599995      -5.34848310E-04
   27.6000004      -4.20384429E-04
   27.6399994      -2.97541701E-04
   27.6800003      -1.67800987E-04
   27.7199993      -3.27001289E-05
   27.7600002       1.06185740E-04
   27.7999992       2.47263233E-04
   27.8400002       3.88938992E-04
   27.8799992       5.29637386E-04
   27.9200001       6.67816726E-04
   27.9599991       8.01985036E-04
   28.0000000       9.30714130E-04
   28.0400009       1.05265295E-03
   28.0799999       1.16653962E-03
   28.1200008       1.27121154E-03
   28.1599998       1.36561540E-03
   28.2000008       1.44881557E-03
   28.2399998       1.52000028E-03
   28.2800007       1.57848757E-03
   28.3199997       1.62373018E-03
   28.3600006       1.65531726E-03
   28.3999996       1.67297758E-03
   28.4400005       1.67657866E-03
   28.4799995       1.66612514E-03
   28.5200005       1.64175697E-03
   28.5599995       1.60374457E-03
   28.6000004       1.55248260E-03
   28.6399994       1.48848270E-03
   28.6800003       1.41236396E-03
   28.7199993       1.32484222E-03
   28.7600002       1.22671842E-03
   28.7999992       1.11886347E-03
   28.8400002       1.00220414E-03
   28.8799992       8.77706683E-04
   28.9200001       7.46359059E-04
   28.9599991       6.09153649E-04
   29.0000000       4.67068661E-04
   29.0400009       3.21050320E-04
   29.0799999       1.71995081E-04
   29.1200008       2.07325502E-05
   29.1599998      -1.31989684E-04
   29.2000008      -2.85519927E-04
   29.2399998      -4.39314113E-04
   29.2800007      -5.92945027E-04
   29.3199997      -7.46108883E-04
   29.3600006      -8.98628845E-04
   29.3999996      -1.05045584E-03
   29.4400005      -1.20166538E-03
   29.4799995      -1.35245267E-03