-1.200000e-01 0.000000e+00
-1.190000e-01 0.000000e+00
-1.180000e-01 0.000000e+00
-1.170000e-01 0.000000e+00
-1.160000e-01 0.000000e+00
-1.150000e-01 0.000000e+00
-1.140000e-01 0.000000e+00
-1.130000e-01 0.000000e+00
-1.120000e-01 0.000000e+00
-1.110000e-01 0.000000e+00
-1.100000e-01 0.000000e+00
-1.090000e-01 0.000000e+00
-1.080000e-01 0.000000e+00
-1.070000e-01 0.000000e+00
-1.060000e-01 0.000000e+00
-1.050000e-01 0.000000e+00
-1.040000e-01 0.000000e+00
-1.030000e-01 0.000000e+00
-1.020000e-01 0.000000e+00
-1.010000e-01 -2.129974e-43
-1.000000e-01 -5.141364e-42
-9.900001e-02 -5.547040e-41
-9.800000e-02 -3.340625e-40
-9.700000e-02 -1.003753e-39
-9.600000e-02 1.071609e-39
-9.500001e-02 2.735268e-38
-9.400000e-02 1.449374e-37
-9.300000e-02 4.075191e-37
-9.200001e-02 3.133358e-37
-9.100001e-02 -2.804847e-36
-9.000000e-02 -1.526257e-35
-8.900000e-02 -3.983432e-35
-8.800000e-02 -3.993646e-35
-8.700000e-02 1.333090e-34
-8.600000e-02 7.565650e-34
-8.500001e-02 1.858013e-33
-8.400001e-02 1.971285e-33
-8.300000e-02 -3.658010e-33
-8.200000e-02 -2.219665e-32
-8.100000e-02 -5.228389e-32
-8.000000e-02 -5.714234e-32
-7.900000e-02 6.277261e-32
-7.800000e-02 4.333135e-31
-7.700001e-02 1.001224e-30
-7.600001e-02 1.133989e-30
-7.500000e-02 -6.597076e-31
-7.400000e-02 -6.022947e-30
-7.300000e-02 -1.401784e-29
-7.200000e-02 -1.670458e-29
-7.100000e-02 2.880279e-30
-7.000001e-02 6.182360e-29
-6.900001e-02 1.499887e-28
-6.800000e-02 1.916786e-28
-6.700000e-02 3.430890e-29
-6.600000e-02 -4.713066e-28
-6.500000e-02 -1.256975e-27
-6.400000e-02 -1.764002e-27
-6.300000e-02 -8.782174e-28
-6.200000e-02 2.534441e-27
-6.100000e-02 8.289823e-27
-6.000000e-02 1.322193e-26
-5.900000e-02 1.064339e-26
-5.800000e-02 -7.091133e-27
-5.700000e-02 -4.187676e-26
-5.600000e-02 -8.089263e-26
-5.500000e-02 -9.131539e-26
-5.400001e-02 -2.733613e-26
-5.300000e-02 1.436827e-25
-5.200000e-02 3.973884e-25
-5.100000e-02 6.070655e-25
-5.000000e-02 5.309721e-25
-4.900000e-02 -1.184962e-25
-4.800000e-02 -1.478609e-24
-4.700000e-02 -3.218628e-24
-4.600000e-02 -4.232826e-24
-4.500000e-02 -2.664441e-24
-4.400000e-02 3.294084e-24
-4.300000e-02 1.357363e-23
-4.200000e-02 2.389182e-23
-4.100000e-02 2.468416e-23
-4.000000e-02 4.026008e-24
-3.900000e-02 -4.358895e-23
-3.800000e-02 -1.046720e-22
-3.700000e-02 -1.386989e-22
-3.600000e-02 -8.743718e-23
-3.500000e-02 8.945844e-23
-3.400000e-02 3.605628e-22
-3.300000e-02 5.837353e-22
-3.200000e-02 5.314890e-22
-3.100000e-02 1.313846e-23
-3.000000e-02 -9.354380e-22
-2.900000e-02 -1.907301e-21
-2.800000e-02 -2.182224e-21
-2.700000e-02 -1.078399e-21
-2.600000e-02 1.501126e-21
-2.500000e-02 4.651826e-21
-2.400000e-02 6.583570e-21
-2.300000e-02 5.446286e-21
-2.200000e-02 5.497023e-22
-2.100000e-02 -6.792024e-21
-2.000000e-02 -1.353912e-20
-1.900000e-02 -1.637969e-20
-1.800000e-02 -1.340456e-20
-1.700000e-02 -4.621437e-21
-1.600000e-02 9.171341e-21
-1.500000e-02 2.768643e-20
-1.400000e-02 4.987214e-20
-1.300000e-02 6.882364e-20
-1.200000e-02 6.639309e-20
-1.100000e-02 1.588615e-20
-9.999998e-03 -9.963353e-20
-8.999996e-03 -2.567235e-19
-8.000001e-03 -3.692908e-19
-6.999999e-03 -3.060418e-19
-5.999997e-03 3.354466e-20
-5.000003e-03 6.072615e-19
-4.000001e-03 1.155824e-18
-2.999999e-03 1.258698e-18
-1.999997e-03 5.602840e-19
-1.000002e-03 -9.151921e-19
0.000000e+00 -2.566241e-18
1.000002e-03 -3.358908e-18
2.000004e-03 -2.376010e-18
2.999999e-03 4.664840e-19
4.000001e-03 4.021767e-18
4.999995e-03 6.278574e-18
5.999997e-03 5.506202e-18
6.999999e-03 1.563967e-18
8.000001e-03 -3.611171e-18
9.000003e-03 -7.005862e-18
1.000001e-02 -6.661656e-18
1.100001e-02 -3.454922e-18
1.199999e-02 -7.943695e-19
1.300000e-02 -1.739548e-18
1.400000e-02 -5.290138e-18
1.500000e-02 -5.227838e-18
1.600000e-02 5.915017e-18
1.700000e-02 2.887045e-17
1.800001e-02 5.128831e-17
1.900001e-02 5.029001e-17
2.000000e-02 6.882857e-18
2.100000e-02 -7.407793e-17
2.200000e-02 -1.530830e-16
2.300000e-02 -1.686735e-16
2.400000e-02 -7.505261e-17
2.500001e-02 1.142699e-16
2.600001e-02 3.093411e-16
2.700000e-02 3.783873e-16
2.800000e-02 2.284433e-16
2.900000e-02 -1.126099e-16
3.000000e-02 -4.752291e-16
3.100000e-02 -6.259423e-16
3.200001e-02 -4.168902e-16
3.300001e-02 8.448328e-17
3.400001e-02 5.910364e-16
3.500000e-02 7.566118e-16
3.600000e-02 4.232901e-16
3.700000e-02 -2.155282e-16
3.800000e-02 -6.899238e-16
3.900000e-02 -5.726792e-16
4.000001e-02 1.486646e-16
4.100001e-02 9.409884e-16
4.200000e-02 1.021906e-15
4.300000e-02 -2.812425e-17
4.400000e-02 -1.750876e-15
4.500000e-02 -2.863730e-15
4.600000e-02 -2.039419e-15
4.700001e-02 9.782252e-16
4.800001e-02 4.724580e-15
4.900001e-02 6.527991e-15
5.000000e-02 4.181551e-15
5.100000e-02 -2.159061e-15
5.200000e-02 -9.265346e-15
5.300000e-02 -1.224623e-14
5.400001e-02 -7.658075e-15
5.500001e-02 3.532375e-15
5.600001e-02 1.539450e-14
5.700000e-02 1.995860e-14
5.800000e-02 1.236926e-14
5.900000e-02 -4.953251e-15
6.000000e-02 -2.240818e-14
6.100000e-02 -2.844841e-14
6.200001e-02 -1.725403e-14
6.300001e-02 6.216588e-15
6.400001e-02 2.796102e-14
6.500000e-02 3.343435e-14
6.600000e-02 1.779472e-14
6.700000e-02 -9.358425e-15
6.800000e-02 -2.921494e-14
6.900001e-02 -2.671829e-14
7.000001e-02 -2.736448e-15
7.100001e-02 2.409920e-14
7.200000e-02 2.932262e-14
7.300000e-02 1.778551e-15
7.400000e-02 -4.357919e-14
7.500000e-02 -7.084918e-14
7.600001e-02 -4.660846e-14
7.700001e-02 3.211928e-14
7.800001e-02 1.257722e-13
7.900001e-02 1.692378e-13
8.000000e-02 1.124833e-13
8.100000e-02 -3.920350e-14
8.200000e-02 -2.143300e-13
8.300000e-02 -3.076969e-13
8.400001e-02 -2.425725e-13
8.500001e-02 -2.579042e-14
8.600001e-02 2.423188e-13
8.700001e-02 4.165734e-13
8.800000e-02 3.902180e-13
8.900000e-02 1.629234e-13
9.000000e-02 -1.517384e-13
9.100001e-02 -3.889680e-13
9.200001e-02 -4.297155e-13
9.300001e-02 -2.709501e-13
9.400001e-02 -2.246546e-14
9.500000e-02 1.693452e-13
9.600000e-02 2.202217e-13
9.700000e-02 1.605728e-13
9.800000e-02 1.023112e-13
9.900001e-02 1.404325e-13
1.000000e-01 2.603685e-13
1.010000e-01 3.258475e-13
1.020000e-01 1.707965e-13
1.030000e-01 -2.569821e-13
1.040000e-01 -8.015467e-13
1.050000e-01 -1.138319e-12
1.060000e-01 -9.514126e-13
1.070000e-01 -1.557965e-13
1.080000e-01 9.781420e-13
1.090000e-01 1.901525e-12
1.100000e-01 2.055864e-12
1.110000e-01 1.200081e-12
1.120000e-01 -3.948567e-13
1.130000e-01 -2.019456e-12
1.140000e-01 -2.858696e-12
1.150000e-01 -2.421345e-12
1.160000e-01 -8.305874e-13
1.170000e-01 1.198309e-12
1.180000e-01 2.700846e-12
1.190000e-01 2.953262e-12
1.200000e-01 1.846483e-12
1.210000e-01 -6.085779e-14
1.220000e-01 -1.838219e-12
1.230000e-01 -2.660566e-12
1.240000e-01 -2.202229e-12
1.250000e-01 -7.405481e-13
1.260000e-01 1.057491e-12
1.270000e-01 2.503065e-12
1.280000e-01 3.167183e-12
1.290000e-01 2.920929e-12
1.300000e-01 1.771434e-12
1.310000e-01 -3.036912e-13
1.320000e-01 -3.309062e-12
1.330000e-01 -6.928156e-12
1.340000e-01 -1.017185e-11
1.350000e-01 -1.133638e-11
1.360000e-01 -8.533063e-12
1.370000e-01 -7.166967e-13
1.380000e-01 1.125671e-11
1.390000e-01 2.420787e-11
1.400000e-01 3.332468e-11
1.410000e-01 3.390420e-11
1.420000e-01 2.346573e-11
1.430000e-01 3.217324e-12
1.440000e-01 -2.194945e-11
1.450000e-01 -4.508411e-11
1.460000e-01 -5.974350e-11
1.470000e-01 -6.230715e-11
1.480000e-01 -5.295335e-11
1.490000e-01 -3.489884e-11
1.500000e-01 -1.240914e-11
1.510000e-01 1.129771e-11
1.520000e-01 3.514254e-11
1.530000e-01 5.977210e-11
1.540000e-01 8.598355e-11
1.550000e-01 1.129137e-10
1.560000e-01 1.369461e-10
1.570000e-01 1.518055e-10
1.580000e-01 1.496751e-10
1.590000e-01 1.227958e-10
1.600000e-01 6.508226e-11
1.610000e-01 -2.632798e-11
1.620000e-01 -1.493720e-10
1.630000e-01 -2.950933e-10
1.640000e-01 -4.458399e-10
1.650000e-01 -5.747038e-10
1.660000e-01 -6.474930e-10
1.670000e-01 -6.279500e-10
1.680000e-01 -4.856546e-10
1.690000e-01 -2.046334e-10
1.700000e-01 2.100639e-10
1.710000e-01 7.301014e-10
1.720000e-01 1.306540e-09
1.730000e-01 1.875971e-09
1.740000e-01 2.367031e-09
1.750000e-01 2.704129e-09
1.760000e-01 2.806680e-09
1.770000e-01 2.584556e-09
1.780000e-01 1.932503e-09
1.790000e-01 7.268709e-10
1.800000e-01 -1.173377e-09
1.810000e-01 -3.921957e-09
1.820000e-01 -7.680038e-09
1.830000e-01 -1.261481e-08
1.840000e-01 -1.890523e-08
1.850000e-01 -2.675602e-08
1.860000e-01 -3.641806e-08
1.870000e-01 -4.821198e-08
1.880000e-01 -6.255144e-08
1.890000e-01 -7.996431e-08
1.900000e-01 -1.011115e-07
1.910000e-01 -1.268043e-07
1.920000e-01 -1.580216e-07
1.930000e-01 -1.959272e-07
1.940000e-01 -2.418896e-07
1.950000e-01 -2.975055e-07
1.960000e-01 -3.646315e-07
1.970000e-01 -4.454286e-07
1.980000e-01 -5.424226e-07
1.990000e-01 -6.585808e-07
2.000000e-01 -7.973987e-07
2.010000e-01 -9.629921e-07
2.020000e-01 -1.160184e-06
2.030000e-01 -1.394587e-06
2.040000e-01 -1.672675e-06
2.050000e-01 -2.001868e-06
2.060000e-01 -2.390622e-06
2.070000e-01 -2.848544e-06
2.080000e-01 -3.386539e-06
2.090000e-01 -4.016975e-06
2.100000e-01 -4.753860e-06
2.110000e-01 -5.613033e-06
2.120000e-01 -6.612352e-06
2.130000e-01 -7.771878e-06
2.140000e-01 -9.114060e-06
2.150000e-01 -1.066393e-05
2.160000e-01 -1.244929e-05
2.170000e-01 -1.450090e-05
2.180000e-01 -1.685266e-05
2.190000e-01 -1.954181e-05
2.200000e-01 -2.260905e-05
2.210000e-01 -2.609871e-05
2.220000e-01 -3.005886e-05
2.230000e-01 -3.454137e-05
2.240000e-01 -3.960200e-05
2.250000e-01 -4.530039e-05
2.260000e-01 -5.170001e-05
2.270000e-01 -5.886807e-05
2.280000e-01 -6.687536e-05
2.290000e-01 -7.579595e-05
2.300000e-01 -8.570696e-05
2.310000e-01 -9.668810e-05
2.320000e-01 -1.088212e-04
2.330000e-01 -1.221894e-04
2.340000e-01 -1.368769e-04
2.350000e-01 -1.529671e-04
2.360000e-01 -1.705427e-04
2.370000e-01 -1.896836e-04
2.380000e-01 -2.104662e-04
2.390000e-01 -2.329617e-04
2.400000e-01 -2.572348e-04
2.410000e-01 -2.833424e-04
2.420000e-01 -3.113313e-04
2.430000e-01 -3.412370e-04
2.440000e-01 -3.730819e-04
2.450000e-01 -4.068728e-04
2.460000e-01 -4.425997e-04
2.470000e-01 -4.802335e-04
2.480000e-01 -5.197240e-04
2.490000e-01 -5.609981e-04
2.500000e-01 -6.039583e-04
2.510000e-01 -6.484808e-04
2.520000e-01 -6.944145e-04
2.530000e-01 -7.415795e-04
2.540000e-01 -7.897659e-04
2.550000e-01 -8.387339e-04
2.560000e-01 -8.882135e-04
2.570000e-01 -9.379041e-04
2.580000e-01 -9.874759e-04
2.590000e-01 -1.036570e-03
2.600000e-01 -1.084801e-03
2.610000e-01 -1.131756e-03
2.620000e-01 -1.177003e-03
2.630000e-01 -1.220086e-03
2.640000e-01 -1.260536e-03
2.650000e-01 -1.297869e-03
2.660000e-01 -1.331596e-03
2.670000e-01 -1.361220e-03
2.680000e-01 -1.386252e-03
2.690000e-01 -1.406207e-03
2.700000e-01 -1.420616e-03
2.710000e-01 -1.429028e-03
2.720000e-01 -1.431020e-03
2.730000e-01 -1.426202e-03
2.740000e-01 -1.414220e-03
2.750000e-01 -1.394768e-03
2.760000e-01 -1.367591e-03
2.770000e-01 -1.332489e-03
2.780000e-01 -1.289326e-03
2.790000e-01 -1.238029e-03
2.800000e-01 -1.178596e-03
2.810000e-01 -1.111100e-03
2.820000e-01 -1.035688e-03
2.830000e-01 -9.525840e-04
2.840000e-01 -8.620909e-04
2.850000e-01 -7.645873e-04
2.860000e-01 -6.605269e-04
2.870000e-01 -5.504370e-04
2.880000e-01 -4.349141e-04
2.890000e-01 -3.146206e-04
2.900000e-01 -1.902780e-04
2.910000e-01 -6.266090e-05
2.920000e-01 6.741108e-05
2.930000e-01 1.990809e-04
2.940000e-01 3.314628e-04
2.950000e-01 4.636510e-04
2.960000e-01 5.947297e-04
2.970000e-01 7.237828e-04
2.980000e-01 8.499040e-04
2.990000e-01 9.722073e-04
3.000000e-01 1.089836e-03
3.010000e-01 1.201972e-03
3.020000e-01 1.307846e-03
3.030000e-01 1.406744e-03
3.040000e-01 1.498015e-03
3.050000e-01 1.581082e-03
3.060000e-01 1.655439e-03
3.070000e-01 1.720667e-03
3.080000e-01 1.776429e-03
3.090000e-01 1.822475e-03
3.100000e-01 1.858648e-03
3.110000e-01 1.884876e-03
3.120000e-01 1.901180e-03
3.130000e-01 1.907667e-03
3.140000e-01 1.904527e-03
3.150000e-01 1.892030e-03
3.160000e-01 1.870521e-03
3.170000e-01 1.840416e-03
3.180000e-01 1.802192e-03
3.190000e-01 1.756383e-03
3.200000e-01 1.703571e-03
3.210000e-01 1.644376e-03
3.220000e-01 1.579454e-03
3.230000e-01 1.509483e-03
3.240000e-01 1.435157e-03
3.250000e-01 1.357179e-03
3.260000e-01 1.276252e-03
3.270000e-01 1.193070e-03
3.280000e-01 1.108315e-03
3.290000e-01 1.022644e-03
3.300000e-01 9.366922e-04
3.310000e-01 8.510604e-04
3.320000e-01 7.663132e-04
3.330000e-01 6.829742e-04
3.340000e-01 6.015227e-04
3.350000e-01 5.223925e-04
3.360000e-01 4.459693e-04
3.370000e-01 3.725912e-04
3.380000e-01 3.025467e-04
3.390000e-01 2.360756e-04
3.400000e-01 1.733695e-04
3.410000e-01 1.145736e-04
3.420000e-01 5.978876e-05
3.430000e-01 9.073996e-06
3.440000e-01 -3.755118e-05
3.450000e-01 -8.010410e-05
3.460000e-01 -1.186360e-04
3.470000e-01 -1.532283e-04
3.480000e-01 -1.839895e-04
3.490000e-01 -2.110506e-04
3.500000e-01 -2.345625e-04
3.510000e-01 -2.546927e-04
3.520000e-01 -2.716224e-04
3.530000e-01 -2.855431e-04
3.540000e-01 -2.966536e-04
3.550000e-01 -3.051570e-04
3.560000e-01 -3.112581e-04
3.570000e-01 -3.151613e-04
3.580000e-01 -3.170687e-04
3.590000e-01 -3.171787e-04
3.600000e-01 -3.156840e-04
3.610000e-01 -3.127700e-04
3.620000e-01 -3.086131e-04
3.630000e-01 -3.033804e-04
3.640000e-01 -2.972293e-04
3.650000e-01 -2.903074e-04
3.660000e-01 -2.827518e-04
3.670000e-01 -2.746892e-04
3.680000e-01 -2.662348e-04
3.690000e-01 -2.574929e-04
3.700000e-01 -2.485567e-04
3.710000e-01 -2.395098e-04
3.720000e-01 -2.304264e-04
3.730000e-01 -2.213723e-04
3.740000e-01 -2.124047e-04
3.750000e-01 -2.035723e-04
3.760000e-01 -1.949162e-04
3.770000e-01 -1.864700e-04
3.780000e-01 -1.782616e-04
3.790000e-01 -1.703134e-04
3.800000e-01 -1.626427e-04
3.810000e-01 -1.552624e-04
3.820000e-01 -1.481805e-04
3.830000e-01 -1.414011e-04
3.840000e-01 -1.349248e-04
3.850000e-01 -1.287498e-04
3.860000e-01 -1.228721e-04
3.870000e-01 -1.172866e-04
3.880000e-01 -1.119862e-04
3.890000e-01 -1.069628e-04
3.900000e-01 -1.022068e-04
3.910000e-01 -9.770763e-05
3.920000e-01 -9.345444e-05
3.930000e-01 -8.943617e-05
3.940000e-01 -8.564167e-05
3.950000e-01 -8.205970e-05
3.960000e-01 -7.867871e-05
3.970000e-01 -7.548693e-05
3.980000e-01 -7.247258e-05
3.990000e-01 -6.962416e-05
4.000000e-01 -6.693076e-05
4.010000e-01 -6.438212e-05
4.020000e-01 -6.196857e-05
4.030000e-01 -5.968082e-05
4.040000e-01 -5.750974e-05
4.050000e-01 -5.544640e-05
4.060000e-01 -5.348218e-05
4.070000e-01 -5.160892e-05
4.080000e-01 -4.981909e-05
4.090000e-01 -4.810564e-05
4.100000e-01 -4.646186e-05
4.110000e-01 -4.488117e-05
4.120000e-01 -4.335695e-05
4.130000e-01 -4.188251e-05
4.140000e-01 -4.045115e-05
4.150000e-01 -3.905612e-05
4.160000e-01 -3.769060e-05
4.170000e-01 -3.634757e-05
4.180000e-01 -3.501968e-05
4.190000e-01 -3.369913e-05
4.200000e-01 -3.237748e-05
4.210000e-01 -3.104539e-05
4.220001e-01 -2.969232e-05
4.230000e-01 -2.830625e-05
4.240000e-01 -2.687348e-05
4.250000e-01 -2.537855e-05
4.260000e-01 -2.380416e-05
4.270000e-01 -2.213096e-05
4.280000e-01 -2.033709e-05
4.290000e-01 -1.839780e-05
4.300000e-01 -1.628494e-05
4.310000e-01 -1.396669e-05
4.320000e-01 -1.140729e-05
4.330000e-01 -8.566691e-06
4.340000e-01 -5.399985e-06
4.350000e-01 -1.856699e-06
4.360000e-01 2.119807e-06
4.370000e-01 6.592673e-06
4.380000e-01 1.163166e-05
4.390000e-01 1.731332e-05
4.400000e-01 2.372134e-05
4.410000e-01 3.094730e-05
4.420000e-01 3.909147e-05
4.430000e-01 4.826325e-05
4.440000e-01 5.858121e-05
4.450000e-01 7.017266e-05
4.460000e-01 8.317317e-05
4.470000e-01 9.772665e-05
4.480000e-01 1.139854e-04
4.490000e-01 1.321106e-04
4.500000e-01 1.522719e-04
4.510000e-01 1.746463e-04
4.520000e-01 1.994160e-04
4.530000e-01 2.267667e-04
4.540000e-01 2.568861e-04
4.550000e-01 2.899629e-04
4.560000e-01 3.261852e-04
4.570000e-01 3.657386e-04
4.580000e-01 4.088030e-04
4.590001e-01 4.555488e-04
4.600000e-01 5.061343e-04
4.610000e-01 5.607014e-04
4.620000e-01 6.193722e-04
4.630000e-01 6.822457e-04
4.640000e-01 7.493929e-04
4.650000e-01 8.208530e-04
4.660000e-01 8.966280e-04
4.670000e-01 9.766786e-04
4.680000e-01 1.060921e-03
4.690000e-01 1.149221e-03
4.700000e-01 1.241392e-03
4.710000e-01 1.337193e-03
4.720000e-01 1.436319e-03
4.730000e-01 1.538404e-03
4.740000e-01 1.643013e-03
4.750000e-01 1.749646e-03
4.760000e-01 1.857733e-03
4.770000e-01 1.966638e-03
4.780000e-01 2.075654e-03
4.790000e-01 2.184010e-03
4.800000e-01 2.290868e-03
4.810000e-01 2.395335e-03
4.820001e-01 2.496463e-03
4.830000e-01 2.593261e-03
4.840000e-01 2.684696e-03
4.850000e-01 2.769700e-03
4.860000e-01 2.847182e-03
4.870000e-01 2.916037e-03
4.880000e-01 2.975160e-03
4.890000e-01 3.023458e-03
4.900000e-01 3.059866e-03
4.910000e-01 3.083357e-03
4.920000e-01 3.092953e-03
4.930000e-01 3.087744e-03
4.940000e-01 3.066896e-03
4.950000e-01 3.029675e-03
4.960001e-01 2.975451e-03
4.970000e-01 2.903721e-03
4.980000e-01 2.814108e-03
4.990000e-01 2.706378e-03
5.000000e-01 2.580443e-03
5.010000e-01 2.436376e-03
5.020000e-01 2.274420e-03
5.030000e-01 2.094989e-03
5.040000e-01 1.898674e-03
5.050000e-01 1.686237e-03
5.060000e-01 1.458604e-03
5.070000e-01 1.216866e-03
5.080000e-01 9.622748e-04
5.090000e-01 6.962343e-04
5.100001e-01 4.202923e-04
5.110000e-01 1.361234e-04
5.120000e-01 -1.544883e-04
5.130000e-01 -4.496670e-04
5.140000e-01 -7.474604e-04
5.150000e-01 -1.045856e-03
5.160000e-01 -1.342802e-03
5.170000e-01 -1.636230e-03
5.180000e-01 -1.924085e-03
5.190001e-01 -2.204342e-03
5.200000e-01 -2.475033e-03
5.210000e-01 -2.734259e-03
5.220000e-01 -2.980212e-03
5.230000e-01 -3.211192e-03
5.240000e-01 -3.425631e-03
5.250000e-01 -3.622116e-03
5.260000e-01 -3.799398e-03
5.270000e-01 -3.956410e-03
5.280000e-01 -4.092263e-03
5.290000e-01 -4.206260e-03
5.300000e-01 -4.297903e-03
5.310000e-01 -4.366898e-03
5.320000e-01 -4.413159e-03
5.330001e-01 -4.436803e-03
5.340000e-01 -4.438140e-03
5.350000e-01 -4.417668e-03
5.360000e-01 -4.376055e-03
5.370000e-01 -4.314141e-03
5.380000e-01 -4.232928e-03
5.390000e-01 -4.133561e-03
5.400000e-01 -4.017311e-03
5.410000e-01 -3.885550e-03
5.420001e-01 -3.739731e-03
5.430000e-01 -3.581375e-03
5.440000e-01 -3.412058e-03
5.450000e-01 -3.233394e-03
5.460000e-01 -3.047013e-03
5.470001e-01 -2.854537e-03
5.480000e-01 -2.657562e-03
5.490000e-01 -2.457641e-03
5.500000e-01 -2.256283e-03
5.510000e-01 -2.054933e-03
5.520000e-01 -1.854963e-03
5.530000e-01 -1.657655e-03
5.540000e-01 -1.464188e-03
5.550000e-01 -1.275632e-03
5.560001e-01 -1.092949e-03
5.570000e-01 -9.169910e-04
5.580000e-01 -7.485007e-04
5.590000e-01 -5.881073e-04
5.600000e-01 -4.363250e-04
5.610000e-01 -2.935544e-04
5.620000e-01 -1.600872e-04
5.630000e-01 -3.611480e-05
5.640000e-01 7.826655e-05
5.650001e-01 1.830496e-04
5.660000e-01 2.783115e-04
5.670000e-01 3.642066e-04
5.680000e-01 4.409580e-04
5.690000e-01 5.088473e-04
5.700001e-01 5.682056e-04
5.710000e-01 6.194060e-04
5.720000e-01 6.628563e-04
5.730000e-01 6.989926e-04
5.740000e-01 7.282710e-04
5.750000e-01 7.511608e-04
5.760000e-01 7.681379e-04
5.770000e-01 7.796804e-04
5.780000e-01 7.862647e-04
5.790001e-01 7.883607e-04
5.800000e-01 7.864276e-04
5.810000e-01 7.809079e-04
5.820000e-01 7.722237e-04
5.830000e-01 7.607752e-04
5.840001e-01 7.469411e-04
5.850000e-01 7.310790e-04
5.860000e-01 7.135246e-04
5.870000e-01 6.945892e-04
5.880000e-01 6.745586e-04
5.890000e-01 6.536919e-04
5.900000e-01 6.322241e-04
5.910000e-01 6.103677e-04
5.920000e-01 5.883145e-04
5.930001e-01 5.662345e-04
5.940000e-01 5.442765e-04
5.950000e-01 5.225683e-04
5.960000e-01 5.012191e-04
5.970000e-01 4.803218e-04
5.980000e-01 4.599550e-04
5.990000e-01 4.401833e-04
6.000000e-01 4.210568e-04
6.010000e-01 4.026119e-04
6.020001e-01 3.848729e-04
6.030000e-01 3.678554e-04
6.040000e-01 3.515680e-04
6.050000e-01 3.360132e-04
6.060000e-01 3.211862e-04
6.070001e-01 3.070751e-04
6.080000e-01 2.936619e-04
6.090000e-01 2.809247e-04
6.100000e-01 2.688406e-04
6.110000e-01 2.573859e-04
6.120000e-01 2.465350e-04
6.130000e-01 2.362594e-04
6.140000e-01 2.265278e-04
6.150000e-01 2.173089e-04
6.160001e-01 2.085738e-04
6.170000e-01 2.002974e-04
6.180000e-01 1.924572e-04
6.190000e-01 1.850298e-04
6.200000e-01 1.779899e-04
6.210001e-01 1.713109e-04
6.220000e-01 1.649680e-04
6.230000e-01 1.589410e-04
6.240000e-01 1.532140e-04
6.250001e-01 1.477730e-04
6.260000e-01 1.426032e-04
6.270000e-01 1.376881e-04
6.280000e-01 1.330110e-04
6.290000e-01 1.285577e-04
6.300001e-01 1.243179e-04
6.310000e-01 1.202834e-04
6.320000e-01 1.164454e-04
6.330000e-01 1.127924e-04
6.340000e-01 1.093109e-04
6.350001e-01 1.059883e-04
6.360000e-01 1.028151e-04
6.370000e-01 9.978486e-05
6.380000e-01 9.689193e-05
6.390001e-01 9.412874e-05
6.400000e-01 9.148503e-05
6.410000e-01 8.894987e-05
6.420000e-01 8.651455e-05
6.430000e-01 8.417387e-05
6.440001e-01 8.192474e-05
6.450000e-01 7.976333e-05
6.460000e-01 7.768311e-05
6.470000e-01 7.567577e-05
6.480000e-01 7.373403e-05
6.490000e-01 7.185424e-05
6.500000e-01 7.003629e-05
6.510000e-01 6.828120e-05
6.520000e-01 6.658785e-05
6.530001e-01 6.495192e-05
6.540000e-01 6.336757e-05
6.550000e-01 6.183060e-05
6.560000e-01 6.034066e-05
6.570000e-01 5.890055e-05
6.580001e-01 5.751340e-05
6.590000e-01 5.617970e-05
6.600000e-01 5.489635e-05
6.610000e-01 5.365822e-05
6.620001e-01 5.246090e-05
6.630000e-01 5.130255e-05
6.640000e-01 5.018374e-05
6.650000e-01 4.910566e-05
6.660000e-01 4.806818e-05
6.670001e-01 4.706907e-05
6.680000e-01 4.610461e-05
6.690000e-01 4.517095e-05
6.700000e-01 4.426507e-05
6.710000e-01 4.338488e-05
6.720001e-01 4.252881e-05
6.730000e-01 4.169514e-05
6.740000e-01 4.088192e-05
6.750000e-01 4.008706e-05
6.760001e-01 3.930876e-05
6.770000e-01 3.854582e-05
6.780000e-01 3.779770e-05
6.790000e-01 3.706430e-05
6.800000e-01 3.634541e-05
6.810001e-01 3.564025e-05
6.820000e-01 3.494740e-05
6.830000e-01 3.426516e-05
6.840000e-01 3.359242e-05
6.850001e-01 3.292933e-05
6.860000e-01 3.227725e-05
6.870000e-01 3.163806e-05
6.880000e-01 3.101303e-05
6.890000e-01 3.040232e-05
6.900001e-01 2.980543e-05
6.910000e-01 2.922210e-05
6.920000e-01 2.865294e-05
6.930000e-01 2.809896e-05
6.940000e-01 2.756053e-05
6.950001e-01 2.703662e-05
6.960000e-01 2.652529e-05
6.970000e-01 2.602511e-05
6.980000e-01 2.553659e-05
6.990001e-01 2.506208e-05
7.000000e-01 2.460408e-05
7.010000e-01 2.416335e-05
7.020000e-01 2.373814e-05
7.030000e-01 2.332558e-05
7.040001e-01 2.292392e-05
7.050000e-01 2.253384e-05
7.060000e-01 2.215759e-05
7.070000e-01 2.179666e-05
7.080001e-01 2.145011e-05
7.090001e-01 2.111506e-05
7.100000e-01 2.078925e-05
7.110000e-01 2.047336e-05
7.120000e-01 2.017084e-05
7.130001e-01 1.988512e-05
7.140000e-01 1.961610e-05
7.150000e-01 1.935921e-05
7.160000e-01 1.910784e-05
7.170000e-01 1.885771e-05
7.180001e-01 1.860944e-05
7.190000e-01 1.836730e-05
7.200000e-01 1.813488e-05
7.210000e-01 1.791121e-05
7.220001e-01 1.769060e-05
7.230000e-01 1.746635e-05
7.240000e-01 1.723538e-05
7.250000e-01 1.699985e-05
7.260000e-01 1.676434e-05
7.270001e-01 1.653088e-05
7.280000e-01 1.629612e-05
7.290000e-01 1.605307e-05
7.300000e-01 1.579620e-05
7.310000e-01 1.552577e-05
7.320001e-01 1.524773e-05
7.330000e-01 1.496925e-05
7.340000e-01 1.469352e-05
7.350000e-01 1.441803e-05
7.360001e-01 1.413764e-05
7.370000e-01 1.384989e-05
7.380000e-01 1.355807e-05
7.390000e-01 1.326955e-05
7.400000e-01 1.299090e-05
7.410001e-01 1.272403e-05
7.420000e-01 1.246647e-05
7.430000e-01 1.221554e-05
7.440000e-01 1.197253e-05
7.450001e-01 1.174343e-05
7.460001e-01 1.153524e-05
7.470000e-01 1.135119e-05
7.480000e-01 1.118877e-05
7.490000e-01 1.104242e-05
7.500001e-01 1.090843e-05
7.510000e-01 1.078814e-05
7.520000e-01 1.068665e-05
7.530000e-01 1.060811e-05
7.540000e-01 1.055158e-05
7.550001e-01 1.051077e-05
7.560000e-01 1.047767e-05
7.570000e-01 1.044711e-05
7.580000e-01 1.041848e-05
7.590001e-01 1.039357e-05
7.600001e-01 1.037258e-05
7.610000e-01 1.035187e-05
7.620000e-01 1.032527e-05
7.630000e-01 1.028757e-05
7.640001e-01 1.023705e-05
7.650000e-01 1.017498e-05
7.660000e-01 1.010265e-05
7.670000e-01 1.001863e-05
7.680001e-01 9.918673e-06
7.690001e-01 9.798382e-06
7.700000e-01 9.656225e-06
7.710000e-01 9.494483e-06
7.720000e-01 9.317445e-06
7.730001e-01 9.128535e-06
7.740000e-01 8.928830e-06
7.750000e-01 8.718011e-06
7.760000e-01 8.496660e-06
7.770000e-01 8.267755e-06
7.780001e-01 8.036131e-06
7.790000e-01 7.806519e-06
7.800000e-01 7.581972e-06
7.810000e-01 7.363943e-06
7.820001e-01 7.153697e-06
7.830001e-01 6.953563e-06
7.840000e-01 6.766853e-06
7.850000e-01 6.596653e-06
7.860000e-01 6.444729e-06
7.870001e-01 6.311607e-06
7.880000e-01 6.197632e-06
7.890000e-01 6.103795e-06
7.900000e-01 6.031431e-06
7.910001e-01 5.980974e-06
7.920001e-01 5.951093e-06
7.930000e-01 5.939180e-06
7.940000e-01 5.942849e-06
7.950000e-01 5.961033e-06
7.960001e-01 5.993459e-06
7.970001e-01 6.038819e-06
7.980000e-01 6.093310e-06
7.990000e-01 6.151110e-06
8.000000e-01 6.206722e-06
8.010001e-01 6.257337e-06
8.020000e-01 6.303150e-06
8.030000e-01 6.345213e-06
8.040000e-01 6.382550e-06
8.050001e-01 6.411071e-06
8.060001e-01 6.425299e-06
8.070000e-01 6.421515e-06
8.080000e-01 6.399589e-06
8.090000e-01 6.361849e-06
8.100001e-01 6.309947e-06
8.110000e-01 6.242547e-06
8.120000e-01 6.156010e-06
8.130000e-01 6.047698e-06
8.140000e-01 5.919062e-06
8.150001e-01 5.775750e-06
8.160000e-01 5.624421e-06
8.170000e-01 5.468851e-06
8.180000e-01 5.308610e-06
8.190001e-01 5.141427e-06
8.200001e-01 4.967177e-06
8.210000e-01 4.789961e-06
8.220000e-01 4.616403e-06
8.230000e-01 4.451631e-06
8.240001e-01 4.296522e-06
8.250000e-01 4.148792e-06
8.260000e-01 4.007099e-06
8.270000e-01 3.874567e-06
8.280001e-01 3.758446e-06
8.290001e-01 3.665890e-06
8.300000e-01 3.599247e-06
8.310000e-01 3.554878e-06
8.320000e-01 3.526627e-06
8.330001e-01 3.511117e-06
8.340001e-01 3.510421e-06
8.350000e-01 3.529814e-06
8.360000e-01 3.572486e-06
8.370000e-01 3.635733e-06
8.380001e-01 3.711897e-06
8.390000e-01 3.793308e-06
8.400000e-01 3.877023e-06
8.410000e-01 3.965314e-06
8.420001e-01 4.061463e-06
8.430001e-01 4.164493e-06
8.440000e-01 4.267385e-06
8.450000e-01 4.360410e-06
8.460000e-01 4.436852e-06
8.470001e-01 4.496337e-06
8.480000e-01 4.543005e-06
8.490000e-01 4.580118e-06
8.500000e-01 4.605688e-06
8.510001e-01 4.612788e-06
8.520001e-01 4.594264e-06
8.530000e-01 4.547837e-06
8.540000e-01 4.477409e-06
8.550000e-01 4.389629e-06
8.560001e-01 4.288786e-06
8.570001e-01 4.174341e-06
8.580000e-01 4.043020e-06
8.590000e-01 3.893423e-06
8.600000e-01 3.729076e-06
8.610001e-01 3.557342e-06
8.620000e-01 3.385292e-06
8.630000e-01 3.216184e-06
8.640000e-01 3.049532e-06
8.650001e-01 2.884520e-06
8.660001e-01 2.723606e-06
8.670000e-01 2.573104e-06
8.680000e-01 2.440249e-06
8.690000e-01 2.329352e-06
8.700001e-01 2.240298e-06
8.710001e-01 2.170533e-06
8.720000e-01 2.118592e-06
8.730000e-01 2.086008e-06
8.740000e-01 2.076030e-06
8.750001e-01 2.090493e-06
8.760000e-01 2.127768e-06
8.770000e-01 2.183596e-06
8.780000e-01 2.253948e-06
8.790001e-01 2.337167e-06
