-1.200000e-01 0.000000e+00
-1.190000e-01 0.000000e+00
-1.180000e-01 0.000000e+00
-1.170000e-01 0.000000e+00
-1.160000e-01 0.000000e+00
-1.150000e-01 0.000000e+00
-1.140000e-01 0.000000e+00
-1.130000e-01 0.000000e+00
-1.120000e-01 0.000000e+00
-1.110000e-01 0.000000e+00
-1.100000e-01 0.000000e+00
-1.090000e-01 0.000000e+00
-1.080000e-01 0.000000e+00
-1.070000e-01 0.000000e+00
-1.060000e-01 0.000000e+00
-1.050000e-01 0.000000e+00
-1.040000e-01 0.000000e+00
-1.030000e-01 0.000000e+00
-1.020000e-01 0.000000e+00
-1.010000e-01 -1.905766e-43
-1.000000e-01 5.170791e-43
-9.900001e-02 6.355449e-41
-9.800000e-02 8.781839e-40
-9.700000e-02 6.492339e-39
-9.600000e-02 2.988951e-38
-9.500001e-02 7.852490e-38
-9.400000e-02 3.238048e-39
-9.300000e-02 -1.034977e-36
-9.200001e-02 -5.312805e-36
-9.100001e-02 -1.466395e-35
-9.000000e-02 -1.686741e-35
-8.900000e-02 5.073841e-35
-8.800000e-02 3.356097e-34
-8.700000e-02 9.500670e-34
-8.600000e-02 1.357807e-33
-8.500001e-02 -9.345737e-34
-8.400001e-02 -1.118949e-32
-8.300000e-02 -3.319171e-32
-8.200000e-02 -5.238244e-32
-8.100000e-02 -5.736883e-33
-8.000000e-02 2.301042e-31
-7.900000e-02 7.428090e-31
-7.800000e-02 1.265349e-30
-7.700001e-02 6.782674e-31
-7.600001e-02 -3.113419e-30
-7.500000e-02 -1.165202e-29
-7.400000e-02 -2.143970e-29
-7.300000e-02 -1.758431e-29
-7.200000e-02 2.729476e-29
-7.100000e-02 1.348127e-28
-7.000001e-02 2.713485e-28
-6.900001e-02 2.822181e-28
-6.800000e-02 -1.189773e-28
-6.700000e-02 -1.179643e-27
-6.600000e-02 -2.665191e-27
-6.500000e-02 -3.287168e-27
-6.400000e-02 -5.848764e-28
-6.300000e-02 7.791175e-27
-6.200000e-02 2.077686e-26
-6.100000e-02 2.963765e-26
-6.000000e-02 1.670804e-26
-5.900000e-02 -3.674773e-26
-5.800000e-02 -1.297062e-25
-5.700000e-02 -2.138648e-25
-5.600000e-02 -1.821642e-25
-5.500000e-02 9.207353e-26
-5.400001e-02 6.429357e-25
-5.300000e-02 1.256158e-24
-5.200000e-02 1.381919e-24
-5.100000e-02 2.886996e-25
-5.000000e-02 -2.419092e-24
-4.900000e-02 -6.026211e-24
-4.800000e-02 -8.149722e-24
-4.700000e-02 -5.166160e-24
-4.600000e-02 5.756260e-24
-4.500000e-02 2.326695e-23
-4.400000e-02 3.880578e-23
-4.300000e-02 3.697346e-23
-4.200000e-02 2.174990e-24
-4.100000e-02 -6.837225e-23
-4.000000e-02 -1.504708e-22
-3.900000e-02 -1.883212e-22
-3.800000e-02 -1.115050e-22
-3.700000e-02 1.216367e-22
-3.600000e-02 4.664753e-22
-3.500000e-02 7.538407e-22
-3.400000e-02 7.165467e-22
-3.300000e-02 1.127083e-22
-3.200000e-02 -1.070882e-21
-3.100000e-02 -2.426264e-21
-3.000000e-02 -3.096492e-21
-2.900000e-02 -2.060927e-21
-2.800000e-02 1.239950e-21
-2.700000e-02 6.148881e-21
-2.600000e-02 1.036819e-20
-2.500000e-02 1.042430e-20
-2.400000e-02 3.318338e-21
-2.300000e-02 -1.100708e-20
-2.200000e-02 -2.761496e-20
-2.100000e-02 -3.669793e-20
-2.000000e-02 -2.722226e-20
-1.900000e-02 6.248325e-21
-1.800000e-02 5.638568e-20
-1.700000e-02 1.003829e-19
-1.600000e-02 1.061560e-19
-1.500000e-02 4.823606e-20
-1.400000e-02 -7.210025e-20
-1.300000e-02 -2.135827e-19
-1.200000e-02 -3.006000e-19
-1.100000e-02 -2.530619e-19
-9.999998e-03 -3.270315e-20
-8.999996e-03 3.153483e-19
-8.000001e-03 6.522054e-19
-6.999999e-03 7.837612e-19
-5.999997e-03 5.442777e-19
-5.000003e-03 -1.039781e-19
-4.000001e-03 -1.000031e-18
-2.999999e-03 -1.785299e-18
-1.999997e-03 -1.999032e-18
-1.000002e-03 -1.259239e-18
0.000000e+00 5.141835e-19
1.000002e-03 2.910724e-18
2.000004e-03 4.979274e-18
2.999999e-03 5.426740e-18
4.000001e-03 3.125053e-18
4.999995e-03 -2.151239e-18
5.999997e-03 -9.046228e-18
6.999999e-03 -1.447776e-17
8.000001e-03 -1.448532e-17
9.000003e-03 -6.158625e-18
1.000001e-02 9.964414e-18
1.100001e-02 2.835441e-17
1.199999e-02 3.931404e-17
1.300000e-02 3.288978e-17
1.400000e-02 4.862290e-18
1.500000e-02 -3.809110e-17
1.600000e-02 -7.774839e-17
1.700000e-02 -9.050112e-17
1.800001e-02 -5.910785e-17
1.900001e-02 1.517794e-17
2.000000e-02 1.072938e-16
2.100000e-02 1.750046e-16
2.200000e-02 1.767633e-16
2.300000e-02 9.328799e-17
2.400000e-02 -5.816497e-17
2.500001e-02 -2.252601e-16
2.600001e-02 -3.384225e-16
2.700000e-02 -3.373110e-16
2.800000e-02 -1.945833e-16
2.900000e-02 7.106910e-17
3.000000e-02 3.937304e-16
3.100000e-02 6.680800e-16
3.200001e-02 7.664277e-16
3.300001e-02 5.716822e-16
3.400001e-02 3.271903e-17
3.500000e-02 -7.670447e-16
3.600000e-02 -1.564353e-15
3.700000e-02 -1.949290e-15
3.800000e-02 -1.515711e-15
3.900000e-02 -1.048596e-16
4.000001e-02 1.967846e-15
4.100001e-02 3.865610e-15
4.200000e-02 4.485657e-15
4.300000e-02 2.992569e-15
4.400000e-02 -5.914128e-16
4.500000e-02 -5.085261e-15
4.600000e-02 -8.423803e-15
4.700001e-02 -8.528066e-15
4.800001e-02 -4.431354e-15
4.900001e-02 2.922082e-15
5.000000e-02 1.073004e-14
5.100000e-02 1.537297e-14
5.200000e-02 1.404333e-14
5.300000e-02 6.191624e-15
5.400001e-02 -5.948752e-15
5.500001e-02 -1.804636e-14
5.600001e-02 -2.524945e-14
5.700000e-02 -2.394720e-14
5.800000e-02 -1.304830e-14
5.900000e-02 5.505250e-15
6.000000e-02 2.689322e-14
6.100000e-02 4.409730e-14
6.200001e-02 4.923943e-14
6.300001e-02 3.592144e-14
6.400001e-02 2.559317e-15
6.500000e-02 -4.431335e-14
6.600000e-02 -8.890981e-14
6.700000e-02 -1.095139e-13
6.800000e-02 -8.695142e-14
6.900001e-02 -1.579870e-14
7.000001e-02 8.710531e-14
7.100001e-02 1.830121e-13
7.200000e-02 2.236804e-13
7.300000e-02 1.730075e-13
7.400000e-02 2.879621e-14
7.500000e-02 -1.670229e-13
7.600001e-02 -3.379113e-13
7.700001e-02 -4.013544e-13
7.800001e-02 -3.059065e-13
7.900001e-02 -6.006187e-14
8.000000e-02 2.616699e-13
8.100000e-02 5.406927e-13
8.200000e-02 6.571073e-13
8.300000e-02 5.369941e-13
8.400001e-02 1.860037e-13
8.500001e-02 -3.032897e-13
8.600001e-02 -7.732794e-13
8.700001e-02 -1.046604e-12
8.800000e-02 -9.833472e-13
8.900000e-02 -5.359577e-13
9.000000e-02 2.138544e-13
9.100001e-02 1.052439e-12
9.200001e-02 1.678361e-12
9.300001e-02 1.794421e-12
9.400001e-02 1.228326e-12
9.500000e-02 4.032506e-14
9.600000e-02 -1.435772e-12
9.700000e-02 -2.660224e-12
9.800000e-02 -3.066949e-12
9.900001e-02 -2.304081e-12
1.000000e-01 -4.394523e-13
1.010000e-01 1.973761e-12
1.020000e-01 4.034220e-12
1.030000e-01 4.813221e-12
1.040000e-01 3.750266e-12
1.050000e-01 9.603778e-13
1.060000e-01 -2.697181e-12
1.070000e-01 -5.856305e-12
1.080000e-01 -7.131616e-12
1.090000e-01 -5.686895e-12
1.100000e-01 -1.661355e-12
1.110000e-01 3.736545e-12
1.120000e-01 8.546751e-12
1.130000e-01 1.071507e-11
1.140000e-01 8.882926e-12
1.150000e-01 3.030432e-12
1.160000e-01 -5.285892e-12
1.170000e-01 -1.324778e-11
1.180000e-01 -1.761527e-11
1.190000e-01 -1.587636e-11
1.200000e-01 -7.344457e-12
1.210000e-01 6.207368e-12
1.220000e-01 2.070175e-11
1.230000e-01 3.080883e-11
1.240000e-01 3.169055e-11
1.250000e-01 2.092524e-11
1.260000e-01 -8.426072e-14
1.270000e-01 -2.586998e-11
1.280000e-01 -4.815728e-11
1.290000e-01 -5.842737e-11
1.300000e-01 -5.102672e-11
1.310000e-01 -2.570134e-11
1.320000e-01 1.153535e-11
1.330000e-01 4.980099e-11
1.340000e-01 7.678280e-11
1.350000e-01 8.312768e-11
1.360000e-01 6.615837e-11
1.370000e-01 3.135429e-11
1.380000e-01 -9.248699e-12
1.390000e-01 -4.143690e-11
1.400000e-01 -5.451682e-11
1.410000e-01 -4.617605e-11
1.420000e-01 -2.442958e-11
1.430000e-01 -5.467262e-12
1.440000e-01 -7.652943e-12
1.450000e-01 -4.341896e-11
1.460000e-01 -1.118231e-10
1.470000e-01 -1.946975e-10
1.480000e-01 -2.584911e-10
1.490000e-01 -2.622696e-10
1.500000e-01 -1.703315e-10
1.510000e-01 3.387304e-11
1.520000e-01 3.367840e-10
1.530000e-01 6.907012e-10
1.540000e-01 1.019038e-09
1.550000e-01 1.230634e-09
1.560000e-01 1.240071e-09
1.570000e-01 9.888493e-10
1.580000e-01 4.616698e-10
1.590000e-01 -3.065758e-10
1.600000e-01 -1.234583e-09
1.610000e-01 -2.207095e-09
1.620000e-01 -3.091143e-09
1.630000e-01 -3.750280e-09
1.640000e-01 -4.052659e-09
1.650000e-01 -3.872521e-09
1.660000e-01 -3.089036e-09
1.670000e-01 -1.589676e-09
1.680000e-01 7.143075e-10
1.690000e-01 3.855757e-09
1.700000e-01 7.764143e-09
1.710000e-01 1.221073e-08
1.720000e-01 1.675942e-08
1.730000e-01 2.073738e-08
1.740000e-01 2.323602e-08
1.750000e-01 2.314486e-08
1.760000e-01 1.921125e-08
1.770000e-01 1.010982e-08
1.780000e-01 -5.498708e-09
1.790000e-01 -2.893943e-08
1.800000e-01 -6.153947e-08
1.810000e-01 -1.046925e-07
1.820000e-01 -1.599650e-07
1.830000e-01 -2.292302e-07
1.840000e-01 -3.148128e-07
1.850000e-01 -4.196296e-07
1.860000e-01 -5.473213e-07
1.870000e-01 -7.023791e-07
1.880000e-01 -8.902794e-07
1.890000e-01 -1.117647e-06
1.900000e-01 -1.392463e-06
1.910000e-01 -1.724332e-06
1.920000e-01 -2.124806e-06
1.930000e-01 -2.607751e-06
1.940000e-01 -3.189745e-06
1.950000e-01 -3.890489e-06
1.960000e-01 -4.733206e-06
1.970000e-01 -5.745063e-06
1.980000e-01 -6.957606e-06
1.990000e-01 -8.407276e-06
2.000000e-01 -1.013602e-05
2.010000e-01 -1.219207e-05
2.020000e-01 -1.463082e-05
2.030000e-01 -1.751592e-05
2.040000e-01 -2.092047e-05
2.050000e-01 -2.492826e-05
2.060000e-01 -2.963506e-05
2.070000e-01 -3.514999e-05
2.080000e-01 -4.159681e-05
2.090000e-01 -4.911531e-05
2.100000e-01 -5.786272e-05
2.110000e-01 -6.801524e-05
2.120000e-01 -7.976971e-05
2.130000e-01 -9.334530e-05
2.140000e-01 -1.089854e-04
2.150000e-01 -1.269592e-04
2.160000e-01 -1.475638e-04
2.170000e-01 -1.711253e-04
2.180000e-01 -1.980007e-04
2.190000e-01 -2.285786e-04
2.200000e-01 -2.632803e-04
2.210000e-01 -3.025606e-04
2.220000e-01 -3.469080e-04
2.230000e-01 -3.968447e-04
2.240000e-01 -4.529264e-04
2.250000e-01 -5.157414e-04
2.260000e-01 -5.859091e-04
2.270000e-01 -6.640779e-04
2.280000e-01 -7.509221e-04
2.290000e-01 -8.471381e-04
2.300000e-01 -9.534394e-04
2.310000e-01 -1.070551e-03
2.320000e-01 -1.199203e-03
2.330000e-01 -1.340120e-03
2.340000e-01 -1.494017e-03
2.350000e-01 -1.661585e-03
2.360000e-01 -1.843481e-03
2.370000e-01 -2.040318e-03
2.380000e-01 -2.252650e-03
2.390000e-01 -2.480960e-03
2.400000e-01 -2.725639e-03
2.410000e-01 -2.986980e-03
2.420000e-01 -3.265150e-03
2.430000e-01 -3.560184e-03
2.440000e-01 -3.871957e-03
2.450000e-01 -4.200175e-03
2.460000e-01 -4.544357e-03
2.470000e-01 -4.903816e-03
2.480000e-01 -5.277646e-03
2.490000e-01 -5.664710e-03
2.500000e-01 -6.063626e-03
2.510000e-01 -6.472759e-03
2.520000e-01 -6.890209e-03
2.530000e-01 -7.313808e-03
2.540000e-01 -7.741118e-03
2.550000e-01 -8.169430e-03
2.560000e-01 -8.595774e-03
2.570000e-01 -9.016924e-03
2.580000e-01 -9.429413e-03
2.590000e-01 -9.829553e-03
2.600000e-01 -1.021345e-02
2.610000e-01 -1.057705e-02
2.620000e-01 -1.091615e-02
2.630000e-01 -1.122644e-02
2.640000e-01 -1.150355e-02
2.650000e-01 -1.174308e-02
2.660000e-01 -1.194067e-02
2.670000e-01 -1.209204e-02
2.680000e-01 -1.219303e-02
2.690000e-01 -1.223967e-02
2.700000e-01 -1.222824e-02
2.710000e-01 -1.215530e-02
2.720000e-01 -1.201781e-02
2.730000e-01 -1.181310e-02
2.740000e-01 -1.153899e-02
2.750000e-01 -1.119380e-02
2.760000e-01 -1.077643e-02
2.770000e-01 -1.028634e-02
2.780000e-01 -9.723678e-03
2.790000e-01 -9.089218e-03
2.800000e-01 -8.384433e-03
2.810000e-01 -7.611488e-03
2.820000e-01 -6.773248e-03
2.830000e-01 -5.873271e-03
2.840000e-01 -4.915796e-03
2.850000e-01 -3.905719e-03
2.860000e-01 -2.848556e-03
2.870000e-01 -1.750407e-03
2.880000e-01 -6.178929e-04
2.890000e-01 5.418911e-04
2.900000e-01 1.721448e-03
2.910000e-01 2.912951e-03
2.920000e-01 4.108320e-03
2.930000e-01 5.299309e-03
2.940000e-01 6.477598e-03
2.950000e-01 7.634877e-03
2.960000e-01 8.762938e-03
2.970000e-01 9.853765e-03
2.980000e-01 1.089962e-02
2.990000e-01 1.189315e-02
3.000000e-01 1.282741e-02
3.010000e-01 1.369602e-02
3.020000e-01 1.449317e-02
3.030000e-01 1.521371e-02
3.040000e-01 1.585320e-02
3.050000e-01 1.640793e-02
3.060000e-01 1.687500e-02
3.070000e-01 1.725231e-02
3.080000e-01 1.753856e-02
3.090000e-01 1.773331e-02
3.100000e-01 1.783689e-02
3.110000e-01 1.785045e-02
3.120000e-01 1.777590e-02
3.130000e-01 1.761588e-02
3.140000e-01 1.737371e-02
3.150000e-01 1.705335e-02
3.160000e-01 1.665931e-02
3.170000e-01 1.619663e-02
3.180000e-01 1.567077e-02
3.190000e-01 1.508755e-02
3.200000e-01 1.445309e-02
3.210000e-01 1.377372e-02
3.220000e-01 1.305591e-02
3.230000e-01 1.230617e-02
3.240000e-01 1.153103e-02
3.250000e-01 1.073691e-02
3.260000e-01 9.930122e-03
3.270000e-01 9.116751e-03
3.280000e-01 8.302640e-03
3.290000e-01 7.493327e-03
3.300000e-01 6.694002e-03
3.310000e-01 5.909471e-03
3.320000e-01 5.144130e-03
3.330000e-01 4.401941e-03
3.340000e-01 3.686424e-03
3.350000e-01 3.000645e-03
3.360000e-01 2.347210e-03
3.370000e-01 1.728272e-03
3.380000e-01 1.145536e-03
3.390000e-01 6.002760e-04
3.400000e-01 9.335089e-05
3.410000e-01 -3.747710e-04
3.420000e-01 -8.039887e-04
3.430000e-01 -1.194541e-03
3.440000e-01 -1.546978e-03
3.450000e-01 -1.862130e-03
3.460000e-01 -2.141072e-03
3.470000e-01 -2.385095e-03
3.480000e-01 -2.595673e-03
3.490000e-01 -2.774432e-03
3.500000e-01 -2.923121e-03
3.510000e-01 -3.043582e-03
3.520000e-01 -3.137721e-03
3.530000e-01 -3.207481e-03
3.540000e-01 -3.254822e-03
3.550000e-01 -3.281696e-03
3.560000e-01 -3.290033e-03
3.570000e-01 -3.281716e-03
3.580000e-01 -3.258573e-03
3.590000e-01 -3.222356e-03
3.600000e-01 -3.174733e-03
3.610000e-01 -3.117287e-03
3.620000e-01 -3.051504e-03
3.630000e-01 -2.978777e-03
3.640000e-01 -2.900396e-03
3.650000e-01 -2.817547e-03
3.660000e-01 -2.731312e-03
3.670000e-01 -2.642664e-03
3.680000e-01 -2.552478e-03
3.690000e-01 -2.461532e-03
3.700000e-01 -2.370515e-03
3.710000e-01 -2.280030e-03
3.720000e-01 -2.190599e-03
3.730000e-01 -2.102664e-03
3.740000e-01 -2.016598e-03
3.750000e-01 -1.932709e-03
3.760000e-01 -1.851245e-03
3.770000e-01 -1.772400e-03
3.780000e-01 -1.696316e-03
3.790000e-01 -1.623093e-03
3.800000e-01 -1.552790e-03
3.810000e-01 -1.485434e-03
3.820000e-01 -1.421026e-03
3.830000e-01 -1.359544e-03
3.840000e-01 -1.300949e-03
3.850000e-01 -1.245182e-03
3.860000e-01 -1.192171e-03
3.870000e-01 -1.141830e-03
3.880000e-01 -1.094065e-03
3.890000e-01 -1.048776e-03
3.900000e-01 -1.005860e-03
3.910000e-01 -9.652061e-04
3.920000e-01 -9.267062e-04
3.930000e-01 -8.902515e-04
3.940000e-01 -8.557365e-04
3.950000e-01 -8.230591e-04
3.960000e-01 -7.921199e-04
3.970000e-01 -7.628206e-04
3.980000e-01 -7.350640e-04
3.990000e-01 -7.087563e-04
4.000000e-01 -6.838087e-04
4.010000e-01 -6.601392e-04
4.020000e-01 -6.376712e-04
4.030000e-01 -6.163309e-04
4.040000e-01 -5.960464e-04
4.050000e-01 -5.767478e-04
4.060000e-01 -5.583700e-04
4.070000e-01 -5.408560e-04
4.080000e-01 -5.241564e-04
4.090000e-01 -5.082267e-04
4.100000e-01 -4.930233e-04
4.110000e-01 -4.785006e-04
4.120000e-01 -4.646124e-04
4.130000e-01 -4.513145e-04
4.140000e-01 -4.385687e-04
4.150000e-01 -4.263432e-04
4.160000e-01 -4.146106e-04
4.170000e-01 -4.033454e-04
4.180000e-01 -3.925217e-04
4.190000e-01 -3.821139e-04
4.200000e-01 -3.720983e-04
4.210000e-01 -3.624540e-04
4.220001e-01 -3.531622e-04
4.230000e-01 -3.442045e-04
4.240000e-01 -3.355611e-04
4.250000e-01 -3.272111e-04
4.260000e-01 -3.191346e-04
4.270000e-01 -3.113135e-04
4.280000e-01 -3.037321e-04
4.290000e-01 -2.963757e-04
4.300000e-01 -2.892292e-04
4.310000e-01 -2.822765e-04
4.320000e-01 -2.755008e-04
4.330000e-01 -2.688853e-04
4.340000e-01 -2.624118e-04
4.350000e-01 -2.560598e-04
4.360000e-01 -2.498055e-04
4.370000e-01 -2.436231e-04
4.380000e-01 -2.374876e-04
4.390000e-01 -2.313767e-04
4.400000e-01 -2.252709e-04
4.410000e-01 -2.191503e-04
4.420000e-01 -2.129909e-04
4.430000e-01 -2.067622e-04
4.440000e-01 -2.004282e-04
4.450000e-01 -1.939506e-04
4.460000e-01 -1.872916e-04
4.470000e-01 -1.804141e-04
4.480000e-01 -1.732787e-04
4.490000e-01 -1.658417e-04
4.500000e-01 -1.580536e-04
4.510000e-01 -1.498623e-04
4.520000e-01 -1.412155e-04
4.530000e-01 -1.320618e-04
4.540000e-01 -1.223489e-04
4.550000e-01 -1.120193e-04
4.560000e-01 -1.010083e-04
4.570000e-01 -8.924407e-05
4.580000e-01 -7.665165e-05
4.590001e-01 -6.315651e-05
4.600000e-01 -4.868626e-05
4.610000e-01 -3.316950e-05
4.620000e-01 -1.653399e-05
4.630000e-01 1.293965e-06
4.640000e-01 2.038781e-05
4.650000e-01 4.081846e-05
4.660000e-01 6.265321e-05
4.670000e-01 8.595676e-05
4.680000e-01 1.107928e-04
4.690000e-01 1.372241e-04
4.700000e-01 1.653088e-04
4.710000e-01 1.950960e-04
4.720000e-01 2.266214e-04
4.730000e-01 2.599065e-04
4.740000e-01 2.949606e-04
4.750000e-01 3.317829e-04
4.760000e-01 3.703631e-04
4.770000e-01 4.106779e-04
4.780000e-01 4.526879e-04
4.790000e-01 4.963353e-04
4.800000e-01 5.415439e-04
4.810000e-01 5.882211e-04
4.820001e-01 6.362580e-04
4.830000e-01 6.855283e-04
4.840000e-01 7.358843e-04
4.850000e-01 7.871561e-04
4.860000e-01 8.391525e-04
4.870000e-01 8.916649e-04
4.880000e-01 9.444702e-04
4.890000e-01 9.973322e-04
4.900000e-01 1.050000e-03
4.910000e-01 1.102205e-03
4.920000e-01 1.153663e-03
4.930000e-01 1.204078e-03
4.940000e-01 1.253147e-03
4.950000e-01 1.300563e-03
4.960001e-01 1.346019e-03
4.970000e-01 1.389204e-03
4.980000e-01 1.429809e-03
4.990000e-01 1.467523e-03
5.000000e-01 1.502043e-03
5.010000e-01 1.533080e-03
5.020000e-01 1.560360e-03
5.030000e-01 1.583624e-03
5.040000e-01 1.602633e-03
5.050000e-01 1.617167e-03
5.060000e-01 1.627030e-03
5.070000e-01 1.632055e-03
5.080000e-01 1.632109e-03
5.090000e-01 1.627088e-03
5.100001e-01 1.616918e-03
5.110000e-01 1.601554e-03
5.120000e-01 1.580985e-03
5.130000e-01 1.555233e-03
5.140000e-01 1.524363e-03
5.150000e-01 1.488479e-03
5.160000e-01 1.447723e-03
5.170000e-01 1.402271e-03
5.180000e-01 1.352327e-03
5.190001e-01 1.298128e-03
5.200000e-01 1.239936e-03
5.210000e-01 1.178044e-03
5.220000e-01 1.112768e-03
5.230000e-01 1.044446e-03
5.240000e-01 9.734323e-04
5.250000e-01 9.000955e-04
5.260000e-01 8.248196e-04
5.270000e-01 7.480017e-04
5.280000e-01 6.700482e-04
5.290000e-01 5.913675e-04
5.300000e-01 5.123641e-04
5.310000e-01 4.334331e-04
5.320000e-01 3.549578e-04
5.330001e-01 2.773092e-04
5.340000e-01 2.008443e-04
5.350000e-01 1.259030e-04
5.360000e-01 5.280504e-05
5.370000e-01 -1.815218e-05
5.380000e-01 -8.669423e-05
5.390000e-01 -1.525696e-04
5.400000e-01 -2.155510e-04
5.410000e-01 -2.754383e-04
5.420001e-01 -3.320625e-04
5.430000e-01 -3.852880e-04
5.440000e-01 -4.350118e-04
5.450000e-01 -4.811606e-04
5.460000e-01 -5.236878e-04
5.470001e-01 -5.625711e-04
5.480000e-01 -5.978132e-04
5.490000e-01 -6.294412e-04
5.500000e-01 -6.575057e-04
5.510000e-01 -6.820774e-04
5.520000e-01 -7.032441e-04
5.530000e-01 -7.211092e-04
5.540000e-01 -7.357913e-04
5.550000e-01 -7.474259e-04
5.560001e-01 -7.561638e-04
5.570000e-01 -7.621674e-04
5.580000e-01 -7.656057e-04
5.590000e-01 -7.666498e-04
5.600000e-01 -7.654713e-04
5.610000e-01 -7.622424e-04
5.620000e-01 -7.571365e-04
5.630000e-01 -7.503266e-04
5.640000e-01 -7.419823e-04
5.650001e-01 -7.322672e-04
5.660000e-01 -7.213377e-04
5.670000e-01 -7.093445e-04
5.680000e-01 -6.964345e-04
5.690000e-01 -6.827508e-04
5.700001e-01 -6.684302e-04
5.710000e-01 -6.536006e-04
5.720000e-01 -6.383777e-04
5.730000e-01 -6.228670e-04
5.740000e-01 -6.071648e-04
5.750000e-01 -5.913611e-04
5.760000e-01 -5.755384e-04
5.770000e-01 -5.597704e-04
5.780000e-01 -5.441204e-04
5.790001e-01 -5.286423e-04
5.800000e-01 -5.133841e-04
5.810000e-01 -4.983917e-04
5.820000e-01 -4.837090e-04
5.830000e-01 -4.693762e-04
5.840001e-01 -4.554253e-04
5.850000e-01 -4.418786e-04
5.860000e-01 -4.287497e-04
5.870000e-01 -4.160471e-04
5.880000e-01 -4.037778e-04
5.890000e-01 -3.919473e-04
5.900000e-01 -3.805583e-04
5.910000e-01 -3.696087e-04
5.920000e-01 -3.590916e-04
5.930001e-01 -3.489976e-04
5.940000e-01 -3.393184e-04
5.950000e-01 -3.300471e-04
5.960000e-01 -3.211774e-04
5.970000e-01 -3.126997e-04
5.980000e-01 -3.045998e-04
5.990000e-01 -2.968590e-04
6.000000e-01 -2.894566e-04
6.010000e-01 -2.823731e-04
6.020001e-01 -2.755901e-04
6.030000e-01 -2.690901e-04
6.040000e-01 -2.628553e-04
6.050000e-01 -2.568678e-04
6.060000e-01 -2.511117e-04
6.070001e-01 -2.455744e-04
6.080000e-01 -2.402458e-04
6.090000e-01 -2.351170e-04
6.100000e-01 -2.301769e-04
6.110000e-01 -2.254117e-04
6.120000e-01 -2.208064e-04
6.130000e-01 -2.163475e-04
6.140000e-01 -2.120246e-04
6.150000e-01 -2.078307e-04
6.160001e-01 -2.037603e-04
6.170000e-01 -1.998079e-04
6.180000e-01 -1.959684e-04
6.190000e-01 -1.922389e-04
6.200000e-01 -1.886192e-04
6.210001e-01 -1.851118e-04
6.220000e-01 -1.817189e-04
6.230000e-01 -1.784398e-04
6.240000e-01 -1.752699e-04
6.250001e-01 -1.722030e-04
6.260000e-01 -1.692335e-04
6.270000e-01 -1.663586e-04
6.280000e-01 -1.635780e-04
6.290000e-01 -1.608922e-04
6.300001e-01 -1.583002e-04
6.310000e-01 -1.557996e-04
6.320000e-01 -1.533876e-04
6.330000e-01 -1.510622e-04
6.340000e-01 -1.488218e-04
6.350001e-01 -1.466641e-04
6.360000e-01 -1.445834e-04
6.370000e-01 -1.425709e-04
6.380000e-01 -1.406158e-04
6.390001e-01 -1.387083e-04
6.400000e-01 -1.368410e-04
6.410000e-01 -1.350102e-04
6.420000e-01 -1.332139e-04
6.430000e-01 -1.314505e-04
6.440001e-01 -1.297179e-04
6.450000e-01 -1.280134e-04
6.460000e-01 -1.263338e-04
6.470000e-01 -1.246759e-04
6.480000e-01 -1.230363e-04
6.490000e-01 -1.214116e-04
6.500000e-01 -1.197987e-04
6.510000e-01 -1.181964e-04
6.520000e-01 -1.166048e-04
6.530001e-01 -1.150262e-04
6.540000e-01 -1.134638e-04
6.550000e-01 -1.119212e-04
6.560000e-01 -1.104028e-04
6.570000e-01 -1.089135e-04
6.580001e-01 -1.074589e-04
6.590000e-01 -1.060436e-04
6.600000e-01 -1.046707e-04
6.610000e-01 -1.033403e-04
6.620001e-01 -1.020509e-04
6.630000e-01 -1.008009e-04
6.640000e-01 -9.959083e-05
6.650000e-01 -9.842351e-05
6.660000e-01 -9.730287e-05
6.670001e-01 -9.623189e-05
6.680000e-01 -9.521130e-05
6.690000e-01 -9.423980e-05
6.700000e-01 -9.331527e-05
6.710000e-01 -9.243545e-05
6.720001e-01 -9.159750e-05
6.730000e-01 -9.079657e-05
6.740000e-01 -9.002489e-05
6.750000e-01 -8.927249e-05
6.760001e-01 -8.852953e-05
6.770000e-01 -8.778865e-05
6.780000e-01 -8.704593e-05
6.790000e-01 -8.629983e-05
6.800000e-01 -8.554912e-05
6.810001e-01 -8.479127e-05
6.820000e-01 -8.402241e-05
6.830000e-01 -8.323835e-05
6.840000e-01 -8.243564e-05
6.850001e-01 -8.161158e-05
6.860000e-01 -8.076353e-05
6.870000e-01 -7.988852e-05
6.880000e-01 -7.898391e-05
6.890000e-01 -7.804900e-05
6.900001e-01 -7.708645e-05
6.910000e-01 -7.610235e-05
6.920000e-01 -7.510486e-05
6.930000e-01 -7.410230e-05
6.940000e-01 -7.310194e-05
6.950001e-01 -7.211000e-05
6.960000e-01 -7.113225e-05
6.970000e-01 -7.017433e-05
6.980000e-01 -6.924133e-05
6.990001e-01 -6.833704e-05
7.000000e-01 -6.746389e-05
7.010000e-01 -6.662395e-05
7.020000e-01 -6.582033e-05
7.030000e-01 -6.505801e-05
7.040001e-01 -6.434327e-05
7.050000e-01 -6.368211e-05
7.060000e-01 -6.307872e-05
7.070000e-01 -6.253494e-05
7.080001e-01 -6.205065e-05
7.090001e-01 -6.162424e-05
7.100000e-01 -6.125257e-05
7.110000e-01 -6.093026e-05
7.120000e-01 -6.064938e-05
7.130001e-01 -6.040030e-05
7.140000e-01 -6.017361e-05
7.150000e-01 -5.996198e-05
7.160000e-01 -5.976071e-05
7.170000e-01 -5.956659e-05
7.180001e-01 -5.937610e-05
7.190000e-01 -5.918429e-05
7.200000e-01 -5.898506e-05
7.210000e-01 -5.877226e-05
7.220001e-01 -5.854038e-05
7.230000e-01 -5.828402e-05
7.240000e-01 -5.799678e-05
7.250000e-01 -5.767086e-05
7.260000e-01 -5.729842e-05
7.270001e-01 -5.687421e-05
7.280000e-01 -5.639774e-05
7.290000e-01 -5.587344e-05
7.300000e-01 -5.530842e-05
7.310000e-01 -5.470953e-05
7.320001e-01 -5.408148e-05
7.330000e-01 -5.342720e-05
7.340000e-01 -5.274966e-05
7.350000e-01 -5.205334e-05
7.360001e-01 -5.134421e-05
7.370000e-01 -5.062835e-05
7.380000e-01 -4.991070e-05
7.390000e-01 -4.919528e-05
7.400000e-01 -4.848671e-05
7.410001e-01 -4.779184e-05
7.420000e-01 -4.711995e-05
7.430000e-01 -4.648126e-05
7.440000e-01 -4.588470e-05
7.450001e-01 -4.533639e-05
7.460001e-01 -4.483973e-05
7.470000e-01 -4.439634e-05
7.480000e-01 -4.400697e-05
7.490000e-01 -4.367141e-05
7.500001e-01 -4.338791e-05
7.510000e-01 -4.315304e-05
7.520000e-01 -4.296247e-05
7.530000e-01 -4.281221e-05
7.540000e-01 -4.269931e-05
7.550001e-01 -4.262134e-05
7.560000e-01 -4.257515e-05
7.570000e-01 -4.255598e-05
7.580000e-01 -4.255779e-05
7.590001e-01 -4.257422e-05
7.600001e-01 -4.259932e-05
7.610000e-01 -4.262682e-05
7.620000e-01 -4.264867e-05
7.630000e-01 -4.265439e-05
7.640001e-01 -4.263223e-05
7.650000e-01 -4.257223e-05
7.660000e-01 -4.246903e-05
7.670000e-01 -4.232252e-05
7.680001e-01 -4.213572e-05
7.690001e-01 -4.191121e-05
7.700000e-01 -4.164891e-05
7.710000e-01 -4.134649e-05
7.720000e-01 -4.100190e-05
7.730001e-01 -4.061569e-05
7.740000e-01 -4.019134e-05
7.750000e-01 -3.973330e-05
7.760000e-01 -3.924484e-05
7.770000e-01 -3.872759e-05
7.780001e-01 -3.818348e-05
7.790000e-01 -3.761750e-05
7.800000e-01 -3.703892e-05
7.810000e-01 -3.645982e-05
7.820001e-01 -3.589189e-05
7.830001e-01 -3.534376e-05
7.840000e-01 -3.482053e-05
7.850000e-01 -3.432538e-05
7.860000e-01 -3.386160e-05
7.870001e-01 -3.343331e-05
7.880000e-01 -3.304448e-05
7.890000e-01 -3.269767e-05
7.900000e-01 -3.239370e-05
7.910001e-01 -3.213271e-05
7.920001e-01 -3.191550e-05
7.930000e-01 -3.174376e-05
7.940000e-01 -3.161888e-05
7.950000e-01 -3.154027e-05
7.960001e-01 -3.150470e-05
7.970001e-01 -3.150715e-05
7.980000e-01 -3.154221e-05
7.990000e-01 -3.160466e-05
8.000000e-01 -3.168857e-05
8.010001e-01 -3.178608e-05
8.020000e-01 -3.188737e-05
8.030000e-01 -3.198252e-05
8.040000e-01 -3.206428e-05
8.050001e-01 -3.212943e-05
8.060001e-01 -3.217755e-05
8.070000e-01 -3.220782e-05
8.080000e-01 -3.221648e-05
8.090000e-01 -3.219700e-05
8.100001e-01 -3.214284e-05
8.110000e-01 -3.205048e-05
8.120000e-01 -3.192024e-05
8.130000e-01 -3.175396e-05
8.140000e-01 -3.155175e-05
8.150001e-01 -3.131069e-05
8.160000e-01 -3.102701e-05
8.170000e-01 -3.070013e-05
8.180000e-01 -3.033553e-05
8.190001e-01 -2.994370e-05
8.200001e-01 -2.953600e-05
8.210000e-01 -2.912030e-05
8.220000e-01 -2.869970e-05
8.230000e-01 -2.827495e-05
8.240001e-01 -2.784822e-05
8.250000e-01 -2.742498e-05
8.260000e-01 -2.701241e-05
8.270000e-01 -2.661600e-05
8.280001e-01 -2.623745e-05
8.290001e-01 -2.587592e-05
8.300000e-01 -2.553168e-05
8.310000e-01 -2.520898e-05
8.320000e-01 -2.491567e-05
8.330001e-01 -2.465962e-05
8.340001e-01 -2.444471e-05
8.350000e-01 -2.426960e-05
8.360000e-01 -2.412986e-05
8.370000e-01 -2.402153e-05
8.380001e-01 -2.394298e-05
8.390000e-01 -2.389379e-05
8.400000e-01 -2.387195e-05
8.410000e-01 -2.387238e-05
8.420001e-01 -2.388835e-05
8.430001e-01 -2.391488e-05
8.440000e-01 -2.395113e-05
8.450000e-01 -2.399959e-05
8.460000e-01 -2.406247e-05
8.470001e-01 -2.413830e-05
8.480000e-01 -2.422120e-05
8.490000e-01 -2.430356e-05
8.500000e-01 -2.437943e-05
8.510001e-01 -2.444609e-05
8.520001e-01 -2.450243e-05
8.530000e-01 -2.454619e-05
8.540000e-01 -2.457264e-05
8.550000e-01 -2.457638e-05
8.560001e-01 -2.455465e-05
8.570001e-01 -2.450927e-05
8.580000e-01 -2.444525e-05
8.590000e-01 -2.436709e-05
8.600000e-01 -2.427560e-05
8.610001e-01 -2.416798e-05
8.620000e-01 -2.404070e-05
8.630000e-01 -2.389266e-05
8.640000e-01 -2.372562e-05
8.650001e-01 -2.354158e-05
8.660001e-01 -2.333977e-05
8.670000e-01 -2.311624e-05
8.680000e-01 -2.286719e-05
8.690000e-01 -2.259350e-05
8.700001e-01 -2.230256e-05
8.710001e-01 -2.200549e-05
8.720000e-01 -2.171131e-05
8.730000e-01 -2.142249e-05
8.740000e-01 -2.113525e-05
8.750001e-01 -2.084433e-05
8.760000e-01 -2.054830e-05
8.770000e-01 -2.025129e-05
8.780000e-01 -1.995982e-05
8.790001e-01 -1.967783e-05
