-1.200000e-01 0.000000e+00
-1.190000e-01 0.000000e+00
-1.180000e-01 0.000000e+00
-1.170000e-01 0.000000e+00
-1.160000e-01 0.000000e+00
-1.150000e-01 0.000000e+00
-1.140000e-01 0.000000e+00
-1.130000e-01 0.000000e+00
-1.120000e-01 0.000000e+00
-1.110000e-01 0.000000e+00
-1.100000e-01 0.000000e+00
-1.090000e-01 0.000000e+00
-1.080000e-01 0.000000e+00
-1.070000e-01 0.000000e+00
-1.060000e-01 0.000000e+00
-1.050000e-01 0.000000e+00
-1.040000e-01 0.000000e+00
-1.030000e-01 0.000000e+00
-1.020000e-01 0.000000e+00
-1.010000e-01 0.000000e+00
-1.000000e-01 0.000000e+00
-9.900001e-02 0.000000e+00
-9.800000e-02 0.000000e+00
-9.700000e-02 -2.802597e-45
-9.600000e-02 -2.522337e-44
-9.500001e-02 -1.163078e-43
-9.400000e-02 -1.121039e-43
-9.300000e-02 1.967423e-42
-9.200001e-02 1.326189e-41
-9.100001e-02 3.689759e-41
-9.000000e-02 -1.070592e-41
-8.900000e-02 -5.246826e-40
-8.800000e-02 -2.208071e-39
-8.700000e-02 -3.915277e-39
-8.600000e-02 5.010395e-39
-8.500001e-02 5.383827e-38
-8.400001e-02 1.637217e-37
-8.300000e-02 1.973063e-37
-8.200000e-02 -4.434280e-37
-8.100000e-02 -2.826976e-36
-8.000000e-02 -6.767619e-36
-7.900000e-02 -5.680010e-36
-7.800000e-02 1.926684e-35
-7.700001e-02 9.004381e-35
-7.600001e-02 1.786242e-34
-7.500000e-02 1.037197e-34
-7.400000e-02 -5.130200e-34
-7.300000e-02 -1.927914e-33
-7.200000e-02 -3.273174e-33
-7.100000e-02 -1.254631e-33
-7.000001e-02 9.331406e-33
-6.900001e-02 2.958759e-32
-6.800000e-02 4.377811e-32
-6.700000e-02 9.453038e-33
-6.600000e-02 -1.236389e-31
-6.500000e-02 -3.381994e-31
-6.400000e-02 -4.369238e-31
-6.300000e-02 -1.883222e-32
-6.200000e-02 1.241825e-30
-6.100000e-02 2.923585e-30
-6.000000e-02 3.205672e-30
-5.900000e-02 -6.644910e-31
-5.800000e-02 -9.669069e-30
-5.700000e-02 -1.877371e-29
-5.600000e-02 -1.542120e-29
-5.500000e-02 1.266398e-29
-5.400001e-02 5.864909e-29
-5.300000e-02 8.019681e-29
-5.200000e-02 1.542315e-29
-5.100000e-02 -1.461569e-28
-5.000000e-02 -2.706863e-28
-4.900000e-02 -8.509188e-29
-4.800000e-02 5.747806e-28
-4.700000e-02 1.300524e-27
-4.600000e-02 8.527509e-28
-4.500000e-02 -2.146275e-27
-4.400000e-02 -7.173376e-27
-4.300000e-02 -9.503420e-27
-4.200000e-02 -7.482662e-28
-4.100000e-02 2.432329e-26
-4.000000e-02 5.540046e-26
-3.900000e-02 5.825576e-26
-3.800000e-02 -1.257083e-26
-3.700000e-02 -1.688939e-25
-3.600000e-02 -3.289598e-25
-3.500000e-02 -3.005961e-25
-3.400000e-02 1.186302e-25
-3.300000e-02 9.092792e-25
-3.200000e-02 1.596176e-24
-3.100000e-02 1.290852e-24
-3.000000e-02 -7.391883e-25
-2.900000e-02 -4.079868e-24
-2.800000e-02 -6.464716e-24
-2.700000e-02 -4.443367e-24
-2.600000e-02 3.985417e-24
-2.500000e-02 1.584856e-23
-2.400000e-02 2.187308e-23
-2.300000e-02 1.084697e-23
-2.200000e-02 -2.002901e-23
-2.100000e-02 -5.489741e-23
-2.000000e-02 -6.048675e-23
-1.900000e-02 -7.430161e-24
-1.800000e-02 9.455185e-23
-1.700000e-02 1.745065e-22
-1.600000e-02 1.266291e-22
-1.500000e-02 -1.027081e-22
-1.400000e-02 -4.116269e-22
-1.300000e-02 -5.226319e-22
-1.200000e-02 -1.376011e-22
-1.100000e-02 7.540418e-22
-9.999998e-03 1.619238e-21
-8.999996e-03 1.494415e-21
-8.000001e-03 -3.511337e-22
-6.999999e-03 -3.455816e-21
-5.999997e-03 -5.674022e-21
-5.000003e-03 -4.025149e-21
-4.000001e-03 2.950796e-21
-2.999999e-03 1.257126e-20
-1.999997e-03 1.754831e-20
-1.000002e-03 9.716111e-21
0.000000e+00 -1.272158e-20
1.000002e-03 -3.902359e-20
2.000004e-03 -4.753351e-20
2.999999e-03 -1.878144e-20
4.000001e-03 4.486377e-20
4.999995e-03 1.074244e-19
5.999997e-03 1.116104e-19
6.999999e-03 1.872482e-20
8.000001e-03 -1.442310e-19
9.000003e-03 -2.700456e-19
1.000001e-02 -2.226891e-19
1.100001e-02 5.394761e-20
1.199999e-02 4.373805e-19
1.300000e-02 6.357118e-19
1.400000e-02 3.590693e-19
1.500000e-02 -4.116283e-19
1.600000e-02 -1.251071e-18
1.700000e-02 -1.425374e-18
1.800001e-02 -3.877595e-19
1.900001e-02 1.617132e-18
2.000000e-02 3.329851e-18
2.100000e-02 3.045460e-18
2.200000e-02 -1.060727e-19
2.300000e-02 -4.933380e-18
2.400000e-02 -8.132113e-18
2.500001e-02 -6.068153e-18
2.600001e-02 2.230103e-18
2.700000e-02 1.287873e-17
2.800000e-02 1.805526e-17
2.900000e-02 1.075892e-17
3.000000e-02 -8.837662e-18
3.100000e-02 -3.015043e-17
3.200001e-02 -3.629446e-17
3.300001e-02 -1.542778e-17
3.400001e-02 2.703688e-17
3.500000e-02 6.533369e-17
3.600000e-02 6.602546e-17
3.700000e-02 1.265806e-17
3.800000e-02 -7.322700e-17
3.900000e-02 -1.339748e-16
4.000001e-02 -1.087223e-16
4.100001e-02 1.724057e-17
4.200000e-02 1.811115e-16
4.300000e-02 2.628147e-16
4.400000e-02 1.610415e-16
4.500000e-02 -1.154969e-16
4.600000e-02 -4.110587e-16
4.700001e-02 -4.921075e-16
4.800001e-02 -2.074272e-16
4.900001e-02 3.569473e-16
5.000000e-02 8.564602e-16
5.100000e-02 8.680820e-16
5.200000e-02 2.005669e-16
5.300000e-02 -8.679257e-16
5.400001e-02 -1.642283e-15
5.500001e-02 -1.414064e-15
5.600001e-02 -1.664557e-17
5.700000e-02 1.858317e-15
5.800000e-02 2.915788e-15
5.900000e-02 2.072885e-15
6.000000e-02 -6.248581e-16
6.100000e-02 -3.676793e-15
6.200001e-02 -4.836596e-15
6.300001e-02 -2.628569e-15
6.400001e-02 2.266273e-15
6.500000e-02 6.879927e-15
6.600000e-02 7.568206e-15
6.700000e-02 2.631428e-15
6.800000e-02 -5.794142e-15
6.900001e-02 -1.225861e-14
7.000001e-02 -1.123293e-14
7.100001e-02 -1.334586e-15
7.200000e-02 1.243409e-14
7.300000e-02 2.071565e-14
7.400000e-02 1.571998e-14
7.500000e-02 -2.430800e-15
7.600001e-02 -2.366575e-14
7.700001e-02 -3.293220e-14
7.800001e-02 -2.022717e-14
7.900001e-02 1.060009e-14
8.000000e-02 4.123724e-14
8.100000e-02 4.899800e-14
8.200000e-02 2.265910e-14
8.300000e-02 -2.644126e-14
8.400001e-02 -6.748045e-14
8.500001e-02 -6.843784e-14
8.600001e-02 -1.948788e-14
8.700001e-02 5.472455e-14
8.800000e-02 1.055255e-13
8.900000e-02 9.066508e-14
9.000000e-02 6.659298e-15
9.100001e-02 -1.003893e-13
9.200001e-02 -1.579682e-13
9.300001e-02 -1.143853e-13
9.400001e-02 1.957443e-14
9.500000e-02 1.660493e-13
9.600000e-02 2.231726e-13
9.700000e-02 1.337405e-13
9.800000e-02 -6.541259e-14
9.900001e-02 -2.526087e-13
1.000000e-01 -2.931653e-13
1.010000e-01 -1.334132e-13
1.020000e-01 1.467768e-13
1.030000e-01 3.679204e-13
1.040000e-01 3.619227e-13
1.050000e-01 9.393904e-14
1.060000e-01 -2.900135e-13
1.070000e-01 -5.359497e-13
1.080000e-01 -4.434515e-13
1.090000e-01 -1.605365e-14
1.100000e-01 5.071846e-13
1.110000e-01 7.797008e-13
1.120000e-01 5.702176e-13
1.130000e-01 -6.022949e-14
1.140000e-01 -7.560637e-13
1.150000e-01 -1.066002e-12
1.160000e-01 -7.342694e-13
1.170000e-01 1.023113e-13
1.180000e-01 9.574699e-13
1.190000e-01 1.279324e-12
1.200000e-01 8.115771e-13
1.210000e-01 -2.032352e-13
1.220000e-01 -1.134028e-12
1.230000e-01 -1.345999e-12
1.240000e-01 -6.307491e-13
1.250000e-01 6.041533e-13
1.260000e-01 1.542002e-12
1.270000e-01 1.466551e-12
1.280000e-01 2.664040e-13
1.290000e-01 -1.405761e-12
1.300000e-01 -2.467833e-12
1.310000e-01 -2.074163e-12
1.320000e-01 -2.119310e-13
1.330000e-01 2.173157e-12
1.340000e-01 3.660342e-12
1.350000e-01 3.203419e-12
1.360000e-01 8.390896e-13
1.370000e-01 -2.217039e-12
1.380000e-01 -4.213462e-12
1.390000e-01 -3.909669e-12
1.400000e-01 -1.397958e-12
1.410000e-01 1.848424e-12
1.420000e-01 3.807868e-12
1.430000e-01 3.174294e-12
1.440000e-01 2.773229e-13
1.450000e-01 -2.976674e-12
1.460000e-01 -4.212240e-12
1.470000e-01 -2.136428e-12
1.480000e-01 2.430247e-12
1.490000e-01 6.784523e-12
1.500000e-01 7.843428e-12
1.510000e-01 4.105986e-12
1.520000e-01 -3.136213e-12
1.530000e-01 -1.021062e-11
1.540000e-01 -1.302831e-11
1.550000e-01 -9.529556e-12
1.560000e-01 -1.114646e-12
1.570000e-01 7.940682e-12
1.580000e-01 1.289377e-11
1.590000e-01 1.138649e-11
1.600000e-01 4.947866e-12
1.610000e-01 -1.926196e-12
1.620000e-01 -4.697493e-12
1.630000e-01 -1.930353e-12
1.640000e-01 3.450201e-12
1.650000e-01 5.849567e-12
1.660000e-01 8.388745e-13
1.670000e-01 -1.121466e-11
1.680000e-01 -2.423520e-11
1.690000e-01 -2.927810e-11
1.700000e-01 -1.982418e-11
1.710000e-01 3.530233e-12
1.720000e-01 3.203685e-11
1.730000e-01 5.251215e-11
1.740000e-01 5.407613e-11
1.750000e-01 3.418157e-11
1.760000e-01 3.564614e-13
1.770000e-01 -3.355139e-11
1.780000e-01 -5.459194e-11
1.790000e-01 -5.720471e-11
1.800000e-01 -4.514262e-11
1.810000e-01 -2.774242e-11
1.820000e-01 -1.300443e-11
1.830000e-01 -2.071246e-12
1.840000e-01 1.104298e-11
1.850000e-01 3.393198e-11
1.860000e-01 6.787113e-11
1.870000e-01 1.029171e-10
1.880000e-01 1.201395e-10
1.890000e-01 1.009216e-10
1.900000e-01 3.863838e-11
1.910000e-01 -5.418509e-11
1.920000e-01 -1.482855e-10
1.930000e-01 -2.095354e-10
1.940000e-01 -2.145717e-10
1.950000e-01 -1.618046e-10
1.960000e-01 -7.156463e-11
1.970000e-01 2.486719e-11
1.980000e-01 1.011345e-10
1.990000e-01 1.473575e-10
2.000000e-01 1.706391e-10
2.010000e-01 1.846102e-10
2.020000e-01 1.951878e-10
2.030000e-01 1.925811e-10
2.040000e-01 1.560399e-10
2.050000e-01 6.963576e-11
2.060000e-01 -6.057595e-11
2.070000e-01 -2.001391e-10
2.080000e-01 -2.974319e-10
2.090000e-01 -3.090683e-10
2.100000e-01 -2.264704e-10
2.110000e-01 -8.807144e-11
2.120000e-01 3.170962e-11
2.130000e-01 5.301828e-11
2.140000e-01 -7.430193e-11
2.150000e-01 -3.489528e-10
2.160000e-01 -7.203715e-10
2.170000e-01 -1.111802e-09
2.180000e-01 -1.449464e-09
2.190000e-01 -1.680507e-09
2.200000e-01 -1.770781e-09
2.210000e-01 -1.687552e-09
2.220000e-01 -1.382956e-09
2.230000e-01 -7.940242e-10
2.240000e-01 1.363021e-10
2.250000e-01 1.428740e-09
2.260000e-01 3.049821e-09
2.270000e-01 4.925603e-09
2.280000e-01 6.990183e-09
2.290000e-01 9.251701e-09
2.300000e-01 1.184573e-08
2.310000e-01 1.504893e-08
2.320000e-01 1.924481e-08
2.330000e-01 2.485747e-08
2.340000e-01 3.228671e-08
2.350000e-01 4.187656e-08
2.360000e-01 5.393196e-08
2.370000e-01 6.877315e-08
2.380000e-01 8.680007e-08
2.390000e-01 1.085391e-07
2.400000e-01 1.346611e-07
2.410000e-01 1.659830e-07
2.420000e-01 2.034789e-07
2.430000e-01 2.483237e-07
2.440000e-01 3.019683e-07
2.450000e-01 3.662218e-07
2.460000e-01 4.433051e-07
2.470000e-01 5.358467e-07
2.480000e-01 6.468264e-07
2.490000e-01 7.795032e-07
2.500000e-01 9.373857e-07
2.510000e-01 1.124286e-06
2.520000e-01 1.344465e-06
2.530000e-01 1.602829e-06
2.540000e-01 1.905127e-06
2.550000e-01 2.258085e-06
2.560000e-01 2.669476e-06
2.570000e-01 3.148153e-06
2.580000e-01 3.704077e-06
2.590000e-01 4.348390e-06
2.600000e-01 5.093535e-06
2.610000e-01 5.953381e-06
2.620000e-01 6.943305e-06
2.630000e-01 8.080209e-06
2.640000e-01 9.382500e-06
2.650000e-01 1.087008e-05
2.660000e-01 1.256442e-05
2.670000e-01 1.448876e-05
2.680000e-01 1.666836e-05
2.690000e-01 1.913076e-05
2.700000e-01 2.190600e-05
2.710000e-01 2.502661e-05
2.720000e-01 2.852750e-05
2.730000e-01 3.244578e-05
2.740000e-01 3.682054e-05
2.750000e-01 4.169266e-05
2.760000e-01 4.710471e-05
2.770000e-01 5.310079e-05
2.780000e-01 5.972636e-05
2.790000e-01 6.702801e-05
2.800000e-01 7.505309e-05
2.810000e-01 8.384939e-05
2.820000e-01 9.346480e-05
2.830000e-01 1.039471e-04
2.840000e-01 1.153434e-04
2.850000e-01 1.277001e-04
2.860000e-01 1.410624e-04
2.870000e-01 1.554729e-04
2.880000e-01 1.709714e-04
2.890000e-01 1.875932e-04
2.900000e-01 2.053685e-04
2.910000e-01 2.243213e-04
2.920000e-01 2.444693e-04
2.930000e-01 2.658228e-04
2.940000e-01 2.883843e-04
2.950000e-01 3.121479e-04
2.960000e-01 3.370980e-04
2.970000e-01 3.632090e-04
2.980000e-01 3.904447e-04
2.990000e-01 4.187576e-04
3.000000e-01 4.480885e-04
3.010000e-01 4.783666e-04
3.020000e-01 5.095082e-04
3.030000e-01 5.414169e-04
3.040000e-01 5.739828e-04
3.050000e-01 6.070826e-04
3.060000e-01 6.405802e-04
3.070000e-01 6.743267e-04
3.080000e-01 7.081618e-04
3.090000e-01 7.419146e-04
3.100000e-01 7.754046e-04
3.110000e-01 8.084430e-04
3.120000e-01 8.408338e-04
3.130000e-01 8.723751e-04
3.140000e-01 9.028601e-04
3.150000e-01 9.320792e-04
3.160000e-01 9.598212e-04
3.170000e-01 9.858762e-04
3.180000e-01 1.010037e-03
3.190000e-01 1.032102e-03
3.200000e-01 1.051875e-03
3.210000e-01 1.069170e-03
3.220000e-01 1.083810e-03
3.230000e-01 1.095633e-03
3.240000e-01 1.104491e-03
3.250000e-01 1.110255e-03
3.260000e-01 1.112813e-03
3.270000e-01 1.112075e-03
3.280000e-01 1.107971e-03
3.290000e-01 1.100454e-03
3.300000e-01 1.089500e-03
3.310000e-01 1.075108e-03
3.320000e-01 1.057301e-03
3.330000e-01 1.036129e-03
3.340000e-01 1.011665e-03
3.350000e-01 9.840053e-04
3.360000e-01 9.532710e-04
3.370000e-01 9.196048e-04
3.380000e-01 8.831707e-04
3.390000e-01 8.441525e-04
3.400000e-01 8.027522e-04
3.410000e-01 7.591873e-04
3.420000e-01 7.136899e-04
3.430000e-01 6.665038e-04
3.440000e-01 6.178824e-04
3.450000e-01 5.680862e-04
3.460000e-01 5.173801e-04
3.470000e-01 4.660306e-04
3.480000e-01 4.143043e-04
3.490000e-01 3.624659e-04
3.500000e-01 3.107759e-04
3.510000e-01 2.594888e-04
3.520000e-01 2.088495e-04
3.530000e-01 1.590918e-04
3.540000e-01 1.104361e-04
3.550000e-01 6.308792e-05
3.560000e-01 1.723722e-05
3.570000e-01 -2.694264e-05
3.580000e-01 -6.929588e-05
3.590000e-01 -1.096854e-04
3.600000e-01 -1.479939e-04
3.610000e-01 -1.841237e-04
3.620000e-01 -2.179967e-04
3.630000e-01 -2.495538e-04
3.640000e-01 -2.787535e-04
3.650000e-01 -3.055718e-04
3.660000e-01 -3.300018e-04
3.670000e-01 -3.520533e-04
3.680000e-01 -3.717522e-04
3.690000e-01 -3.891394e-04
3.700000e-01 -4.042691e-04
3.710000e-01 -4.172079e-04
3.720000e-01 -4.280328e-04
3.730000e-01 -4.368300e-04
3.740000e-01 -4.436937e-04
3.750000e-01 -4.487250e-04
3.760000e-01 -4.520302e-04
3.770000e-01 -4.537198e-04
3.780000e-01 -4.539067e-04
3.790000e-01 -4.527056e-04
3.800000e-01 -4.502310e-04
3.810000e-01 -4.465969e-04
3.820000e-01 -4.419153e-04
3.830000e-01 -4.362961e-04
3.840000e-01 -4.298458e-04
3.850000e-01 -4.226678e-04
3.860000e-01 -4.148612e-04
3.870000e-01 -4.065208e-04
3.880000e-01 -3.977361e-04
3.890000e-01 -3.885914e-04
3.900000e-01 -3.791650e-04
3.910000e-01 -3.695295e-04
3.920000e-01 -3.597520e-04
3.930000e-01 -3.498940e-04
3.940000e-01 -3.400115e-04
3.950000e-01 -3.301545e-04
3.960000e-01 -3.203673e-04
3.970000e-01 -3.106887e-04
3.980000e-01 -3.011521e-04
3.990000e-01 -2.917867e-04
4.000000e-01 -2.826177e-04
4.010000e-01 -2.736663e-04
4.020000e-01 -2.649499e-04
4.030000e-01 -2.564820e-04
4.040000e-01 -2.482729e-04
4.050000e-01 -2.403298e-04
4.060000e-01 -2.326576e-04
4.070000e-01 -2.252590e-04
4.080000e-01 -2.181346e-04
4.090000e-01 -2.112833e-04
4.100000e-01 -2.047020e-04
4.110000e-01 -1.983864e-04
4.120000e-01 -1.923310e-04
4.130000e-01 -1.865295e-04
4.140000e-01 -1.809747e-04
4.150000e-01 -1.756586e-04
4.160000e-01 -1.705725e-04
4.170000e-01 -1.657076e-04
4.180000e-01 -1.610545e-04
4.190000e-01 -1.566043e-04
4.200000e-01 -1.523482e-04
4.210000e-01 -1.482774e-04
4.220001e-01 -1.443829e-04
4.230000e-01 -1.406560e-04
4.240000e-01 -1.370878e-04
4.250000e-01 -1.336701e-04
4.260000e-01 -1.303947e-04
4.270000e-01 -1.272539e-04
4.280000e-01 -1.242403e-04
4.290000e-01 -1.213472e-04
4.300000e-01 -1.185680e-04
4.310000e-01 -1.158970e-04
4.320000e-01 -1.133284e-04
4.330000e-01 -1.108566e-04
4.340000e-01 -1.084760e-04
4.350000e-01 -1.061808e-04
4.360000e-01 -1.039654e-04
4.370000e-01 -1.018251e-04
4.380000e-01 -9.975590e-05
4.390000e-01 -9.775448e-05
4.400000e-01 -9.581774e-05
4.410000e-01 -9.394257e-05
4.420000e-01 -9.212581e-05
4.430000e-01 -9.036448e-05
4.440000e-01 -8.865611e-05
4.450000e-01 -8.699871e-05
4.460000e-01 -8.539056e-05
4.470000e-01 -8.382995e-05
4.480000e-01 -8.231505e-05
4.490000e-01 -8.084406e-05
4.500000e-01 -7.941558e-05
4.510000e-01 -7.802874e-05
4.520000e-01 -7.668310e-05
4.530000e-01 -7.537837e-05
4.540000e-01 -7.411416e-05
4.550000e-01 -7.289005e-05
4.560000e-01 -7.170587e-05
4.570000e-01 -7.056197e-05
4.580000e-01 -6.945927e-05
4.590001e-01 -6.839915e-05
4.600000e-01 -6.738324e-05
4.610000e-01 -6.641350e-05
4.620000e-01 -6.549251e-05
4.630000e-01 -6.462382e-05
4.640000e-01 -6.381215e-05
4.650000e-01 -6.306339e-05
4.660000e-01 -6.238462e-05
4.670000e-01 -6.178432e-05
4.680000e-01 -6.127296e-05
4.690000e-01 -6.086368e-05
4.700000e-01 -6.057278e-05
4.710000e-01 -6.041970e-05
4.720000e-01 -6.042691e-05
4.730000e-01 -6.062004e-05
4.740000e-01 -6.102881e-05
4.750000e-01 -6.168863e-05
4.760000e-01 -6.264248e-05
4.770000e-01 -6.394234e-05
4.780000e-01 -6.564998e-05
4.790000e-01 -6.783737e-05
4.800000e-01 -7.058729e-05
4.810000e-01 -7.399479e-05
4.820001e-01 -7.816945e-05
4.830000e-01 -8.323796e-05
4.840000e-01 -8.934669e-05
4.850000e-01 -9.666377e-05
4.860000e-01 -1.053812e-04
4.870000e-01 -1.157173e-04
4.880000e-01 -1.279201e-04
4.890000e-01 -1.422704e-04
4.900000e-01 -1.590864e-04
4.910000e-01 -1.787263e-04
4.920000e-01 -2.015920e-04
4.930000e-01 -2.281325e-04
4.940000e-01 -2.588475e-04
4.950000e-01 -2.942918e-04
4.960001e-01 -3.350791e-04
4.970000e-01 -3.818857e-04
4.980000e-01 -4.354535e-04
4.990000e-01 -4.965926e-04
5.000000e-01 -5.661838e-04
5.010000e-01 -6.451805e-04
5.020000e-01 -7.346111e-04
5.030000e-01 -8.355785e-04
5.040000e-01 -9.492602e-04
5.050000e-01 -1.076905e-03
5.060000e-01 -1.219831e-03
5.070000e-01 -1.379420e-03
5.080000e-01 -1.557111e-03
5.090000e-01 -1.754394e-03
5.100001e-01 -1.972798e-03
5.110000e-01 -2.213877e-03
5.120000e-01 -2.479196e-03
5.130000e-01 -2.770316e-03
5.140000e-01 -3.088771e-03
5.150000e-01 -3.436050e-03
5.160000e-01 -3.813571e-03
5.170000e-01 -4.222658e-03
5.180000e-01 -4.664509e-03
5.190001e-01 -5.140163e-03
5.200000e-01 -5.650471e-03
5.210000e-01 -6.196057e-03
5.220000e-01 -6.777286e-03
5.230000e-01 -7.394223e-03
5.240000e-01 -8.046607e-03
5.250000e-01 -8.733801e-03
5.260000e-01 -9.454768e-03
5.270000e-01 -1.020803e-02
5.280000e-01 -1.099165e-02
5.290000e-01 -1.180316e-02
5.300000e-01 -1.263961e-02
5.310000e-01 -1.349747e-02
5.320000e-01 -1.437267e-02
5.330001e-01 -1.526055e-02
5.340000e-01 -1.615590e-02
5.350000e-01 -1.705292e-02
5.360000e-01 -1.794527e-02
5.370000e-01 -1.882605e-02
5.380000e-01 -1.968788e-02
5.390000e-01 -2.052292e-02
5.400000e-01 -2.132290e-02
5.410000e-01 -2.207918e-02
5.420001e-01 -2.278285e-02
5.430000e-01 -2.342478e-02
5.440000e-01 -2.399572e-02
5.450000e-01 -2.448638e-02
5.460000e-01 -2.488756e-02
5.470001e-01 -2.519022e-02
5.480000e-01 -2.538561e-02
5.490000e-01 -2.546539e-02
5.500000e-01 -2.542175e-02
5.510000e-01 -2.524752e-02
5.520000e-01 -2.493630e-02
5.530000e-01 -2.448254e-02
5.540000e-01 -2.388172e-02
5.550000e-01 -2.313038e-02
5.560001e-01 -2.222624e-02
5.570000e-01 -2.116832e-02
5.580000e-01 -1.995694e-02
5.590000e-01 -1.859386e-02
5.600000e-01 -1.708226e-02
5.610000e-01 -1.542679e-02
5.620000e-01 -1.363355e-02
5.630000e-01 -1.171013e-02
5.640000e-01 -9.665547e-03
5.650001e-01 -7.510195e-03
5.660000e-01 -5.255795e-03
5.670000e-01 -2.915286e-03
5.680000e-01 -5.027249e-04
5.690000e-01 1.966834e-03
5.700001e-01 4.477480e-03
5.710000e-01 7.012594e-03
5.720000e-01 9.555018e-03
5.730000e-01 1.208723e-02
5.740000e-01 1.459155e-02
5.750000e-01 1.705028e-02
5.760000e-01 1.944596e-02
5.770000e-01 2.176148e-02
5.780000e-01 2.398034e-02
5.790001e-01 2.608679e-02
5.800000e-01 2.806605e-02
5.810000e-01 2.990440e-02
5.820000e-01 3.158942e-02
5.830000e-01 3.311004e-02
5.840001e-01 3.445672e-02
5.850000e-01 3.562148e-02
5.860000e-01 3.659805e-02
5.870000e-01 3.738186e-02
5.880000e-01 3.797013e-02
5.890000e-01 3.836182e-02
5.900000e-01 3.855767e-02
5.910000e-01 3.856011e-02
5.920000e-01 3.837324e-02
5.930001e-01 3.800276e-02
5.940000e-01 3.745582e-02
5.950000e-01 3.674099e-02
5.960000e-01 3.586806e-02
5.970000e-01 3.484793e-02
5.980000e-01 3.369242e-02
5.990000e-01 3.241418e-02
6.000000e-01 3.102647e-02
6.010000e-01 2.954305e-02
6.020001e-01 2.797795e-02
6.030000e-01 2.634534e-02
6.040000e-01 2.465939e-02
6.050000e-01 2.293404e-02
6.060000e-01 2.118294e-02
6.070001e-01 1.941928e-02
6.080000e-01 1.765569e-02
6.090000e-01 1.590414e-02
6.100000e-01 1.417581e-02
6.110000e-01 1.248101e-02
6.120000e-01 1.082916e-02
6.130000e-01 9.228730e-03
6.140000e-01 7.687191e-03
6.150000e-01 6.211027e-03
6.160001e-01 4.805710e-03
6.170000e-01 3.475708e-03
6.180000e-01 2.224509e-03
6.190000e-01 1.054661e-03
6.200000e-01 -3.217405e-05
6.210001e-01 -1.035171e-03
6.220000e-01 -1.954286e-03
6.230000e-01 -2.790201e-03
6.240000e-01 -3.544264e-03
6.250001e-01 -4.218410e-03
6.260000e-01 -4.815085e-03
6.270000e-01 -5.337168e-03
6.280000e-01 -5.787896e-03
6.290000e-01 -6.170812e-03
6.300001e-01 -6.489700e-03
6.310000e-01 -6.748528e-03
6.320000e-01 -6.951382e-03
6.330000e-01 -7.102403e-03
6.340000e-01 -7.205734e-03
6.350001e-01 -7.265483e-03
6.360000e-01 -7.285691e-03
6.370000e-01 -7.270317e-03
6.380000e-01 -7.223196e-03
6.390001e-01 -7.148012e-03
6.400000e-01 -7.048264e-03
6.410000e-01 -6.927253e-03
6.420000e-01 -6.788079e-03
6.430000e-01 -6.633647e-03
6.440001e-01 -6.466667e-03
6.450000e-01 -6.289650e-03
6.460000e-01 -6.104897e-03
6.470000e-01 -5.914486e-03
6.480000e-01 -5.720284e-03
6.490000e-01 -5.523960e-03
6.500000e-01 -5.327006e-03
6.510000e-01 -5.130749e-03
6.520000e-01 -4.936353e-03
6.530001e-01 -4.744811e-03
6.540000e-01 -4.556956e-03
6.550000e-01 -4.373465e-03
6.560000e-01 -4.194892e-03
6.570000e-01 -4.021683e-03
6.580001e-01 -3.854189e-03
6.590000e-01 -3.692665e-03
6.600000e-01 -3.537271e-03
6.610000e-01 -3.388074e-03
6.620001e-01 -3.245065e-03
6.630000e-01 -3.108182e-03
6.640000e-01 -2.977329e-03
6.650000e-01 -2.852381e-03
6.660000e-01 -2.733184e-03
6.670001e-01 -2.619550e-03
6.680000e-01 -2.511261e-03
6.690000e-01 -2.408085e-03
6.700000e-01 -2.309794e-03
6.710000e-01 -2.216169e-03
6.720001e-01 -2.127006e-03
6.730000e-01 -2.042105e-03
6.740000e-01 -1.961268e-03
6.750000e-01 -1.884300e-03
6.760001e-01 -1.811019e-03
6.770000e-01 -1.741268e-03
6.780000e-01 -1.674912e-03
6.790000e-01 -1.611831e-03
6.800000e-01 -1.551911e-03
6.810001e-01 -1.495034e-03
6.820000e-01 -1.441083e-03
6.830000e-01 -1.389953e-03
6.840000e-01 -1.341552e-03
6.850001e-01 -1.295799e-03
6.860000e-01 -1.252617e-03
6.870000e-01 -1.211915e-03
6.880000e-01 -1.173592e-03
6.890000e-01 -1.137536e-03
6.900001e-01 -1.103639e-03
6.910000e-01 -1.071795e-03
6.920000e-01 -1.041901e-03
6.930000e-01 -1.013848e-03
6.940000e-01 -9.875107e-04
6.950001e-01 -9.627559e-04
6.960000e-01 -9.394478e-04
6.970000e-01 -9.174593e-04
6.980000e-01 -8.966741e-04
6.990001e-01 -8.769824e-04
7.000000e-01 -8.582722e-04
7.010000e-01 -8.404265e-04
7.020000e-01 -8.233294e-04
7.030000e-01 -8.068759e-04
7.040001e-01 -7.909806e-04
7.050000e-01 -7.755766e-04
7.060000e-01 -7.606068e-04
7.070000e-01 -7.460148e-04
7.080001e-01 -7.317426e-04
7.090001e-01 -7.177365e-04
7.100000e-01 -7.039562e-04
7.110000e-01 -6.903791e-04
7.120000e-01 -6.769951e-04
7.130001e-01 -6.637955e-04
7.140000e-01 -6.507649e-04
7.150000e-01 -6.378811e-04
7.160000e-01 -6.251234e-04
7.170000e-01 -6.124825e-04
7.180001e-01 -5.999609e-04
7.190000e-01 -5.875655e-04
7.200000e-01 -5.752951e-04
7.210000e-01 -5.631341e-04
7.220001e-01 -5.510573e-04
7.230000e-01 -5.390428e-04
7.240000e-01 -5.270821e-04
7.250000e-01 -5.151817e-04
7.260000e-01 -5.033527e-04
7.270001e-01 -4.915986e-04
7.280000e-01 -4.799112e-04
7.290000e-01 -4.682781e-04
7.300000e-01 -4.566968e-04
7.310000e-01 -4.451849e-04
7.320001e-01 -4.337773e-04
7.330000e-01 -4.225147e-04
7.340000e-01 -4.114304e-04
7.350000e-01 -4.005474e-04
7.360001e-01 -3.898872e-04
7.370000e-01 -3.794829e-04
7.380000e-01 -3.693859e-04
7.390000e-01 -3.596586e-04
7.400000e-01 -3.503593e-04
7.410001e-01 -3.415296e-04
7.420000e-01 -3.331934e-04
7.430000e-01 -3.253678e-04
7.440000e-01 -3.180761e-04
7.450001e-01 -3.113519e-04
7.460001e-01 -3.052297e-04
7.470000e-01 -2.997291e-04
7.480000e-01 -2.948456e-04
7.490000e-01 -2.905529e-04
7.500001e-01 -2.868163e-04
7.510000e-01 -2.836053e-04
7.520000e-01 -2.808951e-04
7.530000e-01 -2.786578e-04
7.540000e-01 -2.768500e-04
7.550001e-01 -2.754092e-04
7.560000e-01 -2.742622e-04
7.570000e-01 -2.733391e-04
7.580000e-01 -2.725836e-04
7.590001e-01 -2.719501e-04
7.600001e-01 -2.713925e-04
7.610000e-01 -2.708549e-04
7.620000e-01 -2.702720e-04
7.630000e-01 -2.695812e-04
7.640001e-01 -2.687356e-04
7.650000e-01 -2.677091e-04
7.660000e-01 -2.664889e-04
7.670000e-01 -2.650630e-04
7.680001e-01 -2.634127e-04
7.690001e-01 -2.615159e-04
7.700000e-01 -2.593587e-04
7.710000e-01 -2.569430e-04
7.720000e-01 -2.542848e-04
7.730001e-01 -2.514024e-04
7.740000e-01 -2.483056e-04
7.750000e-01 -2.449941e-04
7.760000e-01 -2.414669e-04
7.770000e-01 -2.377337e-04
7.780001e-01 -2.338190e-04
7.790000e-01 -2.297532e-04
7.800000e-01 -2.255584e-04
7.810000e-01 -2.212399e-04
7.820001e-01 -2.167903e-04
7.830001e-01 -2.122034e-04
7.840000e-01 -2.074869e-04
7.850000e-01 -2.026631e-04
7.860000e-01 -1.977585e-04
7.870001e-01 -1.927906e-04
7.880000e-01 -1.877634e-04
7.890000e-01 -1.826761e-04
7.900000e-01 -1.775371e-04
7.910001e-01 -1.723722e-04
7.920001e-01 -1.672205e-04
7.930000e-01 -1.621216e-04
7.940000e-01 -1.571043e-04
7.950000e-01 -1.521880e-04
7.960001e-01 -1.473935e-04
7.970001e-01 -1.427560e-04
7.980000e-01 -1.383271e-04
7.990000e-01 -1.341652e-04
8.000000e-01 -1.303201e-04
8.010001e-01 -1.268235e-04
8.020000e-01 -1.236927e-04
8.030000e-01 -1.209425e-04
8.040000e-01 -1.185960e-04
8.050001e-01 -1.166841e-04
8.060001e-01 -1.152353e-04
8.070000e-01 -1.142634e-04
8.080000e-01 -1.137627e-04
8.090000e-01 -1.137127e-04
8.100001e-01 -1.140885e-04
8.110000e-01 -1.148665e-04
8.120000e-01 -1.160222e-04
8.130000e-01 -1.175221e-04
8.140000e-01 -1.193185e-04
8.150001e-01 -1.213511e-04
8.160000e-01 -1.235556e-04
8.170000e-01 -1.258713e-04
8.180000e-01 -1.282444e-04
8.190001e-01 -1.306237e-04
8.200001e-01 -1.329550e-04
8.210000e-01 -1.351791e-04
8.220000e-01 -1.372362e-04
8.230000e-01 -1.390716e-04
8.240001e-01 -1.406404e-04
8.250000e-01 -1.419075e-04
8.260000e-01 -1.428443e-04
8.270000e-01 -1.434273e-04
8.280001e-01 -1.436382e-04
8.290001e-01 -1.434660e-04
8.300000e-01 -1.429077e-04
8.310000e-01 -1.419663e-04
8.320000e-01 -1.406491e-04
8.330001e-01 -1.389664e-04
8.340001e-01 -1.369339e-04
8.350000e-01 -1.345749e-04
8.360000e-01 -1.319197e-04
8.370000e-01 -1.290013e-04
8.380001e-01 -1.258500e-04
8.390000e-01 -1.224912e-04
8.400000e-01 -1.189485e-04
8.410000e-01 -1.152493e-04
8.420001e-01 -1.114273e-04
8.430001e-01 -1.075188e-04
8.440000e-01 -1.035561e-04
8.450000e-01 -9.956320e-05
8.460000e-01 -9.555787e-05
8.470001e-01 -9.155988e-05
8.480000e-01 -8.759765e-05
8.490000e-01 -8.370786e-05
8.500000e-01 -7.992743e-05
8.510001e-01 -7.628431e-05
8.520001e-01 -7.279516e-05
8.530000e-01 -6.947231e-05
8.540000e-01 -6.633476e-05
8.550000e-01 -6.341384e-05
8.560001e-01 -6.074842e-05
8.570001e-01 -5.837301e-05
8.580000e-01 -5.630854e-05
8.590000e-01 -5.456320e-05
8.600000e-01 -5.314274e-05
8.610001e-01 -5.206095e-05
8.620000e-01 -5.134096e-05
8.630000e-01 -5.100552e-05
8.640000e-01 -5.106398e-05
8.650001e-01 -5.150671e-05
8.660001e-01 -5.231165e-05
8.670000e-01 -5.345721e-05
8.680000e-01 -5.493016e-05
8.690000e-01 -5.672134e-05
8.700001e-01 -5.881243e-05
8.710001e-01 -6.116514e-05
8.720000e-01 -6.372259e-05
8.730000e-01 -6.642254e-05
8.740000e-01 -6.921205e-05
8.750001e-01 -7.205178e-05
8.760000e-01 -7.490683e-05
8.770000e-01 -7.773278e-05
8.780000e-01 -8.046957e-05
8.790001e-01 -8.304980e-05
