-1.200000e-01 0.000000e+00
-1.190000e-01 0.000000e+00
-1.180000e-01 0.000000e+00
-1.170000e-01 0.000000e+00
-1.160000e-01 0.000000e+00
-1.150000e-01 0.000000e+00
-1.140000e-01 0.000000e+00
-1.130000e-01 0.000000e+00
-1.120000e-01 0.000000e+00
-1.110000e-01 0.000000e+00
-1.100000e-01 0.000000e+00
-1.090000e-01 0.000000e+00
-1.080000e-01 0.000000e+00
-1.070000e-01 -5.605194e-45
-1.060000e-01 1.036961e-43
-1.050000e-01 -1.696412e-41
-1.040000e-01 -7.299644e-41
-1.030000e-01 -4.538988e-40
-1.020000e-01 -7.132727e-39
-1.010000e-01 -4.490496e-38
-1.000000e-01 -1.079657e-37
-9.900001e-02 2.813174e-38
-9.800000e-02 2.314636e-37
-9.700000e-02 -3.538468e-36
-9.600000e-02 -1.917905e-35
-9.500001e-02 -1.995916e-35
-9.400000e-02 1.399592e-34
-9.300000e-02 5.787209e-34
-9.200001e-02 3.793480e-34
-9.100001e-02 -3.600823e-33
-9.000000e-02 -1.245599e-32
-8.900000e-02 -7.802799e-33
-8.800000e-02 6.154557e-32
-8.700000e-02 2.086528e-31
-8.600000e-02 1.749035e-31
-8.500001e-02 -7.231205e-31
-8.400001e-02 -2.764632e-30
-8.300000e-02 -3.236778e-30
-8.200000e-02 5.490258e-30
-8.100000e-02 2.872013e-29
-8.000000e-02 4.522708e-29
-7.900000e-02 -1.580322e-29
-7.800000e-02 -2.281191e-28
-7.700001e-02 -4.776983e-28
-7.600001e-02 -2.267879e-28
-7.500000e-02 1.295206e-27
-7.400000e-02 3.844306e-27
-7.300000e-02 4.171718e-27
-7.200000e-02 -3.972730e-27
-7.100000e-02 -2.327476e-26
-7.000001e-02 -3.911640e-26
-6.900001e-02 -1.159640e-26
-6.800000e-02 9.874211e-26
-6.700000e-02 2.537621e-25
-6.600000e-02 2.551344e-25
-6.500000e-02 -2.014115e-25
-6.400000e-02 -1.181222e-24
-6.300000e-02 -1.962719e-24
-6.200000e-02 -8.746559e-25
-6.100000e-02 3.558122e-24
-6.000000e-02 9.891775e-24
-5.900000e-02 1.131421e-23
-5.800000e-02 -2.254132e-24
-5.700000e-02 -3.384304e-23
-5.600000e-02 -6.432506e-23
-5.500000e-02 -4.797751e-23
-5.400001e-02 5.983535e-23
-5.300000e-02 2.382561e-22
-5.200000e-02 3.408073e-22
-5.100000e-02 1.278652e-22
-5.000000e-02 -5.339177e-22
-4.900000e-02 -1.362122e-21
-4.800000e-02 -1.509629e-21
-4.700000e-02 4.079105e-23
-4.600000e-02 3.405217e-21
-4.500000e-02 6.616487e-21
-4.400000e-02 5.660296e-21
-4.300000e-02 -2.987398e-21
-4.200000e-02 -1.768429e-20
-4.100000e-02 -2.807813e-20
-4.000000e-02 -1.796117e-20
-3.900000e-02 2.235757e-20
-3.800000e-02 7.883180e-20
-3.700000e-02 1.061584e-19
-3.600000e-02 4.730643e-20
-3.500000e-02 -1.163288e-19
-3.400000e-02 -3.104598e-19
-3.300000e-02 -3.630265e-19
-3.200000e-02 -9.663447e-20
-3.100000e-02 4.953707e-19
-3.000000e-02 1.100222e-18
-2.900000e-02 1.136751e-18
-2.800000e-02 1.128733e-19
-2.700000e-02 -1.826649e-18
-2.600000e-02 -3.553342e-18
-2.500000e-02 -3.293221e-18
-2.400000e-02 1.764653e-19
-2.300000e-02 5.995116e-18
-2.200000e-02 1.055363e-17
-2.100000e-02 8.902775e-18
-2.000000e-02 -1.678304e-18
-1.900000e-02 -1.779198e-17
-1.800000e-02 -2.900965e-17
-1.700000e-02 -2.260680e-17
-1.600000e-02 6.798291e-18
-1.500000e-02 4.822355e-17
-1.400000e-02 7.411356e-17
-1.300000e-02 5.414285e-17
-1.200000e-02 -2.094392e-17
-1.100000e-02 -1.201691e-16
-9.999998e-03 -1.764114e-16
-8.999996e-03 -1.224247e-16
-8.000001e-03 5.477335e-17
-6.999999e-03 2.766401e-16
-5.999997e-03 3.915996e-16
-5.000003e-03 2.606788e-16
-4.000001e-03 -1.274880e-16
-2.999999e-03 -5.907714e-16
-1.999997e-03 -8.105436e-16
-1.000002e-03 -5.193317e-16
0.000000e+00 2.731449e-16
1.000002e-03 1.175842e-15
2.000004e-03 1.563277e-15
2.999999e-03 9.577107e-16
4.000001e-03 -5.573285e-16
4.999995e-03 -2.196267e-15
5.999997e-03 -2.808910e-15
6.999999e-03 -1.608943e-15
8.000001e-03 1.121825e-15
9.000003e-03 3.891731e-15
1.000001e-02 4.711652e-15
1.100001e-02 2.403501e-15
1.199999e-02 -2.284498e-15
1.300000e-02 -6.647440e-15
1.400000e-02 -7.431383e-15
1.500000e-02 -3.063320e-15
1.600000e-02 4.709337e-15
1.700000e-02 1.115690e-14
1.800001e-02 1.120041e-14
1.900001e-02 3.044053e-15
2.000000e-02 -9.593473e-15
2.100000e-02 -1.868056e-14
2.200000e-02 -1.656686e-14
2.300000e-02 -1.677703e-15
2.400000e-02 1.868472e-14
2.500001e-02 3.124476e-14
2.600001e-02 2.475379e-14
2.700000e-02 -1.374035e-15
2.800000e-02 -3.384758e-14
2.900000e-02 -5.138075e-14
3.000000e-02 -3.773416e-14
3.100000e-02 5.598593e-15
3.200001e-02 5.611524e-14
3.300001e-02 8.095788e-14
3.400001e-02 5.723755e-14
3.500000e-02 -9.971611e-15
3.600000e-02 -8.498696e-14
3.700000e-02 -1.193551e-13
3.800000e-02 -8.216310e-14
3.900000e-02 1.549081e-14
4.000001e-02 1.198608e-13
4.100001e-02 1.628833e-13
4.200000e-02 1.056386e-13
4.300000e-02 -2.998638e-14
4.400000e-02 -1.653658e-13
4.500000e-02 -2.087698e-13
4.600000e-02 -1.158634e-13
4.700001e-02 7.146840e-14
4.800001e-02 2.386933e-13
4.900001e-02 2.648567e-13
5.000000e-02 1.054299e-13
5.100000e-02 -1.623810e-13
5.200000e-02 -3.701696e-13
5.300000e-02 -3.578399e-13
5.400001e-02 -8.645065e-14
5.500001e-02 3.107653e-13
5.600001e-02 5.859057e-13
5.700000e-02 5.234954e-13
5.800000e-02 9.359744e-14
5.900000e-02 -4.919982e-13
6.000000e-02 -8.763055e-13
6.100000e-02 -7.688478e-13
6.200001e-02 -1.506830e-13
6.300001e-02 6.657846e-13
6.400001e-02 1.186987e-12
6.500000e-02 1.033421e-12
6.600000e-02 2.072284e-13
6.700000e-02 -8.502840e-13
6.800000e-02 -1.482892e-12
6.900001e-02 -1.220735e-12
7.000001e-02 -1.194297e-13
7.100001e-02 1.198233e-12
7.200000e-02 1.871868e-12
7.300000e-02 1.342571e-12
7.400000e-02 -2.246356e-13
7.500000e-02 -1.934101e-12
7.600001e-02 -2.638231e-12
7.700001e-02 -1.660862e-12
7.800001e-02 6.736008e-13
7.900001e-02 3.083357e-12
8.000000e-02 4.005096e-12
8.100000e-02 2.559832e-12
8.200000e-02 -7.720148e-13
8.300000e-02 -4.242311e-12
8.400001e-02 -5.744090e-12
8.500001e-02 -4.073600e-12
8.600001e-02 2.028859e-13
8.700001e-02 4.870171e-12
8.800000e-02 7.216686e-12
8.900000e-02 5.622641e-12
9.000000e-02 6.523367e-13
9.100001e-02 -5.069599e-12
9.200001e-02 -8.238537e-12
9.300001e-02 -6.780052e-12
9.400001e-02 -1.179334e-12
9.500000e-02 5.612036e-12
9.600000e-02 9.730116e-12
9.700000e-02 8.574848e-12
9.800000e-02 2.356967e-12
9.900001e-02 -5.906741e-12
1.000000e-01 -1.197417e-11
1.010000e-01 -1.263009e-11
1.020000e-01 -7.321810e-12
1.030000e-01 1.704288e-12
1.040000e-01 1.071231e-11
1.050000e-01 1.632391e-11
1.060000e-01 1.677926e-11
1.070000e-01 1.204305e-11
1.080000e-01 3.096610e-12
1.090000e-01 -8.665520e-12
1.100000e-01 -2.124324e-11
1.110000e-01 -3.126314e-11
1.120000e-01 -3.375094e-11
1.130000e-01 -2.362146e-11
1.140000e-01 1.023737e-12
1.150000e-01 3.538608e-11
1.160000e-01 6.693470e-11
1.170000e-01 7.894792e-11
1.180000e-01 5.833328e-11
1.190000e-01 4.367132e-12
1.200000e-01 -6.677910e-11
1.210000e-01 -1.257714e-10
1.220000e-01 -1.421661e-10
1.230000e-01 -9.983672e-11
1.240000e-01 -7.748774e-12
1.250000e-01 1.007692e-10
1.260000e-01 1.816030e-10
1.270000e-01 2.004009e-10
1.280000e-01 1.494302e-10
1.290000e-01 5.101620e-11
1.300000e-01 -5.523553e-11
1.310000e-01 -1.347479e-10
1.320000e-01 -1.766005e-10
1.330000e-01 -1.961810e-10
1.340000e-01 -2.184335e-10
1.350000e-01 -2.507077e-10
1.360000e-01 -2.629366e-10
1.370000e-01 -1.917638e-10
1.380000e-01 2.671509e-11
1.390000e-01 4.082839e-10
1.400000e-01 8.818657e-10
1.410000e-01 1.286966e-09
1.420000e-01 1.418828e-09
1.430000e-01 1.109015e-09
1.440000e-01 3.083452e-10
1.450000e-01 -8.669435e-10
1.460000e-01 -2.151151e-09
1.470000e-01 -3.204594e-09
1.480000e-01 -3.717542e-09
1.490000e-01 -3.497734e-09
1.500000e-01 -2.505486e-09
1.510000e-01 -8.283518e-10
1.520000e-01 1.380331e-09
1.530000e-01 3.955378e-09
1.540000e-01 6.727836e-09
1.550000e-01 9.476883e-09
1.560000e-01 1.185141e-08
1.570000e-01 1.331103e-08
1.580000e-01 1.313314e-08
1.590000e-01 1.050099e-08
1.600000e-01 4.642676e-09
1.610000e-01 -5.044550e-09
1.620000e-01 -1.895581e-08
1.630000e-01 -3.736574e-08
1.640000e-01 -6.062591e-08
1.650000e-01 -8.940244e-08
1.660000e-01 -1.248587e-07
1.670000e-01 -1.687065e-07
1.680000e-01 -2.231059e-07
1.690000e-01 -2.904702e-07
1.700000e-01 -3.732848e-07
1.710000e-01 -4.740619e-07
1.720000e-01 -5.955098e-07
1.730000e-01 -7.409102e-07
1.740000e-01 -9.146143e-07
1.750000e-01 -1.122510e-06
1.760000e-01 -1.372320e-06
1.770000e-01 -1.673664e-06
1.780000e-01 -2.037906e-06
1.790000e-01 -2.477937e-06
1.800000e-01 -3.008051e-06
1.810000e-01 -3.644091e-06
1.820000e-01 -4.403898e-06
1.830000e-01 -5.308034e-06
1.840000e-01 -6.380595e-06
1.850000e-01 -7.649949e-06
1.860000e-01 -9.149274e-06
1.870000e-01 -1.091688e-05
1.880000e-01 -1.299648e-05
1.890000e-01 -1.543751e-05
1.900000e-01 -1.829577e-05
1.910000e-01 -2.163433e-05
1.920000e-01 -2.552459e-05
1.930000e-01 -3.004736e-05
1.940000e-01 -3.529368e-05
1.950000e-01 -4.136527e-05
1.960000e-01 -4.837487e-05
1.970000e-01 -5.644652e-05
1.980000e-01 -6.571613e-05
1.990000e-01 -7.633258e-05
2.000000e-01 -8.845911e-05
2.010000e-01 -1.022748e-04
2.020000e-01 -1.179758e-04
2.030000e-01 -1.357758e-04
2.040000e-01 -1.559060e-04
2.050000e-01 -1.786144e-04
2.060000e-01 -2.041648e-04
2.070000e-01 -2.328365e-04
2.080000e-01 -2.649234e-04
2.090000e-01 -3.007339e-04
2.100000e-01 -3.405901e-04
2.110000e-01 -3.848265e-04
2.120000e-01 -4.337874e-04
2.130000e-01 -4.878235e-04
2.140000e-01 -5.472889e-04
2.150000e-01 -6.125371e-04
2.160000e-01 -6.839174e-04
2.170000e-01 -7.617718e-04
2.180000e-01 -8.464312e-04
2.190000e-01 -9.382100e-04
2.200000e-01 -1.037399e-03
2.210000e-01 -1.144258e-03
2.220000e-01 -1.259005e-03
2.230000e-01 -1.381808e-03
2.240000e-01 -1.512776e-03
2.250000e-01 -1.651951e-03
2.260000e-01 -1.799302e-03
2.270000e-01 -1.954722e-03
2.280000e-01 -2.118014e-03
2.290000e-01 -2.288890e-03
2.300000e-01 -2.466960e-03
2.310000e-01 -2.651722e-03
2.320000e-01 -2.842555e-03
2.330000e-01 -3.038708e-03
2.340000e-01 -3.239298e-03
2.350000e-01 -3.443310e-03
2.360000e-01 -3.649590e-03
2.370000e-01 -3.856854e-03
2.380000e-01 -4.063684e-03
2.390000e-01 -4.268534e-03
2.400000e-01 -4.469738e-03
2.410000e-01 -4.665507e-03
2.420000e-01 -4.853948e-03
2.430000e-01 -5.033072e-03
2.440000e-01 -5.200812e-03
2.450000e-01 -5.355037e-03
2.460000e-01 -5.493573e-03
2.470000e-01 -5.614219e-03
2.480000e-01 -5.714778e-03
2.490000e-01 -5.793076e-03
2.500000e-01 -5.846993e-03
2.510000e-01 -5.874486e-03
2.520000e-01 -5.873620e-03
2.530000e-01 -5.842599e-03
2.540000e-01 -5.779790e-03
2.550000e-01 -5.683758e-03
2.560000e-01 -5.553289e-03
2.570000e-01 -5.387416e-03
2.580000e-01 -5.185441e-03
2.590000e-01 -4.946956e-03
2.600000e-01 -4.671865e-03
2.610000e-01 -4.360403e-03
2.620000e-01 -4.013147e-03
2.630000e-01 -3.631028e-03
2.640000e-01 -3.215335e-03
2.650000e-01 -2.767711e-03
2.660000e-01 -2.290151e-03
2.670000e-01 -1.784988e-03
2.680000e-01 -1.254883e-03
2.690000e-01 -7.028012e-04
2.700000e-01 -1.319963e-04
2.710000e-01 4.540227e-04
2.720000e-01 1.051521e-03
2.730000e-01 1.656575e-03
2.740000e-01 2.265107e-03
2.750000e-01 2.872934e-03
2.760000e-01 3.475804e-03
2.770000e-01 4.069452e-03
2.780000e-01 4.649640e-03
2.790000e-01 5.212206e-03
2.800000e-01 5.753107e-03
2.810000e-01 6.268463e-03
2.820000e-01 6.754600e-03
2.830000e-01 7.208094e-03
2.840000e-01 7.625802e-03
2.850000e-01 8.004909e-03
2.860000e-01 8.342946e-03
2.870000e-01 8.637821e-03
2.880000e-01 8.887838e-03
2.890000e-01 9.091710e-03
2.900000e-01 9.248572e-03
2.910000e-01 9.357986e-03
2.920000e-01 9.419936e-03
2.930000e-01 9.434823e-03
2.940000e-01 9.403454e-03
2.950000e-01 9.327026e-03
2.960000e-01 9.207102e-03
2.970000e-01 9.045590e-03
2.980000e-01 8.844709e-03
2.990000e-01 8.606960e-03
3.000000e-01 8.335088e-03
3.010000e-01 8.032047e-03
3.020000e-01 7.700960e-03
3.030000e-01 7.345083e-03
3.040000e-01 6.967768e-03
3.050000e-01 6.572422e-03
3.060000e-01 6.162465e-03
3.070000e-01 5.741294e-03
3.080000e-01 5.312250e-03
3.090000e-01 4.878578e-03
3.100000e-01 4.443412e-03
3.110000e-01 4.009740e-03
3.120000e-01 3.580381e-03
3.130000e-01 3.157960e-03
3.140000e-01 2.744894e-03
3.150000e-01 2.343378e-03
3.160000e-01 1.955375e-03
3.170000e-01 1.582621e-03
3.180000e-01 1.226611e-03
3.190000e-01 8.886004e-04
3.200000e-01 5.696038e-04
3.210000e-01 2.704000e-04
3.220000e-01 -8.457078e-06
3.230000e-01 -2.666248e-04
3.240000e-01 -5.039586e-04
3.250000e-01 -7.204992e-04
3.260000e-01 -9.164611e-04
3.270000e-01 -1.092217e-03
3.280000e-01 -1.248282e-03
3.290000e-01 -1.385292e-03
3.300000e-01 -1.503986e-03
3.310000e-01 -1.605188e-03
3.320000e-01 -1.689799e-03
3.330000e-01 -1.758777e-03
3.340000e-01 -1.813130e-03
3.350000e-01 -1.853894e-03
3.360000e-01 -1.882120e-03
3.370000e-01 -1.898857e-03
3.380000e-01 -1.905146e-03
3.390000e-01 -1.902007e-03
3.400000e-01 -1.890436e-03
3.410000e-01 -1.871395e-03
3.420000e-01 -1.845806e-03
3.430000e-01 -1.814546e-03
3.440000e-01 -1.778442e-03
3.450000e-01 -1.738270e-03
3.460000e-01 -1.694754e-03
3.470000e-01 -1.648565e-03
3.480000e-01 -1.600316e-03
3.490000e-01 -1.550563e-03
3.500000e-01 -1.499807e-03
3.510000e-01 -1.448494e-03
3.520000e-01 -1.397022e-03
3.530000e-01 -1.345745e-03
3.540000e-01 -1.294971e-03
3.550000e-01 -1.244962e-03
3.560000e-01 -1.195939e-03
3.570000e-01 -1.148079e-03
3.580000e-01 -1.101529e-03
3.590000e-01 -1.056406e-03
3.600000e-01 -1.012801e-03
3.610000e-01 -9.707833e-04
3.620000e-01 -9.303972e-04
3.630000e-01 -8.916651e-04
3.640000e-01 -8.545913e-04
3.650000e-01 -8.191668e-04
3.660000e-01 -7.853716e-04
3.670000e-01 -7.531765e-04
3.680000e-01 -7.225419e-04
3.690000e-01 -6.934194e-04
3.700000e-01 -6.657540e-04
3.710000e-01 -6.394885e-04
3.720000e-01 -6.145663e-04
3.730000e-01 -5.909324e-04
3.740000e-01 -5.685322e-04
3.750000e-01 -5.473094e-04
3.760000e-01 -5.272074e-04
3.770000e-01 -5.081708e-04
3.780000e-01 -4.901482e-04
3.790000e-01 -4.730931e-04
3.800000e-01 -4.569631e-04
3.810000e-01 -4.417182e-04
3.820000e-01 -4.273214e-04
3.830000e-01 -4.137410e-04
3.840000e-01 -4.009533e-04
3.850000e-01 -3.889449e-04
3.860000e-01 -3.777106e-04
3.870000e-01 -3.672504e-04
3.880000e-01 -3.575678e-04
3.890000e-01 -3.486697e-04
3.900000e-01 -3.405713e-04
3.910000e-01 -3.332999e-04
3.920000e-01 -3.268976e-04
3.930000e-01 -3.214197e-04
3.940000e-01 -3.169329e-04
3.950000e-01 -3.135141e-04
3.960000e-01 -3.112526e-04
3.970000e-01 -3.102543e-04
3.980000e-01 -3.106463e-04
3.990000e-01 -3.125773e-04
4.000000e-01 -3.162175e-04
4.010000e-01 -3.217566e-04
4.020000e-01 -3.294052e-04
4.030000e-01 -3.393984e-04
4.040000e-01 -3.520014e-04
4.050000e-01 -3.675131e-04
4.060000e-01 -3.862673e-04
4.070000e-01 -4.086312e-04
4.080000e-01 -4.350050e-04
4.090000e-01 -4.658226e-04
4.100000e-01 -5.015554e-04
4.110000e-01 -5.427152e-04
4.120000e-01 -5.898558e-04
4.130000e-01 -6.435722e-04
4.140000e-01 -7.044973e-04
4.150000e-01 -7.732991e-04
4.160000e-01 -8.506784e-04
4.170000e-01 -9.373673e-04
4.180000e-01 -1.034126e-03
4.190000e-01 -1.141741e-03
4.200000e-01 -1.261013e-03
4.210000e-01 -1.392759e-03
4.220001e-01 -1.537799e-03
4.230000e-01 -1.696949e-03
4.240000e-01 -1.871009e-03
4.250000e-01 -2.060753e-03
4.260000e-01 -2.266909e-03
4.270000e-01 -2.490144e-03
4.280000e-01 -2.731053e-03
4.290000e-01 -2.990138e-03
4.300000e-01 -3.267799e-03
4.310000e-01 -3.564312e-03
4.320000e-01 -3.879813e-03
4.330000e-01 -4.214270e-03
4.340000e-01 -4.567469e-03
4.350000e-01 -4.938990e-03
4.360000e-01 -5.328193e-03
4.370000e-01 -5.734192e-03
4.380000e-01 -6.155844e-03
4.390000e-01 -6.591730e-03
4.400000e-01 -7.040135e-03
4.410000e-01 -7.499046e-03
4.420000e-01 -7.966141e-03
4.430000e-01 -8.438789e-03
4.440000e-01 -8.914049e-03
4.450000e-01 -9.388668e-03
4.460000e-01 -9.859095e-03
4.470000e-01 -1.032148e-02
4.480000e-01 -1.077171e-02
4.490000e-01 -1.120542e-02
4.500000e-01 -1.161800e-02
4.510000e-01 -1.200469e-02
4.520000e-01 -1.236057e-02
4.530000e-01 -1.268061e-02
4.540000e-01 -1.295974e-02
4.550000e-01 -1.319287e-02
4.560000e-01 -1.337499e-02
4.570000e-01 -1.350119e-02
4.580000e-01 -1.356676e-02
4.590001e-01 -1.356723e-02
4.600000e-01 -1.349846e-02
4.610000e-01 -1.335669e-02
4.620000e-01 -1.313862e-02
4.630000e-01 -1.284143e-02
4.640000e-01 -1.246291e-02
4.650000e-01 -1.200147e-02
4.660000e-01 -1.145619e-02
4.670000e-01 -1.082689e-02
4.680000e-01 -1.011413e-02
4.690000e-01 -9.319280e-03
4.700000e-01 -8.444508e-03
4.710000e-01 -7.492806e-03
4.720000e-01 -6.467988e-03
4.730000e-01 -5.374670e-03
4.740000e-01 -4.218251e-03
4.750000e-01 -3.004876e-03
4.760000e-01 -1.741395e-03
4.770000e-01 -4.353046e-04
4.780000e-01 9.053164e-04
4.790000e-01 2.271887e-03
4.800000e-01 3.655404e-03
4.810000e-01 5.046532e-03
4.820001e-01 6.435697e-03
4.830000e-01 7.813184e-03
4.840000e-01 9.169244e-03
4.850000e-01 1.049421e-02
4.860000e-01 1.177858e-02
4.870000e-01 1.301315e-02
4.880000e-01 1.418912e-02
4.890000e-01 1.529814e-02
4.900000e-01 1.633247e-02
4.910000e-01 1.728501e-02
4.920000e-01 1.814939e-02
4.930000e-01 1.892008e-02
4.940000e-01 1.959239e-02
4.950000e-01 2.016251e-02
4.960001e-01 2.062760e-02
4.970000e-01 2.098575e-02
4.980000e-01 2.123603e-02
4.990000e-01 2.137846e-02
5.000000e-01 2.141402e-02
5.010000e-01 2.134456e-02
5.020000e-01 2.117287e-02
5.030000e-01 2.090251e-02
5.040000e-01 2.053785e-02
5.050000e-01 2.008393e-02
5.060000e-01 1.954644e-02
5.070000e-01 1.893163e-02
5.080000e-01 1.824620e-02
5.090000e-01 1.749722e-02
5.100001e-01 1.669209e-02
5.110000e-01 1.583836e-02
5.120000e-01 1.494373e-02
5.130000e-01 1.401592e-02
5.140000e-01 1.306261e-02
5.150000e-01 1.209133e-02
5.160000e-01 1.110944e-02
5.170000e-01 1.012401e-02
5.180000e-01 9.141766e-03
5.190001e-01 8.169075e-03
5.200000e-01 7.211867e-03
5.210000e-01 6.275612e-03
5.220000e-01 5.365283e-03
5.230000e-01 4.485333e-03
5.240000e-01 3.639678e-03
5.250000e-01 2.831690e-03
5.260000e-01 2.064205e-03
5.270000e-01 1.339533e-03
5.280000e-01 6.594622e-04
5.290000e-01 2.528261e-05
5.300000e-01 -5.622013e-04
5.310000e-01 -1.102642e-03
5.320000e-01 -1.596116e-03
5.330001e-01 -2.043086e-03
5.340000e-01 -2.444365e-03
5.350000e-01 -2.801077e-03
5.360000e-01 -3.114630e-03
5.370000e-01 -3.386678e-03
5.380000e-01 -3.619082e-03
5.390000e-01 -3.813872e-03
5.400000e-01 -3.973208e-03
5.410000e-01 -4.099341e-03
5.420001e-01 -4.194585e-03
5.430000e-01 -4.261293e-03
5.440000e-01 -4.301829e-03
5.450000e-01 -4.318545e-03
5.460000e-01 -4.313756e-03
5.470001e-01 -4.289718e-03
5.480000e-01 -4.248607e-03
5.490000e-01 -4.192513e-03
5.500000e-01 -4.123422e-03
5.510000e-01 -4.043215e-03
5.520000e-01 -3.953656e-03
5.530000e-01 -3.856388e-03
5.540000e-01 -3.752929e-03
5.550000e-01 -3.644673e-03
5.560001e-01 -3.532887e-03
5.570000e-01 -3.418717e-03
5.580000e-01 -3.303187e-03
5.590000e-01 -3.187208e-03
5.600000e-01 -3.071576e-03
5.610000e-01 -2.956988e-03
5.620000e-01 -2.844041e-03
5.630000e-01 -2.733244e-03
5.640000e-01 -2.625017e-03
5.650001e-01 -2.519700e-03
5.660000e-01 -2.417562e-03
5.670000e-01 -2.318807e-03
5.680000e-01 -2.223588e-03
5.690000e-01 -2.132007e-03
5.700001e-01 -2.044122e-03
5.710000e-01 -1.959951e-03
5.720000e-01 -1.879471e-03
5.730000e-01 -1.802631e-03
5.740000e-01 -1.729357e-03
5.750000e-01 -1.659562e-03
5.760000e-01 -1.593145e-03
5.770000e-01 -1.529996e-03
5.780000e-01 -1.469988e-03
5.790001e-01 -1.412988e-03
5.800000e-01 -1.358857e-03
5.810000e-01 -1.307457e-03
5.820000e-01 -1.258659e-03
5.830000e-01 -1.212334e-03
5.840001e-01 -1.168358e-03
5.850000e-01 -1.126602e-03
5.860000e-01 -1.086940e-03
5.870000e-01 -1.049252e-03
5.880000e-01 -1.013425e-03
5.890000e-01 -9.793575e-04
5.900000e-01 -9.469521e-04
5.910000e-01 -9.161170e-04
5.920000e-01 -8.867640e-04
5.930001e-01 -8.588106e-04
5.940000e-01 -8.321815e-04
5.950000e-01 -8.068083e-04
5.960000e-01 -7.826259e-04
5.970000e-01 -7.595700e-04
5.980000e-01 -7.375772e-04
5.990000e-01 -7.165875e-04
6.000000e-01 -6.965483e-04
6.010000e-01 -6.774139e-04
6.020001e-01 -6.591422e-04
6.030000e-01 -6.416897e-04
6.040000e-01 -6.250096e-04
6.050000e-01 -6.090555e-04
6.060000e-01 -5.937864e-04
6.070001e-01 -5.791697e-04
6.080000e-01 -5.651777e-04
6.090000e-01 -5.517808e-04
6.100000e-01 -5.389419e-04
6.110000e-01 -5.266181e-04
6.120000e-01 -5.147681e-04
6.130000e-01 -5.033603e-04
6.140000e-01 -4.923736e-04
6.150000e-01 -4.817913e-04
6.160001e-01 -4.715915e-04
6.170000e-01 -4.617424e-04
6.180000e-01 -4.522070e-04
6.190000e-01 -4.429530e-04
6.200000e-01 -4.339607e-04
6.210001e-01 -4.252211e-04
6.220000e-01 -4.167270e-04
6.230000e-01 -4.084632e-04
6.240000e-01 -4.004049e-04
6.250001e-01 -3.925249e-04
6.260000e-01 -3.848048e-04
6.270000e-01 -3.772404e-04
6.280000e-01 -3.698366e-04
6.290000e-01 -3.625970e-04
6.300001e-01 -3.555149e-04
6.310000e-01 -3.485748e-04
6.320000e-01 -3.417620e-04
6.330000e-01 -3.350723e-04
6.340000e-01 -3.285145e-04
6.350001e-01 -3.221029e-04
6.360000e-01 -3.158468e-04
6.370000e-01 -3.097456e-04
6.380000e-01 -3.037918e-04
6.390001e-01 -2.979805e-04
6.400000e-01 -2.923155e-04
6.410000e-01 -2.868079e-04
6.420000e-01 -2.814682e-04
6.430000e-01 -2.762993e-04
6.440001e-01 -2.712961e-04
6.450000e-01 -2.664520e-04
6.460000e-01 -2.617654e-04
6.470000e-01 -2.572413e-04
6.480000e-01 -2.528852e-04
6.490000e-01 -2.486967e-04
6.500000e-01 -2.446667e-04
6.510000e-01 -2.407825e-04
6.520000e-01 -2.370348e-04
6.530001e-01 -2.334218e-04
6.540000e-01 -2.299449e-04
6.550000e-01 -2.266012e-04
6.560000e-01 -2.233786e-04
6.570000e-01 -2.202586e-04
6.580001e-01 -2.172244e-04
6.590000e-01 -2.142681e-04
6.600000e-01 -2.113897e-04
6.610000e-01 -2.085902e-04
6.620001e-01 -2.058635e-04
6.630000e-01 -2.031948e-04
6.640000e-01 -2.005668e-04
6.650000e-01 -1.979688e-04
6.660000e-01 -1.954001e-04
6.670001e-01 -1.928657e-04
6.680000e-01 -1.903676e-04
6.690000e-01 -1.878988e-04
6.700000e-01 -1.854459e-04
6.710000e-01 -1.829980e-04
6.720001e-01 -1.805535e-04
6.730000e-01 -1.781203e-04
6.740000e-01 -1.757086e-04
6.750000e-01 -1.733221e-04
6.760001e-01 -1.709560e-04
6.770000e-01 -1.686024e-04
6.780000e-01 -1.662579e-04
6.790000e-01 -1.639278e-04
6.800000e-01 -1.616227e-04
6.810001e-01 -1.593502e-04
6.820000e-01 -1.571108e-04
6.830000e-01 -1.548987e-04
6.840000e-01 -1.527091e-04
6.850001e-01 -1.505437e-04
6.860000e-01 -1.484110e-04
6.870000e-01 -1.463210e-04
6.880000e-01 -1.442786e-04
6.890000e-01 -1.422826e-04
6.900001e-01 -1.403288e-04
6.910000e-01 -1.384160e-04
6.920000e-01 -1.365472e-04
6.930000e-01 -1.347272e-04
6.940000e-01 -1.329581e-04
6.950001e-01 -1.312372e-04
6.960000e-01 -1.295601e-04
6.970000e-01 -1.279246e-04
6.980000e-01 -1.263324e-04
6.990001e-01 -1.247868e-04
7.000000e-01 -1.232882e-04
7.010000e-01 -1.218314e-04
7.020000e-01 -1.204087e-04
7.030000e-01 -1.190151e-04
7.040001e-01 -1.176506e-04
7.050000e-01 -1.163187e-04
7.060000e-01 -1.150202e-04
7.070000e-01 -1.137509e-04
7.080001e-01 -1.125026e-04
7.090001e-01 -1.112698e-04
7.100000e-01 -1.100538e-04
7.110000e-01 -1.088616e-04
7.120000e-01 -1.076995e-04
7.130001e-01 -1.065670e-04
7.140000e-01 -1.054568e-04
7.150000e-01 -1.043616e-04
7.160000e-01 -1.032810e-04
7.170000e-01 -1.022242e-04
7.180001e-01 -1.012030e-04
7.190000e-01 -1.002233e-04
7.200000e-01 -9.928072e-05
7.210000e-01 -9.836509e-05
7.220001e-01 -9.746975e-05
7.230000e-01 -9.659802e-05
7.240000e-01 -9.576059e-05
7.250000e-01 -9.496573e-05
7.260000e-01 -9.421084e-05
7.270001e-01 -9.348260e-05
7.280000e-01 -9.276601e-05
7.290000e-01 -9.205460e-05
7.300000e-01 -9.135310e-05
7.310000e-01 -9.066989e-05
7.320001e-01 -9.000576e-05
7.330000e-01 -8.934860e-05
7.340000e-01 -8.867892e-05
7.350000e-01 -8.798178e-05
7.360001e-01 -8.725496e-05
7.370000e-01 -8.650646e-05
7.380000e-01 -8.574362e-05
7.390000e-01 -8.496318e-05
7.400000e-01 -8.415129e-05
7.410001e-01 -8.329332e-05
7.420000e-01 -8.238531e-05
7.430000e-01 -8.143695e-05
7.440000e-01 -8.046368e-05
7.450001e-01 -7.947475e-05
7.460001e-01 -7.846757e-05
7.470000e-01 -7.743343e-05
7.480000e-01 -7.636922e-05
7.490000e-01 -7.528482e-05
7.500001e-01 -7.419945e-05
7.510000e-01 -7.312978e-05
7.520000e-01 -7.208034e-05
7.530000e-01 -7.104462e-05
7.540000e-01 -7.001589e-05
7.550001e-01 -6.899843e-05
7.560000e-01 -6.800918e-05
7.570000e-01 -6.706805e-05
7.580000e-01 -6.618538e-05
7.590001e-01 -6.535715e-05
7.600001e-01 -6.457233e-05
7.610000e-01 -6.382557e-05
7.620000e-01 -6.312421e-05
7.630000e-01 -6.248312e-05
7.640001e-01 -6.191213e-05
7.650000e-01 -6.140707e-05
7.660000e-01 -6.095273e-05
7.670000e-01 -6.053542e-05
7.680001e-01 -6.015413e-05
7.690001e-01 -5.982055e-05
7.700000e-01 -5.954743e-05
7.710000e-01 -5.933548e-05
7.720000e-01 -5.917015e-05
7.730001e-01 -5.903148e-05
7.740000e-01 -5.890849e-05
7.750000e-01 -5.880554e-05
7.760000e-01 -5.873504e-05
7.770000e-01 -5.870241e-05
7.780001e-01 -5.869643e-05
7.790000e-01 -5.869336e-05
7.800000e-01 -5.867148e-05
7.810000e-01 -5.862374e-05
7.820001e-01 -5.855768e-05
7.830001e-01 -5.848289e-05
7.840000e-01 -5.839711e-05
7.850000e-01 -5.828298e-05
7.860000e-01 -5.811838e-05
7.870001e-01 -5.789102e-05
7.880000e-01 -5.760456e-05
7.890000e-01 -5.727088e-05
7.900000e-01 -5.689533e-05
7.910001e-01 -5.646827e-05
7.920001e-01 -5.597050e-05
7.930000e-01 -5.538837e-05
7.940000e-01 -5.472532e-05
7.950000e-01 -5.399994e-05
7.960001e-01 -5.323217e-05
7.970001e-01 -5.242970e-05
7.980000e-01 -5.158636e-05
7.990000e-01 -5.069380e-05
8.000000e-01 -4.975590e-05
8.010001e-01 -4.879299e-05
8.020000e-01 -4.783173e-05
8.030000e-01 -4.688944e-05
8.040000e-01 -4.596664e-05
8.050001e-01 -4.505450e-05
8.060001e-01 -4.415095e-05
8.070000e-01 -4.327111e-05
8.080000e-01 -4.244252e-05
8.090000e-01 -4.168886e-05
8.100001e-01 -4.101592e-05
8.110000e-01 -4.041201e-05
8.120000e-01 -3.986248e-05
8.130000e-01 -3.936582e-05
8.140000e-01 -3.893728e-05
8.150001e-01 -3.859665e-05
8.160000e-01 -3.835084e-05
8.170000e-01 -3.818632e-05
8.180000e-01 -3.807847e-05
8.190001e-01 -3.800977e-05
8.200001e-01 -3.798150e-05
8.210000e-01 -3.800867e-05
8.220000e-01 -3.810269e-05
8.230000e-01 -3.825669e-05
8.240001e-01 -3.844646e-05
8.250000e-01 -3.864615e-05
8.260000e-01 -3.884541e-05
8.270000e-01 -3.905314e-05
8.280001e-01 -3.928458e-05
8.290001e-01 -3.954304e-05
8.300000e-01 -3.981201e-05
8.310000e-01 -4.006456e-05
8.320000e-01 -4.028191e-05
8.330001e-01 -4.046514e-05
8.340001e-01 -4.062996e-05
8.350000e-01 -4.078893e-05
8.360000e-01 -4.093663e-05
8.370000e-01 -4.105025e-05
8.380001e-01 -4.110528e-05
8.390000e-01 -4.109239e-05
8.400000e-01 -4.102148e-05
8.410000e-01 -4.090937e-05
8.420001e-01 -4.076230e-05
8.430001e-01 -4.056827e-05
8.440000e-01 -4.030582e-05
8.450000e-01 -3.996128e-05
8.460000e-01 -3.953953e-05
8.470001e-01 -3.905909e-05
8.480000e-01 -3.853608e-05
8.490000e-01 -3.797138e-05
8.500000e-01 -3.735207e-05
8.510001e-01 -3.666595e-05
8.520001e-01 -3.591611e-05
8.530000e-01 -3.512315e-05
8.540000e-01 -3.431304e-05
8.550000e-01 -3.350146e-05
8.560001e-01 -3.268813e-05
8.570001e-01 -3.186567e-05
8.580000e-01 -3.103467e-05
8.590000e-01 -3.021141e-05
8.600000e-01 -2.942123e-05
8.610001e-01 -2.868364e-05
8.620000e-01 -2.800217e-05
8.630000e-01 -2.736813e-05
8.640000e-01 -2.677465e-05
8.650001e-01 -2.622848e-05
8.660001e-01 -2.574904e-05
8.670000e-01 -2.535531e-05
8.680000e-01 -2.505228e-05
8.690000e-01 -2.482877e-05
8.700001e-01 -2.466852e-05
8.710001e-01 -2.456447e-05
8.720000e-01 -2.452367e-05
8.730000e-01 -2.455835e-05
8.740000e-01 -2.467144e-05
8.750001e-01 -2.484971e-05
8.760000e-01 -2.507121e-05
8.770000e-01 -2.532068e-05
8.780000e-01 -2.559926e-05
8.790001e-01 -2.591972e-05
