-1.200000e-01 0.000000e+00
-1.190000e-01 0.000000e+00
-1.180000e-01 0.000000e+00
-1.170000e-01 0.000000e+00
-1.160000e-01 0.000000e+00
-1.150000e-01 0.000000e+00
-1.140000e-01 0.000000e+00
-1.130000e-01 4.405732e-22
-1.120000e-01 -2.485355e-21
-1.110000e-01 -3.253228e-20
-1.100000e-01 -1.002206e-19
-1.090000e-01 2.736301e-21
-1.080000e-01 8.526451e-19
-1.070000e-01 2.413670e-18
-1.060000e-01 1.323661e-18
-1.050000e-01 -9.663637e-18
-1.040000e-01 -3.073961e-17
-1.030000e-01 -3.109034e-17
-1.020000e-01 5.698875e-17
-1.010000e-01 2.644968e-16
-1.000000e-01 4.208028e-16
-9.900001e-02 6.312307e-17
-9.800000e-02 -1.243099e-15
-9.700000e-02 -3.021385e-15
-9.600000e-02 -3.062412e-15
-9.500001e-02 1.817178e-15
-9.400000e-02 1.223618e-14
-9.300000e-02 2.141634e-14
-9.200001e-02 1.450608e-14
-9.100001e-02 -2.155972e-14
-9.000000e-02 -7.826487e-14
-8.900000e-02 -1.104434e-13
-8.800000e-02 -5.049053e-14
-8.700000e-02 1.348425e-13
-8.600000e-02 3.704240e-13
-8.500001e-02 4.510968e-13
-8.400001e-02 1.444725e-13
-8.300000e-02 -5.869512e-13
-8.200000e-02 -1.383323e-12
-8.100000e-02 -1.530859e-12
-8.000000e-02 -3.906597e-13
-7.900000e-02 1.938630e-12
-7.800000e-02 4.208966e-12
-7.700001e-02 4.413573e-12
-7.600001e-02 1.105987e-12
-7.500000e-02 -5.018138e-12
-7.400000e-02 -1.054706e-11
-7.300000e-02 -1.081225e-11
-7.200000e-02 -3.112863e-12
-7.100000e-02 1.022512e-11
-7.000001e-02 2.159184e-11
-6.900001e-02 2.198907e-11
-6.800000e-02 7.468425e-12
-6.700000e-02 -1.620400e-11
-6.600000e-02 -3.499931e-11
-6.500000e-02 -3.492565e-11
-6.400000e-02 -1.252996e-11
-6.300000e-02 2.018589e-11
-6.200000e-02 4.179388e-11
-6.100000e-02 3.621314e-11
-6.000000e-02 6.280337e-12
-5.900000e-02 -2.528299e-11
-5.800000e-02 -3.119196e-11
-5.700000e-02 -2.171423e-12
-5.600000e-02 4.052800e-11
-5.500000e-02 5.575926e-11
-5.400001e-02 1.316427e-11
-5.300000e-02 -7.662802e-11
-5.200000e-02 -1.574018e-10
-5.100000e-02 -1.585538e-10
-5.000000e-02 -4.593622e-11
-4.900000e-02 1.426677e-10
-4.800000e-02 3.073655e-10
-4.700000e-02 3.420771e-10
-4.600000e-02 2.031464e-10
-4.500000e-02 -5.629559e-11
-4.400000e-02 -3.130605e-10
-4.300000e-02 -4.466332e-10
-4.200000e-02 -4.090235e-10
-4.100000e-02 -2.435947e-10
-4.000000e-02 -4.156293e-11
-3.900000e-02 1.286442e-10
-3.800000e-02 2.633928e-10
-3.700000e-02 4.038501e-10
-3.600000e-02 5.701279e-10
-3.500000e-02 7.044382e-10
-3.400000e-02 6.754559e-10
-3.300000e-02 3.527880e-10
-3.200000e-02 -2.914639e-10
-3.100000e-02 -1.119504e-09
-3.000000e-02 -1.846696e-09
-2.900000e-02 -2.138647e-09
-2.800000e-02 -1.743593e-09
-2.700000e-02 -6.078309e-10
-2.600000e-02 1.063394e-09
-2.500000e-02 2.819571e-09
-2.400000e-02 4.063735e-09
-2.300000e-02 4.234434e-09
-2.200000e-02 3.035308e-09
-2.100000e-02 6.263665e-10
-2.000000e-02 -2.337682e-09
-1.900000e-02 -4.897116e-09
-1.800000e-02 -6.164930e-09
-1.700000e-02 -5.721136e-09
-1.600000e-02 -3.801703e-09
-1.500000e-02 -1.152654e-09
-1.400000e-02 1.380617e-09
-1.300000e-02 3.280399e-09
-1.200000e-02 4.529259e-09
-1.100000e-02 5.425891e-09
-9.999998e-03 6.194370e-09
-8.999996e-03 6.690761e-09
-8.000001e-03 6.443311e-09
-6.999999e-03 5.010496e-09
-5.999997e-03 2.384817e-09
-5.000003e-03 -8.990995e-10
-4.000001e-03 -4.118198e-09
-2.999999e-03 -7.044523e-09
-1.999997e-03 -1.061286e-08
-1.000002e-03 -1.723287e-08
0.000000e+00 -3.060041e-08
1.000002e-03 -5.509075e-08
2.000004e-03 -9.493880e-08
2.999999e-03 -1.534143e-07
4.000001e-03 -2.321762e-07
4.999995e-03 -3.310212e-07
5.999997e-03 -4.482770e-07
6.999999e-03 -5.820048e-07
8.000001e-03 -7.318574e-07
9.000003e-03 -9.010238e-07
1.000001e-02 -1.097438e-06
1.100001e-02 -1.333628e-06
1.199999e-02 -1.625197e-06
1.300000e-02 -1.988687e-06
1.400000e-02 -2.439913e-06
1.500000e-02 -2.993640e-06
1.600000e-02 -3.664687e-06
1.700000e-02 -4.469842e-06
1.800001e-02 -5.429704e-06
1.900001e-02 -6.569854e-06
2.000000e-02 -7.921399e-06
2.100000e-02 -9.521317e-06
2.200000e-02 -1.141299e-05
2.300000e-02 -1.364697e-05
2.400000e-02 -1.628178e-05
2.500001e-02 -1.938450e-05
2.600001e-02 -2.303137e-05
2.700000e-02 -2.730864e-05
2.800000e-02 -3.231378e-05
2.900000e-02 -3.815699e-05
3.000000e-02 -4.496231e-05
3.100000e-02 -5.286833e-05
3.200001e-02 -6.202864e-05
3.300001e-02 -7.261299e-05
3.400001e-02 -8.480952e-05
3.500000e-02 -9.882801e-05
3.600000e-02 -1.149030e-04
3.700000e-02 -1.332953e-04
3.800000e-02 -1.542922e-04
3.900000e-02 -1.782058e-04
4.000001e-02 -2.053729e-04
4.100001e-02 -2.361556e-04
4.200000e-02 -2.709438e-04
4.300000e-02 -3.101578e-04
4.400000e-02 -3.542501e-04
4.500000e-02 -4.037036e-04
4.600000e-02 -4.590297e-04
4.700001e-02 -5.207650e-04
4.800001e-02 -5.894697e-04
4.900001e-02 -6.657257e-04
5.000000e-02 -7.501345e-04
5.100000e-02 -8.433141e-04
5.200000e-02 -9.458930e-04
5.300000e-02 -1.058505e-03
5.400001e-02 -1.181781e-03
5.500001e-02 -1.316346e-03
5.600001e-02 -1.462807e-03
5.700000e-02 -1.621748e-03
5.800000e-02 -1.793716e-03
5.900000e-02 -1.979212e-03
6.000000e-02 -2.178676e-03
6.100000e-02 -2.392483e-03
6.200001e-02 -2.620929e-03
6.300001e-02 -2.864217e-03
6.400001e-02 -3.122443e-03
6.500000e-02 -3.395581e-03
6.600000e-02 -3.683463e-03
6.700000e-02 -3.985768e-03
6.800000e-02 -4.302013e-03
6.900001e-02 -4.631539e-03
7.000001e-02 -4.973508e-03
7.100001e-02 -5.326883e-03
7.200000e-02 -5.690423e-03
7.300000e-02 -6.062671e-03
7.400000e-02 -6.441954e-03
7.500000e-02 -6.826385e-03
7.600001e-02 -7.213861e-03
7.700001e-02 -7.602070e-03
7.800001e-02 -7.988488e-03
7.900001e-02 -8.370394e-03
8.000000e-02 -8.744877e-03
8.100000e-02 -9.108859e-03
8.200000e-02 -9.459118e-03
8.300000e-02 -9.792312e-03
8.400001e-02 -1.010501e-02
8.500001e-02 -1.039370e-02
8.600001e-02 -1.065486e-02
8.700001e-02 -1.088497e-02
8.800000e-02 -1.108053e-02
8.900000e-02 -1.123816e-02
9.000000e-02 -1.135460e-02
9.100001e-02 -1.142676e-02
9.200001e-02 -1.145175e-02
9.300001e-02 -1.142696e-02
9.400001e-02 -1.135007e-02
9.500000e-02 -1.121910e-02
9.600000e-02 -1.103246e-02
9.700000e-02 -1.078899e-02
9.800000e-02 -1.048794e-02
9.900001e-02 -1.012909e-02
1.000000e-01 -9.712653e-03
1.010000e-01 -9.239405e-03
1.020000e-01 -8.710632e-03
1.030000e-01 -8.128151e-03
1.040000e-01 -7.494305e-03
1.050000e-01 -6.811947e-03
1.060000e-01 -6.084428e-03
1.070000e-01 -5.315574e-03
1.080000e-01 -4.509656e-03
1.090000e-01 -3.671358e-03
1.100000e-01 -2.805724e-03
1.110000e-01 -1.918108e-03
1.120000e-01 -1.014115e-03
1.130000e-01 -9.954622e-05
1.140000e-01 8.196652e-04
1.150000e-01 1.737516e-03
1.160000e-01 2.648005e-03
1.170000e-01 3.545204e-03
1.180000e-01 4.423331e-03
1.190000e-01 5.276816e-03
1.200000e-01 6.100367e-03
1.210000e-01 6.889027e-03
1.220000e-01 7.638235e-03
1.230000e-01 8.343888e-03
1.240000e-01 9.002393e-03
1.250000e-01 9.610711e-03
1.260000e-01 1.016639e-02
1.270000e-01 1.066759e-02
1.280000e-01 1.111309e-02
1.290000e-01 1.150233e-02
1.300000e-01 1.183539e-02
1.310000e-01 1.211301e-02
1.320000e-01 1.233658e-02
1.330000e-01 1.250810e-02
1.340000e-01 1.263016e-02
1.350000e-01 1.270590e-02
1.360000e-01 1.273898e-02
1.370000e-01 1.273353e-02
1.380000e-01 1.269409e-02
1.390000e-01 1.262559e-02
1.400000e-01 1.253323e-02
1.410000e-01 1.242245e-02
1.420000e-01 1.229883e-02
1.430000e-01 1.216806e-02
1.440000e-01 1.203588e-02
1.450000e-01 1.190794e-02
1.460000e-01 1.178980e-02
1.470000e-01 1.168683e-02
1.480000e-01 1.160412e-02
1.490000e-01 1.154645e-02
1.500000e-01 1.151822e-02
1.510000e-01 1.152339e-02
1.520000e-01 1.156540e-02
1.530000e-01 1.164717e-02
1.540000e-01 1.177099e-02
1.550000e-01 1.193852e-02
1.560000e-01 1.215076e-02
1.570000e-01 1.240799e-02
1.580000e-01 1.270982e-02
1.590000e-01 1.305506e-02
1.600000e-01 1.344180e-02
1.610000e-01 1.386736e-02
1.620000e-01 1.432836e-02
1.630000e-01 1.482065e-02
1.640000e-01 1.533941e-02
1.650000e-01 1.587916e-02
1.660000e-01 1.643373e-02
1.670000e-01 1.699641e-02
1.680000e-01 1.755992e-02
1.690000e-01 1.811654e-02
1.700000e-01 1.865816e-02
1.710000e-01 1.917634e-02
1.720000e-01 1.966241e-02
1.730000e-01 2.010753e-02
1.740000e-01 2.050279e-02
1.750000e-01 2.083937e-02
1.760000e-01 2.110860e-02
1.770000e-01 2.130206e-02
1.780000e-01 2.141172e-02
1.790000e-01 2.143001e-02
1.800000e-01 2.134991e-02
1.810000e-01 2.116511e-02
1.820000e-01 2.087008e-02
1.830000e-01 2.046019e-02
1.840000e-01 1.993180e-02
1.850000e-01 1.928226e-02
1.860000e-01 1.851004e-02
1.870000e-01 1.761474e-02
1.880000e-01 1.659722e-02
1.890000e-01 1.545955e-02
1.900000e-01 1.420510e-02
1.910000e-01 1.283846e-02
1.920000e-01 1.136543e-02
1.930000e-01 9.793020e-03
1.940000e-01 8.129361e-03
1.950000e-01 6.383715e-03
1.960000e-01 4.566364e-03
1.970000e-01 2.688502e-03
1.980000e-01 7.621058e-04
1.990000e-01 -1.200196e-03
2.000000e-01 -3.185228e-03
2.010000e-01 -5.179386e-03
2.020000e-01 -7.168776e-03
2.030000e-01 -9.139376e-03
2.040000e-01 -1.107721e-02
2.050000e-01 -1.296855e-02
2.060000e-01 -1.479999e-02
2.070000e-01 -1.655867e-02
2.080000e-01 -1.823229e-02
2.090000e-01 -1.980934e-02
2.100000e-01 -2.127918e-02
2.110000e-01 -2.263223e-02
2.120000e-01 -2.386003e-02
2.130000e-01 -2.495533e-02
2.140000e-01 -2.591212e-02
2.150000e-01 -2.672565e-02
2.160000e-01 -2.739253e-02
2.170000e-01 -2.791070e-02
2.180000e-01 -2.827953e-02
2.190000e-01 -2.849972e-02
2.200000e-01 -2.857327e-02
2.210000e-01 -2.850342e-02
2.220000e-01 -2.829454e-02
2.230000e-01 -2.795210e-02
2.240000e-01 -2.748262e-02
2.250000e-01 -2.689356e-02
2.260000e-01 -2.619321e-02
2.270000e-01 -2.539050e-02
2.280000e-01 -2.449489e-02
2.290000e-01 -2.351627e-02
2.300000e-01 -2.246488e-02
2.310000e-01 -2.135115e-02
2.320000e-01 -2.018566e-02
2.330000e-01 -1.897891e-02
2.340000e-01 -1.774122e-02
2.350000e-01 -1.648265e-02
2.360000e-01 -1.521289e-02
2.370000e-01 -1.394123e-02
2.380000e-01 -1.267651e-02
2.390000e-01 -1.142699e-02
2.400000e-01 -1.020029e-02
2.410000e-01 -9.003345e-03
2.420000e-01 -7.842345e-03
2.430000e-01 -6.722788e-03
2.440000e-01 -5.649481e-03
2.450000e-01 -4.626529e-03
2.460000e-01 -3.657307e-03
2.470000e-01 -2.744447e-03
2.480000e-01 -1.889867e-03
2.490000e-01 -1.094825e-03
2.500000e-01 -3.599920e-04
2.510000e-01 3.144971e-04
2.520000e-01 9.290239e-04
2.530000e-01 1.484473e-03
2.540000e-01 1.982199e-03
2.550000e-01 2.423957e-03
2.560000e-01 2.811819e-03
2.570000e-01 3.148103e-03
2.580000e-01 3.435330e-03
2.590000e-01 3.676210e-03
2.600000e-01 3.873624e-03
2.610000e-01 4.030576e-03
2.620000e-01 4.150126e-03
2.630000e-01 4.235317e-03
2.640000e-01 4.289146e-03
2.650000e-01 4.314553e-03
2.660000e-01 4.314433e-03
2.670000e-01 4.291618e-03
2.680000e-01 4.248842e-03
2.690000e-01 4.188687e-03
2.700000e-01 4.113561e-03
2.710000e-01 4.025705e-03
2.720000e-01 3.927214e-03
2.730000e-01 3.820060e-03
2.740000e-01 3.706082e-03
2.750000e-01 3.586947e-03
2.760000e-01 3.464130e-03
2.770000e-01 3.338917e-03
2.780000e-01 3.212448e-03
2.790000e-01 3.085753e-03
2.800000e-01 2.959766e-03
2.810000e-01 2.835307e-03
2.820000e-01 2.713048e-03
2.830000e-01 2.593515e-03
2.840000e-01 2.477112e-03
2.850000e-01 2.364175e-03
2.860000e-01 2.255002e-03
2.870000e-01 2.149845e-03
2.880000e-01 2.048881e-03
2.890000e-01 1.952189e-03
2.900000e-01 1.859762e-03
2.910000e-01 1.771554e-03
2.920000e-01 1.687520e-03
2.930000e-01 1.607627e-03
2.940000e-01 1.531820e-03
2.950000e-01 1.459997e-03
2.960000e-01 1.391991e-03
2.970000e-01 1.327608e-03
2.980000e-01 1.266672e-03
2.990000e-01 1.209046e-03
3.000000e-01 1.154618e-03
3.010000e-01 1.103259e-03
3.020000e-01 1.054796e-03
3.030000e-01 1.009025e-03
3.040000e-01 9.657530e-04
3.050000e-01 9.248321e-04
3.060000e-01 8.861623e-04
3.070000e-01 8.496533e-04
3.080000e-01 8.151829e-04
3.090000e-01 7.825898e-04
3.100000e-01 7.517055e-04
3.110000e-01 7.224004e-04
3.120000e-01 6.946024e-04
3.130000e-01 6.682713e-04
3.140000e-01 6.433513e-04
3.150000e-01 6.197424e-04
3.160000e-01 5.973151e-04
3.170000e-01 5.759565e-04
3.180000e-01 5.556073e-04
3.190000e-01 5.362554e-04
3.200000e-01 5.178932e-04
3.210000e-01 5.004734e-04
3.220000e-01 4.839030e-04
3.230000e-01 4.680798e-04
3.240000e-01 4.529407e-04
3.250000e-01 4.384784e-04
3.260000e-01 4.247113e-04
3.270000e-01 4.116333e-04
3.280000e-01 3.991857e-04
3.290000e-01 3.872772e-04
3.300000e-01 3.758333e-04
3.310000e-01 3.648332e-04
3.320000e-01 3.543009e-04
3.330000e-01 3.442575e-04
3.340000e-01 3.346782e-04
3.350000e-01 3.254890e-04
3.360000e-01 3.166082e-04
3.370000e-01 3.079959e-04
3.380000e-01 2.996678e-04
3.390000e-01 2.916623e-04
3.400000e-01 2.839885e-04
3.410000e-01 2.766017e-04
3.420000e-01 2.694277e-04
3.430000e-01 2.624141e-04
3.440000e-01 2.555644e-04
3.450000e-01 2.489237e-04
3.460000e-01 2.425290e-04
3.470000e-01 2.363676e-04
3.480000e-01 2.303800e-04
3.490000e-01 2.245059e-04
3.500000e-01 2.187311e-04
3.510000e-01 2.130966e-04
3.520000e-01 2.076585e-04
3.530000e-01 2.024366e-04
3.540000e-01 1.973940e-04
3.550000e-01 1.924691e-04
3.560000e-01 1.876287e-04
3.570000e-01 1.828973e-04
3.580000e-01 1.783356e-04
3.590000e-01 1.739860e-04
3.600000e-01 1.698334e-04
3.610000e-01 1.658168e-04
3.620000e-01 1.618807e-04
3.630000e-01 1.580230e-04
3.640000e-01 1.542961e-04
3.650000e-01 1.507596e-04
3.660000e-01 1.474263e-04
3.670000e-01 1.442477e-04
3.680000e-01 1.411533e-04
3.690000e-01 1.381090e-04
3.700000e-01 1.351434e-04
3.710000e-01 1.323192e-04
3.720000e-01 1.296733e-04
3.730000e-01 1.271792e-04
3.740000e-01 1.247641e-04
3.750000e-01 1.223672e-04
3.760000e-01 1.199872e-04
3.770000e-01 1.176786e-04
3.780000e-01 1.154976e-04
3.790000e-01 1.134468e-04
3.800000e-01 1.114651e-04
3.810000e-01 1.094746e-04
3.820000e-01 1.074427e-04
3.830000e-01 1.054056e-04
3.840000e-01 1.034333e-04
3.850000e-01 1.015645e-04
3.860000e-01 9.976905e-05
3.870000e-01 9.797051e-05
3.880000e-01 9.610870e-05
3.890000e-01 9.418894e-05
3.900000e-01 9.227470e-05
3.910000e-01 9.043052e-05
3.920000e-01 8.866511e-05
3.930000e-01 8.692451e-05
3.940000e-01 8.514102e-05
3.950000e-01 8.329498e-05
3.960000e-01 8.143484e-05
3.970000e-01 7.963787e-05
3.980000e-01 7.794565e-05
3.990000e-01 7.633094e-05
4.000000e-01 7.472499e-05
4.010000e-01 7.308155e-05
4.020000e-01 7.142143e-05
4.030000e-01 6.981820e-05
4.040000e-01 6.833778e-05
4.050000e-01 6.698434e-05
4.060000e-01 6.570039e-05
4.070000e-01 6.442062e-05
4.080000e-01 6.313222e-05
4.090000e-01 6.188822e-05
4.100000e-01 6.076179e-05
4.110000e-01 5.978144e-05
4.120000e-01 5.890432e-05
4.130000e-01 5.805164e-05
4.140000e-01 5.717560e-05
4.150000e-01 5.629928e-05
4.160000e-01 5.549381e-05
4.170000e-01 5.481233e-05
4.180000e-01 5.423819e-05
4.190000e-01 5.369313e-05
4.200000e-01 5.309903e-05
4.210000e-01 5.243997e-05
4.220001e-01 5.177062e-05
4.230000e-01 5.116356e-05
4.240000e-01 5.064110e-05
4.250000e-01 5.015114e-05
4.260000e-01 4.960800e-05
4.270000e-01 4.896293e-05
4.280000e-01 4.824284e-05
4.290000e-01 4.752368e-05
4.300000e-01 4.686169e-05
4.310000e-01 4.624249e-05
4.320000e-01 4.559242e-05
4.330000e-01 4.484224e-05
4.340000e-01 4.398770e-05
4.350000e-01 4.309430e-05
4.360000e-01 4.224233e-05
4.370000e-01 4.146005e-05
4.380000e-01 4.070304e-05
4.390000e-01 3.989716e-05
4.400000e-01 3.900701e-05
4.410000e-01 3.807004e-05
4.420000e-01 3.716690e-05
4.430000e-01 3.635447e-05
4.440000e-01 3.562073e-05
4.450000e-01 3.490065e-05
4.460000e-01 3.413853e-05
4.470000e-01 3.334146e-05
4.480000e-01 3.257650e-05
4.490000e-01 3.191405e-05
4.500000e-01 3.136756e-05
4.510000e-01 3.088299e-05
4.520000e-01 3.038764e-05
4.530000e-01 2.985560e-05
4.540000e-01 2.933192e-05
4.550000e-01 2.889399e-05
4.560000e-01 2.858342e-05
4.570000e-01 2.836823e-05
4.580000e-01 2.816869e-05
4.590001e-01 2.792448e-05
4.600000e-01 2.764447e-05
4.610000e-01 2.739547e-05
4.620000e-01 2.723964e-05
4.630000e-01 2.717532e-05
4.640000e-01 2.713357e-05
4.650000e-01 2.703381e-05
4.660000e-01 2.685042e-05
4.670000e-01 2.663204e-05
4.680000e-01 2.645633e-05
4.690000e-01 2.635893e-05
4.700000e-01 2.629824e-05
4.710000e-01 2.618677e-05
4.720000e-01 2.596217e-05
4.730000e-01 2.563701e-05
4.740000e-01 2.528467e-05
4.750000e-01 2.497410e-05
4.760000e-01 2.471000e-05
4.770000e-01 2.442972e-05
4.780000e-01 2.405880e-05
4.790000e-01 2.357646e-05
4.800000e-01 2.303431e-05
4.810000e-01 2.251286e-05
4.820001e-01 2.205418e-05
4.830000e-01 2.162925e-05
4.840000e-01 2.116749e-05
4.850000e-01 2.062197e-05
4.860000e-01 2.001326e-05
4.870000e-01 1.941437e-05
4.880000e-01 1.889102e-05
4.890000e-01 1.844963e-05
4.900000e-01 1.803795e-05
4.910000e-01 1.759637e-05
4.920000e-01 1.711407e-05
4.930000e-01 1.664077e-05
4.940000e-01 1.624489e-05
4.950000e-01 1.595573e-05
4.960001e-01 1.574078e-05
4.970000e-01 1.553743e-05
4.980000e-01 1.531013e-05
4.990000e-01 1.508204e-05
5.000000e-01 1.491329e-05
5.010000e-01 1.484566e-05
5.020000e-01 1.486295e-05
5.030000e-01 1.490235e-05
5.040000e-01 1.490672e-05
5.050000e-01 1.487167e-05
5.060000e-01 1.484592e-05
5.070000e-01 1.488475e-05
5.080000e-01 1.499766e-05
5.090000e-01 1.513628e-05
5.100001e-01 1.523302e-05
5.110000e-01 1.525620e-05
5.120000e-01 1.523324e-05
5.130000e-01 1.522171e-05
5.140000e-01 1.525396e-05
5.150000e-01 1.530437e-05
5.160000e-01 1.530833e-05
5.170000e-01 1.521638e-05
5.180000e-01 1.503607e-05
5.190001e-01 1.482492e-05
5.200000e-01 1.464039e-05
5.210000e-01 1.449041e-05
5.220000e-01 1.432743e-05
5.230000e-01 1.409087e-05
5.240000e-01 1.376094e-05
5.250000e-01 1.337708e-05
5.260000e-01 1.300556e-05
5.270000e-01 1.268473e-05
5.280000e-01 1.239560e-05
5.290000e-01 1.208284e-05
5.300000e-01 1.170711e-05
5.310000e-01 1.128303e-05
5.320000e-01 1.086986e-05
5.330001e-01 1.052361e-05
5.340000e-01 1.025253e-05
5.350000e-01 1.001427e-05
5.360000e-01 9.756462e-06
5.370000e-01 9.464919e-06
5.380000e-01 9.177602e-06
5.390000e-01 8.953082e-06
5.400000e-01 8.821527e-06
5.410000e-01 8.760815e-06
5.420001e-01 8.717672e-06
5.430000e-01 8.654383e-06
5.440000e-01 8.580109e-06
5.450000e-01 8.540220e-06
5.460000e-01 8.574120e-06
5.470001e-01 8.679051e-06
5.480000e-01 8.811151e-06
5.490000e-01 8.921903e-06
5.500000e-01 8.997442e-06
5.510000e-01 9.066573e-06
5.520000e-01 9.171442e-06
5.530000e-01 9.327361e-06
5.540000e-01 9.506939e-06
5.550000e-01 9.661499e-06
5.560001e-01 9.760026e-06
5.570000e-01 9.811321e-06
5.580000e-01 9.850768e-06
5.590000e-01 9.904658e-06
5.600000e-01 9.964197e-06
5.610000e-01 9.991847e-06
5.620000e-01 9.953609e-06
5.630000e-01 9.848167e-06
5.640000e-01 9.707254e-06
5.650001e-01 9.567478e-06
5.660000e-01 9.438835e-06
5.670000e-01 9.297448e-06
5.680000e-01 9.108199e-06
5.690000e-01 8.856725e-06
5.700001e-01 8.562670e-06
5.710000e-01 8.263319e-06
5.720000e-01 7.982931e-06
5.730000e-01 7.715068e-06
5.740000e-01 7.432949e-06
5.750000e-01 7.117792e-06
5.760000e-01 6.779613e-06
5.770000e-01 6.452266e-06
5.780000e-01 6.167614e-06
5.790001e-01 5.931779e-06
5.800000e-01 5.723970e-06
5.810000e-01 5.518033e-06
5.820000e-01 5.307255e-06
5.830000e-01 5.110907e-06
5.840001e-01 4.957834e-06
5.850000e-01 4.862485e-06
5.860000e-01 4.814555e-06
5.870000e-01 4.790408e-06
5.880000e-01 4.774985e-06
5.890000e-01 4.774335e-06
5.900000e-01 4.808231e-06
5.910000e-01 4.890463e-06
5.920000e-01 5.014928e-06
5.930001e-01 5.159496e-06
5.940000e-01 5.303275e-06
5.950000e-01 5.441239e-06
5.960000e-01 5.583529e-06
5.970000e-01 5.741177e-06
5.980000e-01 5.912163e-06
5.990000e-01 6.080524e-06
6.000000e-01 6.228594e-06
6.010000e-01 6.350302e-06
6.020001e-01 6.453016e-06
6.030000e-01 6.546631e-06
6.040000e-01 6.630676e-06
6.050000e-01 6.691879e-06
6.060000e-01 6.714481e-06
6.070001e-01 6.693486e-06
6.080000e-01 6.638249e-06
6.090000e-01 6.562990e-06
6.100000e-01 6.473214e-06
6.110000e-01 6.360976e-06
6.120000e-01 6.213590e-06
6.130000e-01 6.027649e-06
6.140000e-01 5.814986e-06
6.150000e-01 5.594594e-06
6.160001e-01 5.377700e-06
6.170000e-01 5.159868e-06
6.180000e-01 4.927786e-06
6.190000e-01 4.674805e-06
6.200000e-01 4.410921e-06
6.210001e-01 4.157693e-06
6.220000e-01 3.932354e-06
6.230000e-01 3.735508e-06
6.240000e-01 3.553787e-06
6.250001e-01 3.375181e-06
6.260000e-01 3.202991e-06
6.270000e-01 3.055313e-06
6.280000e-01 2.950205e-06
6.290000e-01 2.890001e-06
6.300001e-01 2.859427e-06
6.310000e-01 2.839685e-06
6.320000e-01 2.825892e-06
6.330000e-01 2.831734e-06
6.340000e-01 2.876601e-06
6.350001e-01 2.966593e-06
6.360000e-01 3.086803e-06
6.370000e-01 3.212444e-06
6.380000e-01 3.329145e-06
6.390001e-01 3.443986e-06
6.400000e-01 3.576774e-06
6.410000e-01 3.739001e-06
6.420000e-01 3.919525e-06
6.430000e-01 4.090514e-06
6.440001e-01 4.229001e-06
6.450000e-01 4.334900e-06
6.460000e-01 4.428934e-06
6.470000e-01 4.531738e-06
6.480000e-01 4.642674e-06
6.490000e-01 4.737647e-06
6.500000e-01 4.788484e-06
6.510000e-01 4.786786e-06
6.520000e-01 4.750620e-06
6.530001e-01 4.707533e-06
6.540000e-01 4.668848e-06
6.550000e-01 4.618637e-06
6.560000e-01 4.528025e-06
6.570000e-01 4.382520e-06
6.580001e-01 4.197618e-06
6.590000e-01 4.007758e-06
6.600000e-01 3.837587e-06
6.610000e-01 3.681107e-06
6.620001e-01 3.508151e-06
6.630000e-01 3.293500e-06
6.640000e-01 3.043065e-06
6.650000e-01 2.793129e-06
6.660000e-01 2.582086e-06
6.670001e-01 2.419046e-06
6.680000e-01 2.277533e-06
6.690000e-01 2.120997e-06
6.700000e-01 1.938411e-06
6.710000e-01 1.758192e-06
6.720001e-01 1.626901e-06
6.730000e-01 1.570238e-06
6.740000e-01 1.570443e-06
6.750000e-01 1.580936e-06
6.760001e-01 1.566656e-06
6.770000e-01 1.535348e-06
6.780000e-01 1.531867e-06
6.790000e-01 1.599400e-06
6.800000e-01 1.740760e-06
6.810001e-01 1.913731e-06
6.820000e-01 2.065329e-06
6.830000e-01 2.175729e-06
6.840000e-01 2.273555e-06
6.850001e-01 2.408626e-06
6.860000e-01 2.605401e-06
6.870000e-01 2.837693e-06
6.880000e-01 3.047281e-06
6.890000e-01 3.190861e-06
6.900001e-01 3.274760e-06
6.910000e-01 3.347006e-06
6.920000e-01 3.453332e-06
6.930000e-01 3.595265e-06
6.940000e-01 3.726925e-06
6.950001e-01 3.793485e-06
6.960000e-01 3.777760e-06
6.970000e-01 3.714113e-06
6.980000e-01 3.657406e-06
6.990001e-01 3.634222e-06
7.000000e-01 3.619301e-06
7.010000e-01 3.558169e-06
7.020000e-01 3.416226e-06
7.030000e-01 3.211091e-06
7.040001e-01 2.999443e-06
7.050000e-01 2.829643e-06
7.060000e-01 2.701706e-06
7.070000e-01 2.570021e-06
7.080001e-01 2.386601e-06
7.090001e-01 2.146709e-06
7.100000e-01 1.896294e-06
7.110000e-01 1.694171e-06
7.120000e-01 1.562115e-06
7.130001e-01 1.467175e-06
7.140000e-01 1.352516e-06
7.150000e-01 1.190101e-06
7.160000e-01 1.008652e-06
7.170000e-01 8.714227e-07
7.180001e-01 8.224189e-07
7.190000e-01 8.480488e-07
7.200000e-01 8.884226e-07
7.210000e-01 8.893275e-07
7.220001e-01 8.498572e-07
7.230000e-01 8.237377e-07
7.240000e-01 8.724285e-07
7.250000e-01 1.010399e-06
7.260000e-01 1.190429e-06
7.270001e-01 1.342347e-06
7.280000e-01 1.432003e-06
7.290000e-01 1.489176e-06
7.300000e-01 1.579761e-06
7.310000e-01 1.745999e-06
7.320001e-01 1.966700e-06
7.330000e-01 2.172413e-06
7.340000e-01 2.302880e-06
7.350000e-01 2.357146e-06
7.360001e-01 2.392716e-06
7.370000e-01 2.474177e-06
7.380000e-01 2.615582e-06
7.390000e-01 2.766488e-06
7.400000e-01 2.853803e-06
7.410001e-01 2.843311e-06
7.420000e-01 2.767701e-06
7.430000e-01 2.697100e-06
7.440000e-01 2.677874e-06
7.450001e-01 2.692852e-06
7.460001e-01 2.677209e-06
7.470000e-01 2.575817e-06
7.480000e-01 2.392019e-06
7.490000e-01 2.185600e-06
7.500001e-01 2.022163e-06
7.510000e-01 1.918308e-06
7.520000e-01 1.830211e-06
7.530000e-01 1.695020e-06
7.540000e-01 1.488394e-06
7.550001e-01 1.247804e-06
7.560000e-01 1.041563e-06
7.570000e-01 9.111710e-07
7.580000e-01 8.376534e-07
7.590001e-01 7.611843e-07
7.600001e-01 6.363615e-07
7.610000e-01 4.743384e-07
7.620000e-01 3.348012e-07
7.630000e-01 2.749814e-07
7.640001e-01 3.005945e-07
7.650000e-01 3.617611e-07
7.660000e-01 3.973357e-07
7.670000e-01 3.885594e-07
7.680001e-01 3.748733e-07
7.690001e-01 4.180970e-07
7.700000e-01 5.465974e-07
7.710000e-01 7.286475e-07
7.720000e-01 8.984971e-07
7.730001e-01 1.012317e-06
7.740000e-01 1.084853e-06
7.750000e-01 1.174470e-06
7.760000e-01 1.329496e-06
7.770000e-01 1.542869e-06
7.780001e-01 1.754966e-06
7.790000e-01 1.902534e-06
7.800000e-01 1.971246e-06
7.810000e-01 2.006120e-06
7.820001e-01 2.070585e-06
7.830001e-01 2.189659e-06
7.840000e-01 2.326557e-06
7.850000e-01 2.413039e-06
7.860000e-01 2.407220e-06
7.870001e-01 2.328819e-06
7.880000e-01 2.241514e-06
7.890000e-01 2.197903e-06
7.900000e-01 2.194748e-06
7.910001e-01 2.176999e-06
7.920001e-01 2.086723e-06
7.930000e-01 1.914362e-06
7.940000e-01 1.708175e-06
7.950000e-01 1.534150e-06
7.960001e-01 1.421381e-06
7.970001e-01 1.339964e-06
7.980000e-01 1.229827e-06
7.990000e-01 1.054880e-06
8.000000e-01 8.355372e-07
8.010001e-01 6.321040e-07
8.020000e-01 4.942596e-07
8.030000e-01 4.207618e-07
8.040000e-01 3.637953e-07
8.050001e-01 2.732318e-07
8.060001e-01 1.417483e-07
8.070000e-01 1.181078e-08
8.080000e-01 -6.076026e-08
8.090000e-01 -5.432835e-08
8.100001e-01 1.150276e-09
8.110000e-01 5.120184e-08
8.120000e-01 6.403114e-08
8.130000e-01 5.665535e-08
8.140000e-01 7.794783e-08
8.150001e-01 1.643569e-07
8.160000e-01 3.073651e-07
8.170000e-01 4.606756e-07
8.180000e-01 5.799931e-07
8.190001e-01 6.600788e-07
8.200001e-01 7.368513e-07
8.210000e-01 8.533547e-07
8.220000e-01 1.019907e-06
8.230000e-01 1.203280e-06
8.240001e-01 1.353904e-06
8.250000e-01 1.446863e-06
8.260000e-01 1.500883e-06
8.270000e-01 1.559222e-06
8.280001e-01 1.649766e-06
8.290001e-01 1.759364e-06
8.300000e-01 1.844503e-06
8.310000e-01 1.868494e-06
8.320000e-01 1.832518e-06
8.330001e-01 1.773732e-06
8.340001e-01 1.732602e-06
8.350000e-01 1.718195e-06
8.360000e-01 1.701409e-06
8.370000e-01 1.641435e-06
8.380001e-01 1.522005e-06
8.390000e-01 1.365983e-06
8.400000e-01 1.216208e-06
8.410000e-01 1.099752e-06
8.420001e-01 1.006696e-06
8.430001e-01 9.013169e-07
8.440000e-01 7.553832e-07
8.450000e-01 5.744935e-07
8.460000e-01 3.950732e-07
8.470001e-01 2.552579e-07
8.480000e-01 1.650959e-07
8.490000e-01 1.013234e-07
8.500000e-01 3.027080e-08
8.510001e-01 -6.158496e-08
8.520001e-01 -1.556851e-07
8.530000e-01 -2.175311e-07
8.540000e-01 -2.260953e-07
8.550000e-01 -1.909282e-07
8.560001e-01 -1.428113e-07
8.570001e-01 -1.068644e-07
8.580000e-01 -8.162381e-08
8.590000e-01 -4.164784e-08
8.600000e-01 3.943090e-08
8.610001e-01 1.656766e-07
8.620000e-01 3.150075e-07
8.630000e-01 4.570839e-07
8.640000e-01 5.768870e-07
8.650001e-01 6.839950e-07
8.660001e-01 8.006728e-07
8.670000e-01 9.400853e-07
8.680000e-01 1.093589e-06
8.690000e-01 1.237272e-06
8.700001e-01 1.351078e-06
8.710001e-01 1.433634e-06
8.720000e-01 1.500593e-06
8.730000e-01 1.568944e-06
8.740000e-01 1.641410e-06
8.750001e-01 1.704035e-06
8.760000e-01 1.738069e-06
8.770000e-01 1.735195e-06
8.780000e-01 1.703139e-06
8.790001e-01 1.657787e-06
