-1.200000e-01 0.000000e+00
-1.190000e-01 0.000000e+00
-1.180000e-01 0.000000e+00
-1.170000e-01 0.000000e+00
-1.160000e-01 0.000000e+00
-1.150000e-01 0.000000e+00
-1.140000e-01 0.000000e+00
-1.130000e-01 -1.131267e-21
-1.120000e-01 -3.813938e-21
-1.110000e-01 6.386258e-21
-1.100000e-01 4.273925e-20
-1.090000e-01 -3.426072e-20
-1.080000e-01 -6.177968e-19
-1.070000e-01 -1.491802e-18
-1.060000e-01 4.284027e-19
-1.050000e-01 1.104806e-17
-1.040000e-01 2.833847e-17
-1.030000e-01 2.080892e-17
-1.020000e-01 -7.335353e-17
-1.010000e-01 -2.685595e-16
-1.000000e-01 -3.728708e-16
-9.900001e-02 7.541878e-17
-9.800000e-02 1.441361e-15
-9.700000e-02 3.084228e-15
-9.600000e-02 2.611489e-15
-9.500001e-02 -3.112305e-15
-9.400000e-02 -1.407831e-14
-9.300000e-02 -2.221621e-14
-9.200001e-02 -1.145999e-14
-9.100001e-02 3.059426e-14
-9.000000e-02 9.097765e-14
-8.900000e-02 1.166759e-13
-8.800000e-02 3.413449e-14
-8.700000e-02 -1.842511e-13
-8.600000e-02 -4.386769e-13
-8.500001e-02 -4.866580e-13
-8.400001e-02 -7.369401e-14
-8.300000e-02 8.045151e-13
-8.200000e-02 1.679574e-12
-8.100000e-02 1.694487e-12
-8.000000e-02 1.457279e-13
-7.900000e-02 -2.722504e-12
-7.800000e-02 -5.273788e-12
-7.700001e-02 -5.045793e-12
-7.600001e-02 -4.388048e-13
-7.500000e-02 7.350287e-12
-7.400000e-02 1.375619e-11
-7.300000e-02 1.288560e-11
-7.200000e-02 1.737065e-12
-7.100000e-02 -1.596051e-11
-7.000001e-02 -2.971422e-11
-6.900001e-02 -2.771932e-11
-6.800000e-02 -5.546973e-12
-6.700000e-02 2.776969e-11
-6.600000e-02 5.210101e-11
-6.500000e-02 4.799703e-11
-6.400000e-02 1.147696e-11
-6.300000e-02 -3.900037e-11
-6.200000e-02 -7.107658e-11
-6.100000e-02 -5.985258e-11
-6.000000e-02 -8.307251e-12
-5.900000e-02 4.972132e-11
-5.800000e-02 7.040601e-11
-5.700000e-02 3.321933e-11
-5.600000e-02 -3.757580e-11
-5.500000e-02 -8.340917e-11
-5.400001e-02 -5.258237e-11
-5.300000e-02 5.434374e-11
-5.200000e-02 1.706751e-10
-5.100000e-02 1.994053e-10
-5.000000e-02 8.139371e-11
-4.900000e-02 -1.499804e-10
-4.800000e-02 -3.713942e-10
-4.700000e-02 -4.370191e-10
-4.600000e-02 -2.715965e-10
-4.500000e-02 7.307313e-11
-4.400000e-02 4.395411e-10
-4.300000e-02 6.526054e-10
-4.200000e-02 6.155854e-10
-4.100000e-02 3.519340e-10
-4.000000e-02 -2.911066e-11
-3.900000e-02 -4.075473e-10
-3.800000e-02 -7.063973e-10
-3.700000e-02 -8.873383e-10
-3.600000e-02 -9.071516e-10
-3.500000e-02 -6.928365e-10
-3.400000e-02 -1.794855e-10
-3.300000e-02 6.032420e-10
-3.200000e-02 1.464929e-09
-3.100000e-02 2.079307e-09
-3.000000e-02 2.112352e-09
-2.900000e-02 1.389487e-09
-2.800000e-02 4.458101e-12
-2.700000e-02 -1.690882e-09
-2.600000e-02 -3.200280e-09
-2.500000e-02 -4.030810e-09
-2.400000e-02 -3.813388e-09
-2.300000e-02 -2.386820e-09
-2.200000e-02 1.280687e-10
-2.100000e-02 3.260966e-09
-2.000000e-02 6.190324e-09
-1.900000e-02 7.895479e-09
-1.800000e-02 7.488573e-09
-1.700000e-02 4.619674e-09
-1.600000e-02 -2.547385e-10
-1.500000e-02 -5.921814e-09
-1.400000e-02 -1.079431e-08
-1.300000e-02 -1.343831e-08
-1.200000e-02 -1.298154e-08
-1.100000e-02 -9.246239e-09
-9.999998e-03 -2.662825e-09
-8.999996e-03 5.842960e-09
-8.000001e-03 1.485897e-08
-6.999999e-03 2.247003e-08
-5.999997e-03 2.645016e-08
-5.000003e-03 2.481976e-08
-4.000001e-03 1.662037e-08
-2.999999e-03 2.461281e-09
-1.999997e-03 -1.562253e-08
-1.000002e-03 -3.510275e-08
0.000000e+00 -5.426082e-08
1.000002e-03 -7.314229e-08
2.000004e-03 -9.362108e-08
2.999999e-03 -1.186019e-07
4.000001e-03 -1.509512e-07
4.999995e-03 -1.928894e-07
5.999997e-03 -2.461981e-07
6.999999e-03 -3.129833e-07
8.000001e-03 -3.963626e-07
9.000003e-03 -5.005675e-07
1.000001e-02 -6.304479e-07
1.100001e-02 -7.908106e-07
1.199999e-02 -9.860876e-07
1.300000e-02 -1.220518e-06
1.400000e-02 -1.498677e-06
1.500000e-02 -1.826102e-06
1.600000e-02 -2.209987e-06
1.700000e-02 -2.660110e-06
1.800001e-02 -3.190036e-06
1.900001e-02 -3.818206e-06
2.000000e-02 -4.568200e-06
2.100000e-02 -5.467673e-06
2.200000e-02 -6.546295e-06
2.300000e-02 -7.833877e-06
2.400000e-02 -9.360029e-06
2.500001e-02 -1.115594e-05
2.600001e-02 -1.325752e-05
2.700000e-02 -1.570821e-05
2.800000e-02 -1.856013e-05
2.900000e-02 -2.187351e-05
3.000000e-02 -2.571547e-05
3.100000e-02 -3.015998e-05
3.200001e-02 -3.528941e-05
3.300001e-02 -4.119701e-05
3.400001e-02 -4.798850e-05
3.500000e-02 -5.578183e-05
3.600000e-02 -6.470557e-05
3.700000e-02 -7.489740e-05
3.800000e-02 -8.650431e-05
3.900000e-02 -9.968462e-05
4.000001e-02 -1.146103e-04
4.100001e-02 -1.314681e-04
4.200000e-02 -1.504587e-04
4.300000e-02 -1.717951e-04
4.400000e-02 -1.957015e-04
4.500000e-02 -2.224135e-04
4.600000e-02 -2.521788e-04
4.700001e-02 -2.852567e-04
4.800001e-02 -3.219155e-04
4.900001e-02 -3.624277e-04
5.000000e-02 -4.070666e-04
5.100000e-02 -4.561041e-04
5.200000e-02 -5.098105e-04
5.300000e-02 -5.684535e-04
5.400001e-02 -6.322947e-04
5.500001e-02 -7.015825e-04
5.600001e-02 -7.765437e-04
5.700000e-02 -8.573771e-04
5.800000e-02 -9.442485e-04
5.900000e-02 -1.037288e-03
6.000000e-02 -1.136587e-03
6.100000e-02 -1.242186e-03
6.200001e-02 -1.354068e-03
6.300001e-02 -1.472145e-03
6.400001e-02 -1.596250e-03
6.500000e-02 -1.726138e-03
6.600000e-02 -1.861479e-03
6.700000e-02 -2.001852e-03
6.800000e-02 -2.146745e-03
6.900001e-02 -2.295536e-03
7.000001e-02 -2.447495e-03
7.100001e-02 -2.601778e-03
7.200000e-02 -2.757432e-03
7.300000e-02 -2.913393e-03
7.400000e-02 -3.068484e-03
7.500000e-02 -3.221416e-03
7.600001e-02 -3.370783e-03
7.700001e-02 -3.515073e-03
7.800001e-02 -3.652675e-03
7.900001e-02 -3.781900e-03
8.000000e-02 -3.900992e-03
8.100000e-02 -4.008137e-03
8.200000e-02 -4.101478e-03
8.300000e-02 -4.179123e-03
8.400001e-02 -4.239171e-03
8.500001e-02 -4.279736e-03
8.600001e-02 -4.298978e-03
8.700001e-02 -4.295119e-03
8.800000e-02 -4.266473e-03
8.900000e-02 -4.211457e-03
9.000000e-02 -4.128619e-03
9.100001e-02 -4.016672e-03
9.200001e-02 -3.874520e-03
9.300001e-02 -3.701291e-03
9.400001e-02 -3.496348e-03
9.500000e-02 -3.259314e-03
9.600000e-02 -2.990080e-03
9.700000e-02 -2.688832e-03
9.800000e-02 -2.356067e-03
9.900001e-02 -1.992610e-03
1.000000e-01 -1.599622e-03
1.010000e-01 -1.178587e-03
1.020000e-01 -7.313121e-04
1.030000e-01 -2.599161e-04
1.040000e-01 2.331714e-04
1.050000e-01 7.452151e-04
1.060000e-01 1.273189e-03
1.070000e-01 1.813801e-03
1.080000e-01 2.363529e-03
1.090000e-01 2.918649e-03
1.100000e-01 3.475270e-03
1.110000e-01 4.029359e-03
1.120000e-01 4.576770e-03
1.130000e-01 5.113294e-03
1.140000e-01 5.634703e-03
1.150000e-01 6.136797e-03
1.160000e-01 6.615448e-03
1.170000e-01 7.066623e-03
1.180000e-01 7.486423e-03
1.190000e-01 7.871105e-03
1.200000e-01 8.217132e-03
1.210000e-01 8.521205e-03
1.220000e-01 8.780303e-03
1.230000e-01 8.991699e-03
1.240000e-01 9.152962e-03
1.250000e-01 9.261973e-03
1.260000e-01 9.316934e-03
1.270000e-01 9.316378e-03
1.280000e-01 9.259180e-03
1.290000e-01 9.144549e-03
1.300000e-01 8.972012e-03
1.310000e-01 8.741393e-03
1.320000e-01 8.452792e-03
1.330000e-01 8.106572e-03
1.340000e-01 7.703347e-03
1.350000e-01 7.243962e-03
1.360000e-01 6.729457e-03
1.370000e-01 6.161037e-03
1.380000e-01 5.540038e-03
1.390000e-01 4.867905e-03
1.400000e-01 4.146180e-03
1.410000e-01 3.376498e-03
1.420000e-01 2.560563e-03
1.430000e-01 1.700127e-03
1.440000e-01 7.969682e-04
1.450000e-01 -1.471153e-04
1.460000e-01 -1.130298e-03
1.470000e-01 -2.150709e-03
1.480000e-01 -3.206411e-03
1.490000e-01 -4.295395e-03
1.500000e-01 -5.415568e-03
1.510000e-01 -6.564743e-03
1.520000e-01 -7.740600e-03
1.530000e-01 -8.940638e-03
1.540000e-01 -1.016213e-02
1.550000e-01 -1.140208e-02
1.560000e-01 -1.265720e-02
1.570000e-01 -1.392389e-02
1.580000e-01 -1.519821e-02
1.590000e-01 -1.647581e-02
1.600000e-01 -1.775190e-02
1.610000e-01 -1.902122e-02
1.620000e-01 -2.027799e-02
1.630000e-01 -2.151597e-02
1.640000e-01 -2.272841e-02
1.650000e-01 -2.390807e-02
1.660000e-01 -2.504727e-02
1.670000e-01 -2.613782e-02
1.680000e-01 -2.717108e-02
1.690000e-01 -2.813808e-02
1.700000e-01 -2.902949e-02
1.710000e-01 -2.983580e-02
1.720000e-01 -3.054734e-02
1.730000e-01 -3.115436e-02
1.740000e-01 -3.164716e-02
1.750000e-01 -3.201617e-02
1.760000e-01 -3.225208e-02
1.770000e-01 -3.234605e-02
1.780000e-01 -3.228979e-02
1.790000e-01 -3.207570e-02
1.800000e-01 -3.169696e-02
1.810000e-01 -3.114773e-02
1.820000e-01 -3.042319e-02
1.830000e-01 -2.951977e-02
1.840000e-01 -2.843523e-02
1.850000e-01 -2.716879e-02
1.860000e-01 -2.572115e-02
1.870000e-01 -2.409459e-02
1.880000e-01 -2.229303e-02
1.890000e-01 -2.032203e-02
1.900000e-01 -1.818890e-02
1.910000e-01 -1.590263e-02
1.920000e-01 -1.347389e-02
1.930000e-01 -1.091493e-02
1.940000e-01 -8.239500e-03
1.950000e-01 -5.462762e-03
1.960000e-01 -2.601187e-03
1.970000e-01 3.275739e-04
1.980000e-01 3.304857e-03
1.990000e-01 6.311181e-03
2.000000e-01 9.326462e-03
2.010000e-01 1.233021e-02
2.020000e-01 1.530176e-02
2.030000e-01 1.822042e-02
2.040000e-01 2.106575e-02
2.050000e-01 2.381776e-02
2.060000e-01 2.645714e-02
2.070000e-01 2.896554e-02
2.080000e-01 3.132569e-02
2.090000e-01 3.352162e-02
2.100000e-01 3.553883e-02
2.110000e-01 3.736440e-02
2.120000e-01 3.898715e-02
2.130000e-01 4.039779e-02
2.140000e-01 4.158897e-02
2.150000e-01 4.255540e-02
2.160000e-01 4.329377e-02
2.170000e-01 4.380283e-02
2.180000e-01 4.408332e-02
2.190000e-01 4.413798e-02
2.200000e-01 4.397145e-02
2.210000e-01 4.359026e-02
2.220000e-01 4.300261e-02
2.230000e-01 4.221828e-02
2.240000e-01 4.124846e-02
2.250000e-01 4.010563e-02
2.260000e-01 3.880335e-02
2.270000e-01 3.735612e-02
2.280000e-01 3.577920e-02
2.290000e-01 3.408837e-02
2.300000e-01 3.229976e-02
2.310000e-01 3.042966e-02
2.320000e-01 2.849437e-02
2.330000e-01 2.651000e-02
2.340000e-01 2.449236e-02
2.350000e-01 2.245677e-02
2.360000e-01 2.041791e-02
2.370000e-01 1.838971e-02
2.380000e-01 1.638524e-02
2.390000e-01 1.441663e-02
2.400000e-01 1.249503e-02
2.410000e-01 1.063051e-02
2.420000e-01 8.832002e-03
2.430000e-01 7.107327e-03
2.440000e-01 5.463142e-03
2.450000e-01 3.904980e-03
2.460000e-01 2.437266e-03
2.470000e-01 1.063347e-03
2.480000e-01 -2.144768e-04
2.490000e-01 -1.394903e-03
2.500000e-01 -2.477564e-03
2.510000e-01 -3.462954e-03
2.520000e-01 -4.352346e-03
2.530000e-01 -5.147718e-03
2.540000e-01 -5.851683e-03
2.550000e-01 -6.467416e-03
2.560000e-01 -6.998567e-03
2.570000e-01 -7.449181e-03
2.580000e-01 -7.823606e-03
2.590000e-01 -8.126430e-03
2.600000e-01 -8.362413e-03
2.610000e-01 -8.536433e-03
2.620000e-01 -8.653420e-03
2.630000e-01 -8.718299e-03
2.640000e-01 -8.735925e-03
2.650000e-01 -8.711042e-03
2.660000e-01 -8.648249e-03
2.670000e-01 -8.551984e-03
2.680000e-01 -8.426495e-03
2.690000e-01 -8.275818e-03
2.700000e-01 -8.103745e-03
2.710000e-01 -7.913804e-03
2.720000e-01 -7.709257e-03
2.730000e-01 -7.493111e-03
2.740000e-01 -7.268128e-03
2.750000e-01 -7.036823e-03
2.760000e-01 -6.801466e-03
2.770000e-01 -6.564063e-03
2.780000e-01 -6.326379e-03
2.790000e-01 -6.089949e-03
2.800000e-01 -5.856117e-03
2.810000e-01 -5.626049e-03
2.820000e-01 -5.400742e-03
2.830000e-01 -5.181017e-03
2.840000e-01 -4.967528e-03
2.850000e-01 -4.760775e-03
2.860000e-01 -4.561138e-03
2.870000e-01 -4.368905e-03
2.880000e-01 -4.184275e-03
2.890000e-01 -4.007368e-03
2.900000e-01 -3.838209e-03
2.910000e-01 -3.676743e-03
2.920000e-01 -3.522854e-03
2.930000e-01 -3.376389e-03
2.940000e-01 -3.237172e-03
2.950000e-01 -3.105005e-03
2.960000e-01 -2.979657e-03
2.970000e-01 -2.860863e-03
2.980000e-01 -2.748338e-03
2.990000e-01 -2.641788e-03
3.000000e-01 -2.540935e-03
3.010000e-01 -2.445508e-03
3.020000e-01 -2.355240e-03
3.030000e-01 -2.269851e-03
3.040000e-01 -2.189052e-03
3.050000e-01 -2.112561e-03
3.060000e-01 -2.040118e-03
3.070000e-01 -1.971491e-03
3.080000e-01 -1.906468e-03
3.090000e-01 -1.844837e-03
3.100000e-01 -1.786384e-03
3.110000e-01 -1.730896e-03
3.120000e-01 -1.678181e-03
3.130000e-01 -1.628073e-03
3.140000e-01 -1.580431e-03
3.150000e-01 -1.535122e-03
3.160000e-01 -1.492001e-03
3.170000e-01 -1.450916e-03
3.180000e-01 -1.411718e-03
3.190000e-01 -1.374279e-03
3.200000e-01 -1.338493e-03
3.210000e-01 -1.304268e-03
3.220000e-01 -1.271507e-03
3.230000e-01 -1.240104e-03
3.240000e-01 -1.209945e-03
3.250000e-01 -1.180920e-03
3.260000e-01 -1.152939e-03
3.270000e-01 -1.125928e-03
3.280000e-01 -1.099817e-03
3.290000e-01 -1.074534e-03
3.300000e-01 -1.049999e-03
3.310000e-01 -1.026135e-03
3.320000e-01 -1.002874e-03
3.330000e-01 -9.801673e-04
3.340000e-01 -9.579732e-04
3.350000e-01 -9.362566e-04
3.360000e-01 -9.149843e-04
3.370000e-01 -8.941290e-04
3.380000e-01 -8.736739e-04
3.390000e-01 -8.536125e-04
3.400000e-01 -8.339438e-04
3.410000e-01 -8.146668e-04
3.420000e-01 -7.957817e-04
3.430000e-01 -7.772967e-04
3.440000e-01 -7.592324e-04
3.450000e-01 -7.416195e-04
3.460000e-01 -7.244863e-04
3.470000e-01 -7.078483e-04
3.480000e-01 -6.917077e-04
3.490000e-01 -6.760649e-04
3.500000e-01 -6.609341e-04
3.510000e-01 -6.463468e-04
3.520000e-01 -6.323392e-04
3.530000e-01 -6.189315e-04
3.540000e-01 -6.061160e-04
3.550000e-01 -5.938649e-04
3.560000e-01 -5.821523e-04
3.570000e-01 -5.709734e-04
3.580000e-01 -5.603445e-04
3.590000e-01 -5.502814e-04
3.600000e-01 -5.407752e-04
3.610000e-01 -5.317850e-04
3.620000e-01 -5.232540e-04
3.630000e-01 -5.151388e-04
3.640000e-01 -5.074269e-04
3.650000e-01 -5.001287e-04
3.660000e-01 -4.932510e-04
3.670000e-01 -4.867718e-04
3.680000e-01 -4.806390e-04
3.690000e-01 -4.747920e-04
3.700000e-01 -4.691890e-04
3.710000e-01 -4.638183e-04
3.720000e-01 -4.586850e-04
3.730000e-01 -4.537849e-04
3.740000e-01 -4.490865e-04
3.750000e-01 -4.445366e-04
3.760000e-01 -4.400805e-04
3.770000e-01 -4.356820e-04
3.780000e-01 -4.313249e-04
3.790000e-01 -4.269975e-04
3.800000e-01 -4.226754e-04
3.810000e-01 -4.183161e-04
3.820000e-01 -4.138705e-04
3.830000e-01 -4.092983e-04
3.840000e-01 -4.045757e-04
3.850000e-01 -3.996879e-04
3.860000e-01 -3.946173e-04
3.870000e-01 -3.893393e-04
3.880000e-01 -3.838290e-04
3.890000e-01 -3.780732e-04
3.900000e-01 -3.720747e-04
3.910000e-01 -3.658446e-04
3.920000e-01 -3.593903e-04
3.930000e-01 -3.527130e-04
3.940000e-01 -3.458185e-04
3.950000e-01 -3.387333e-04
3.960000e-01 -3.315096e-04
3.970000e-01 -3.242125e-04
3.980000e-01 -3.168962e-04
3.990000e-01 -3.095905e-04
4.000000e-01 -3.023097e-04
4.010000e-01 -2.950783e-04
4.020000e-01 -2.879527e-04
4.030000e-01 -2.810179e-04
4.040000e-01 -2.743591e-04
4.050000e-01 -2.680299e-04
4.060000e-01 -2.620418e-04
4.070000e-01 -2.563852e-04
4.080000e-01 -2.510650e-04
4.090000e-01 -2.461213e-04
4.100000e-01 -2.416163e-04
4.110000e-01 -2.375983e-04
4.120000e-01 -2.340697e-04
4.130000e-01 -2.309864e-04
4.140000e-01 -2.282894e-04
4.150000e-01 -2.259435e-04
4.160000e-01 -2.239528e-04
4.170000e-01 -2.223401e-04
4.180000e-01 -2.211099e-04
4.190000e-01 -2.202230e-04
4.200000e-01 -2.196054e-04
4.210000e-01 -2.191820e-04
4.220001e-01 -2.189091e-04
4.230000e-01 -2.187791e-04
4.240000e-01 -2.187966e-04
4.250000e-01 -2.189472e-04
4.260000e-01 -2.191839e-04
4.270000e-01 -2.194416e-04
4.280000e-01 -2.196655e-04
4.290000e-01 -2.198293e-04
4.300000e-01 -2.199299e-04
4.310000e-01 -2.199666e-04
4.320000e-01 -2.199226e-04
4.330000e-01 -2.197650e-04
4.340000e-01 -2.194591e-04
4.350000e-01 -2.189824e-04
4.360000e-01 -2.183253e-04
4.370000e-01 -2.174788e-04
4.380000e-01 -2.164240e-04
4.390000e-01 -2.151337e-04
4.400000e-01 -2.135855e-04
4.410000e-01 -2.117738e-04
4.420000e-01 -2.097066e-04
4.430000e-01 -2.073894e-04
4.440000e-01 -2.048114e-04
4.450000e-01 -2.019479e-04
4.460000e-01 -1.987802e-04
4.470000e-01 -1.953171e-04
4.480000e-01 -1.915970e-04
4.490000e-01 -1.876681e-04
4.500000e-01 -1.835603e-04
4.510000e-01 -1.792744e-04
4.520000e-01 -1.747993e-04
4.530000e-01 -1.701452e-04
4.540000e-01 -1.653649e-04
4.550000e-01 -1.605447e-04
4.560000e-01 -1.557690e-04
4.570000e-01 -1.510867e-04
4.580000e-01 -1.465063e-04
4.590001e-01 -1.420242e-04
4.600000e-01 -1.376632e-04
4.610000e-01 -1.334901e-04
4.620000e-01 -1.295964e-04
4.630000e-01 -1.260572e-04
4.640000e-01 -1.229008e-04
4.650000e-01 -1.201115e-04
4.660000e-01 -1.176631e-04
4.670000e-01 -1.155550e-04
4.680000e-01 -1.138219e-04
4.690000e-01 -1.125096e-04
4.700000e-01 -1.116391e-04
4.710000e-01 -1.111863e-04
4.720000e-01 -1.110942e-04
4.730000e-01 -1.113052e-04
4.740000e-01 -1.117874e-04
4.750000e-01 -1.125362e-04
4.760000e-01 -1.135512e-04
4.770000e-01 -1.148106e-04
4.780000e-01 -1.162646e-04
4.790000e-01 -1.178498e-04
4.800000e-01 -1.195121e-04
4.810000e-01 -1.212180e-04
4.820001e-01 -1.229480e-04
4.830000e-01 -1.246798e-04
4.840000e-01 -1.263787e-04
4.850000e-01 -1.280023e-04
4.860000e-01 -1.295139e-04
4.870000e-01 -1.308911e-04
4.880000e-01 -1.321218e-04
4.890000e-01 -1.331924e-04
4.900000e-01 -1.340813e-04
4.910000e-01 -1.347642e-04
4.920000e-01 -1.352254e-04
4.930000e-01 -1.354640e-04
4.940000e-01 -1.354862e-04
4.950000e-01 -1.352894e-04
4.960001e-01 -1.348524e-04
4.970000e-01 -1.341425e-04
4.980000e-01 -1.331354e-04
4.990000e-01 -1.318325e-04
5.000000e-01 -1.302586e-04
5.010000e-01 -1.284416e-04
5.020000e-01 -1.263903e-04
5.030000e-01 -1.240885e-04
5.040000e-01 -1.215128e-04
5.050000e-01 -1.186599e-04
5.060000e-01 -1.155612e-04
5.070000e-01 -1.122719e-04
5.080000e-01 -1.088428e-04
5.090000e-01 -1.052971e-04
5.100001e-01 -1.016322e-04
5.110000e-01 -9.784461e-05
5.120000e-01 -9.395913e-05
5.130000e-01 -9.003741e-05
5.140000e-01 -8.615974e-05
5.150000e-01 -8.239364e-05
5.160000e-01 -7.877444e-05
5.170000e-01 -7.531240e-05
5.180000e-01 -7.201944e-05
5.190001e-01 -6.893298e-05
5.200000e-01 -6.611730e-05
5.210000e-01 -6.364089e-05
5.220000e-01 -6.154826e-05
5.230000e-01 -5.984762e-05
5.240000e-01 -5.852355e-05
5.250000e-01 -5.756276e-05
5.260000e-01 -5.697212e-05
5.270000e-01 -5.677477e-05
5.280000e-01 -5.698872e-05
5.290000e-01 -5.760573e-05
5.300000e-01 -5.858734e-05
5.310000e-01 -5.988073e-05
5.320000e-01 -6.144119e-05
5.330001e-01 -6.324377e-05
5.340000e-01 -6.527622e-05
5.350000e-01 -6.752028e-05
5.360000e-01 -6.993663e-05
5.370000e-01 -7.246542e-05
5.380000e-01 -7.504087e-05
5.390000e-01 -7.760847e-05
5.400000e-01 -8.013229e-05
5.410000e-01 -8.258855e-05
5.420001e-01 -8.495252e-05
5.430000e-01 -8.718968e-05
5.440000e-01 -8.925795e-05
5.450000e-01 -9.111810e-05
5.460000e-01 -9.274404e-05
5.470001e-01 -9.412509e-05
5.480000e-01 -9.525922e-05
5.490000e-01 -9.614294e-05
5.500000e-01 -9.676497e-05
5.510000e-01 -9.710749e-05
5.520000e-01 -9.715294e-05
5.530000e-01 -9.689088e-05
5.540000e-01 -9.632063e-05
5.550000e-01 -9.544865e-05
5.560001e-01 -9.428356e-05
5.570000e-01 -9.283274e-05
5.580000e-01 -9.110218e-05
5.590000e-01 -8.909913e-05
5.600000e-01 -8.683519e-05
5.610000e-01 -8.432767e-05
5.620000e-01 -8.159874e-05
5.630000e-01 -7.867319e-05
5.640000e-01 -7.557638e-05
5.650001e-01 -7.233324e-05
5.660000e-01 -6.896850e-05
5.670000e-01 -6.550764e-05
5.680000e-01 -6.197843e-05
5.690000e-01 -5.841279e-05
5.700001e-01 -5.484841e-05
5.710000e-01 -5.132931e-05
5.720000e-01 -4.790418e-05
5.730000e-01 -4.462235e-05
5.740000e-01 -4.152879e-05
5.750000e-01 -3.866108e-05
5.760000e-01 -3.605043e-05
5.770000e-01 -3.372634e-05
5.780000e-01 -3.172143e-05
5.790001e-01 -3.007173e-05
5.800000e-01 -2.881047e-05
5.810000e-01 -2.795839e-05
5.820000e-01 -2.751735e-05
5.830000e-01 -2.747302e-05
5.840001e-01 -2.780620e-05
5.850000e-01 -2.850538e-05
5.860000e-01 -2.957074e-05
5.870000e-01 -3.100542e-05
5.880000e-01 -3.279908e-05
5.890000e-01 -3.491600e-05
5.900000e-01 -3.729769e-05
5.910000e-01 -3.987967e-05
5.920000e-01 -4.261069e-05
5.930001e-01 -4.546011e-05
5.940000e-01 -4.840711e-05
5.950000e-01 -5.141995e-05
5.960000e-01 -5.444191e-05
5.970000e-01 -5.739642e-05
5.980000e-01 -6.020931e-05
5.990000e-01 -6.283252e-05
6.000000e-01 -6.525125e-05
6.010000e-01 -6.746902e-05
6.020001e-01 -6.948200e-05
6.030000e-01 -7.126229e-05
6.040000e-01 -7.276305e-05
6.050000e-01 -7.394115e-05
6.060000e-01 -7.477921e-05
6.070001e-01 -7.528989e-05
6.080000e-01 -7.549927e-05
6.090000e-01 -7.542308e-05
6.100000e-01 -7.505457e-05
6.110000e-01 -7.437287e-05
6.120000e-01 -7.336425e-05
6.130000e-01 -7.203877e-05
6.140000e-01 -7.042944e-05
6.150000e-01 -6.857607e-05
6.160001e-01 -6.650752e-05
6.170000e-01 -6.423653e-05
6.180000e-01 -6.176910e-05
6.190000e-01 -5.911857e-05
6.200000e-01 -5.631148e-05
6.210001e-01 -5.338107e-05
6.220000e-01 -5.035587e-05
6.230000e-01 -4.725470e-05
6.240000e-01 -4.409299e-05
6.250001e-01 -4.089398e-05
6.260000e-01 -3.769385e-05
6.270000e-01 -3.453563e-05
6.280000e-01 -3.145762e-05
6.290000e-01 -2.848781e-05
6.300001e-01 -2.565014e-05
6.310000e-01 -2.297695e-05
6.320000e-01 -2.051473e-05
6.330000e-01 -1.831525e-05
6.340000e-01 -1.641756e-05
6.350001e-01 -1.483593e-05
6.360000e-01 -1.356567e-05
6.370000e-01 -1.260369e-05
6.380000e-01 -1.196731e-05
6.390001e-01 -1.169416e-05
6.400000e-01 -1.182114e-05
6.410000e-01 -1.235831e-05
6.420000e-01 -1.327917e-05
6.430000e-01 -1.453642e-05
6.440001e-01 -1.609111e-05
6.450000e-01 -1.793145e-05
6.460000e-01 -2.006516e-05
6.470000e-01 -2.249091e-05
6.480000e-01 -2.517218e-05
6.490000e-01 -2.803571e-05
6.500000e-01 -3.099668e-05
6.510000e-01 -3.399103e-05
6.520000e-01 -3.698922e-05
6.530001e-01 -3.998121e-05
6.540000e-01 -4.294617e-05
6.550000e-01 -4.583281e-05
6.560000e-01 -4.856730e-05
6.570000e-01 -5.108193e-05
6.580001e-01 -5.334111e-05
6.590000e-01 -5.534316e-05
6.600000e-01 -5.709748e-05
6.610000e-01 -5.859683e-05
6.620001e-01 -5.980807e-05
6.630000e-01 -6.068848e-05
6.640000e-01 -6.121306e-05
6.650000e-01 -6.138934e-05
6.660000e-01 -6.124775e-05
6.670001e-01 -6.081659e-05
6.680000e-01 -6.010358e-05
6.690000e-01 -5.909937e-05
6.700000e-01 -5.779875e-05
6.710000e-01 -5.622003e-05
6.720001e-01 -5.440494e-05
6.730000e-01 -5.239911e-05
6.740000e-01 -5.023016e-05
6.750000e-01 -4.790250e-05
6.760001e-01 -4.541321e-05
6.770000e-01 -4.277460e-05
6.780000e-01 -4.002333e-05
6.790000e-01 -3.720809e-05
6.800000e-01 -3.436666e-05
6.810001e-01 -3.151277e-05
6.820000e-01 -2.864460e-05
6.830000e-01 -2.576776e-05
6.840000e-01 -2.291259e-05
6.850001e-01 -2.013078e-05
6.860000e-01 -1.747385e-05
6.870000e-01 -1.497222e-05
6.880000e-01 -1.263285e-05
6.890000e-01 -1.045711e-05
6.900001e-01 -8.463042e-06
6.910000e-01 -6.692273e-06
6.920000e-01 -5.195219e-06
6.930000e-01 -4.007335e-06
6.940000e-01 -3.136814e-06
6.950001e-01 -2.574080e-06
6.960000e-01 -2.314279e-06
6.970000e-01 -2.372531e-06
6.980000e-01 -2.778120e-06
6.990001e-01 -3.552268e-06
7.000000e-01 -4.688680e-06
7.010000e-01 -6.153710e-06
7.020000e-01 -7.905959e-06
7.030000e-01 -9.918102e-06
7.040001e-01 -1.218181e-05
7.050000e-01 -1.469150e-05
7.060000e-01 -1.742139e-05
7.070000e-01 -2.031639e-05
7.080001e-01 -2.330580e-05
7.090001e-01 -2.632863e-05
7.100000e-01 -2.934935e-05
7.110000e-01 -3.235058e-05
7.120000e-01 -3.530940e-05
7.130001e-01 -3.817807e-05
7.140000e-01 -4.088674e-05
7.150000e-01 -4.336697e-05
7.160000e-01 -4.557700e-05
7.170000e-01 -4.750802e-05
7.180001e-01 -4.916646e-05
7.190000e-01 -5.054743e-05
7.200000e-01 -5.162200e-05
7.210000e-01 -5.234885e-05
7.220001e-01 -5.270061e-05
7.230000e-01 -5.268270e-05
7.240000e-01 -5.232884e-05
7.250000e-01 -5.167718e-05
7.260000e-01 -5.074657e-05
7.270001e-01 -4.953222e-05
7.280000e-01 -4.802318e-05
7.290000e-01 -4.622649e-05
7.300000e-01 -4.417761e-05
7.310000e-01 -4.192938e-05
7.320001e-01 -3.952921e-05
7.330000e-01 -3.700368e-05
7.340000e-01 -3.436192e-05
7.350000e-01 -3.161324e-05
7.360001e-01 -2.878278e-05
7.370000e-01 -2.591202e-05
7.380000e-01 -2.304490e-05
7.390000e-01 -2.021249e-05
7.400000e-01 -1.742957e-05
7.410001e-01 -1.470519e-05
7.420000e-01 -1.205709e-05
7.430000e-01 -9.516700e-06
7.440000e-01 -7.120968e-06
7.450001e-01 -4.898983e-06
7.460001e-01 -2.866156e-06
7.470000e-01 -1.031323e-06
7.480000e-01 5.898613e-07
7.490000e-01 1.967982e-06
7.500001e-01 3.066586e-06
7.510000e-01 3.857568e-06
7.520000e-01 4.332159e-06
7.530000e-01 4.497838e-06
7.540000e-01 4.363635e-06
7.550001e-01 3.926545e-06
7.560000e-01 3.171200e-06
7.570000e-01 2.083726e-06
7.580000e-01 6.683841e-07
7.590001e-01 -1.047210e-06
7.600001e-01 -3.023233e-06
7.610000e-01 -5.226362e-06
7.620000e-01 -7.640674e-06
7.630000e-01 -1.026145e-05
7.640001e-01 -1.307655e-05
7.650000e-01 -1.605013e-05
7.660000e-01 -1.912181e-05
7.670000e-01 -2.222208e-05
7.680001e-01 -2.529206e-05
7.690001e-01 -2.829292e-05
7.700000e-01 -3.119893e-05
7.710000e-01 -3.398137e-05
7.720000e-01 -3.659719e-05
7.730001e-01 -3.899168e-05
7.740000e-01 -4.111300e-05
7.750000e-01 -4.292687e-05
7.760000e-01 -4.442049e-05
7.770000e-01 -4.559374e-05
7.780001e-01 -4.644526e-05
7.790000e-01 -4.696452e-05
7.800000e-01 -4.713480e-05
7.810000e-01 -4.694345e-05
7.820001e-01 -4.639061e-05
7.830001e-01 -4.549029e-05
7.840000e-01 -4.426428e-05
7.850000e-01 -4.273530e-05
7.860000e-01 -4.092490e-05
7.870001e-01 -3.885662e-05
7.880000e-01 -3.656033e-05
7.890000e-01 -3.407283e-05
7.900000e-01 -3.143384e-05
7.910001e-01 -2.868076e-05
7.920001e-01 -2.584653e-05
7.930000e-01 -2.296178e-05
7.940000e-01 -2.005814e-05
7.950000e-01 -1.716889e-05
7.960001e-01 -1.432535e-05
7.970001e-01 -1.155230e-05
7.980000e-01 -8.867125e-06
7.990000e-01 -6.284617e-06
8.000000e-01 -3.824527e-06
8.010001e-01 -1.515820e-06
8.020000e-01 6.064502e-07
8.030000e-01 2.510100e-06
8.040000e-01 4.174203e-06
8.050001e-01 5.590472e-06
8.060001e-01 6.756393e-06
8.070000e-01 7.665351e-06
8.080000e-01 8.301608e-06
8.090000e-01 8.644446e-06
8.100001e-01 8.678742e-06
8.110000e-01 8.403941e-06
8.120000e-01 7.834306e-06
8.130000e-01 6.989760e-06
8.140000e-01 5.883857e-06
8.150001e-01 4.517836e-06
8.160000e-01 2.885374e-06
8.170000e-01 9.848009e-07
8.180000e-01 -1.169995e-06
8.190001e-01 -3.547619e-06
8.200001e-01 -6.107148e-06
8.210000e-01 -8.809689e-06
8.220000e-01 -1.162489e-05
8.230000e-01 -1.452799e-05
8.240001e-01 -1.749037e-05
8.250000e-01 -2.047145e-05
8.260000e-01 -2.341846e-05
8.270000e-01 -2.627454e-05
8.280001e-01 -2.898953e-05
8.290001e-01 -3.152623e-05
8.300000e-01 -3.385883e-05
8.310000e-01 -3.596603e-05
8.320000e-01 -3.782461e-05
8.330001e-01 -3.940786e-05
8.340001e-01 -4.068881e-05
8.350000e-01 -4.164496e-05
8.360000e-01 -4.226081e-05
8.370000e-01 -4.252745e-05
8.380001e-01 -4.244113e-05
8.390000e-01 -4.200286e-05
8.400000e-01 -4.121918e-05
8.410000e-01 -4.010281e-05
8.420001e-01 -3.867166e-05
8.430001e-01 -3.694731e-05
8.440000e-01 -3.495476e-05
8.450000e-01 -3.272445e-05
8.460000e-01 -3.029440e-05
8.470001e-01 -2.770913e-05
8.480000e-01 -2.501362e-05
8.490000e-01 -2.224540e-05
8.500000e-01 -1.943036e-05
8.510001e-01 -1.658663e-05
8.520001e-01 -1.373456e-05
8.530000e-01 -1.090531e-05
8.540000e-01 -8.140765e-06
8.550000e-01 -5.483700e-06
8.560001e-01 -2.965414e-06
8.570001e-01 -6.008220e-07
8.580000e-01 1.604274e-06
8.590000e-01 3.639001e-06
8.600000e-01 5.477892e-06
8.610001e-01 7.084579e-06
8.620000e-01 8.426805e-06
8.630000e-01 9.491168e-06
8.640000e-01 1.028555e-05
8.650001e-01 1.082671e-05
8.660001e-01 1.112259e-05
8.670000e-01 1.116349e-05
8.680000e-01 1.092931e-05
8.690000e-01 1.040662e-05
8.700001e-01 9.601572e-06
8.710001e-01 8.537572e-06
8.720000e-01 7.239894e-06
8.730000e-01 5.720168e-06
8.740000e-01 3.974130e-06
8.750001e-01 1.994883e-06
8.760000e-01 -2.091065e-07
8.770000e-01 -2.606009e-06
8.780000e-01 -5.148997e-06
8.790001e-01 -7.793655e-06
