-1.200000e-01 0.000000e+00
-1.190000e-01 0.000000e+00
-1.180000e-01 0.000000e+00
-1.170000e-01 0.000000e+00
-1.160000e-01 0.000000e+00
-1.150000e-01 0.000000e+00
-1.140000e-01 0.000000e+00
-1.130000e-01 0.000000e+00
-1.120000e-01 0.000000e+00
-1.110000e-01 0.000000e+00
-1.100000e-01 0.000000e+00
-1.090000e-01 0.000000e+00
-1.080000e-01 0.000000e+00
-1.070000e-01 0.000000e+00
-1.060000e-01 6.754259e-43
-1.050000e-01 -1.603085e-42
-1.040000e-01 1.392540e-40
-1.030000e-01 1.423693e-39
-1.020000e-01 4.696868e-39
-1.010000e-01 1.133380e-38
-1.000000e-01 9.993058e-38
-9.900001e-02 6.306992e-37
-9.800000e-02 1.574811e-36
-9.700000e-02 -1.416572e-36
-9.600000e-02 -1.761078e-35
-9.500001e-02 -2.283775e-35
-9.400000e-02 1.273023e-34
-9.300000e-02 5.568707e-34
-9.200001e-02 3.685070e-34
-9.100001e-02 -3.554463e-33
-9.000000e-02 -1.231173e-32
-8.900000e-02 -7.614927e-33
-8.800000e-02 6.153722e-32
-8.700000e-02 2.081138e-31
-8.600000e-02 1.738702e-31
-8.500001e-02 -7.235921e-31
-8.400001e-02 -2.762660e-30
-8.300000e-02 -3.232198e-30
-8.200000e-02 5.491288e-30
-8.100000e-02 2.870439e-29
-8.000000e-02 4.519004e-29
-7.900000e-02 -1.581791e-29
-7.800000e-02 -2.279852e-28
-7.700001e-02 -4.772771e-28
-7.600001e-02 -2.262390e-28
-7.500000e-02 1.294904e-27
-7.400000e-02 3.841212e-27
-7.300000e-02 4.164527e-27
-7.200000e-02 -3.980072e-27
-7.100000e-02 -2.326713e-26
-7.000001e-02 -3.906901e-26
-6.900001e-02 -1.149939e-26
-6.800000e-02 9.882761e-26
-6.700000e-02 2.536486e-25
-6.600000e-02 2.545576e-25
-6.500000e-02 -2.024925e-25
-6.400000e-02 -1.182062e-24
-6.300000e-02 -1.961380e-24
-6.200000e-02 -8.687820e-25
-6.100000e-02 3.568291e-24
-6.000000e-02 9.898682e-24
-5.900000e-02 1.130088e-23
-5.800000e-02 -2.305398e-24
-5.700000e-02 -3.392517e-23
-5.600000e-02 -6.437296e-23
-5.500000e-02 -4.786315e-23
-5.400001e-02 6.022477e-23
-5.300000e-02 2.388342e-22
-5.200000e-02 3.410900e-22
-5.100000e-02 1.270109e-22
-5.000000e-02 -5.365226e-22
-4.900000e-02 -1.365715e-21
-4.800000e-02 -1.511061e-21
-4.700000e-02 4.639845e-23
-4.600000e-02 3.420723e-21
-4.500000e-02 6.636433e-21
-4.400000e-02 5.666584e-21
-4.300000e-02 -3.020011e-21
-4.200000e-02 -1.776716e-20
-4.100000e-02 -2.817815e-20
-4.000000e-02 -1.798527e-20
-3.900000e-02 2.252708e-20
-3.800000e-02 7.923276e-20
-3.700000e-02 1.066158e-19
-3.600000e-02 4.738834e-20
-3.500000e-02 -1.171215e-19
-3.400000e-02 -3.122282e-19
-3.300000e-02 -3.649503e-19
-3.200000e-02 -9.688904e-20
-3.100000e-02 4.987280e-19
-3.000000e-02 1.107375e-18
-2.900000e-02 1.144245e-18
-2.800000e-02 1.136458e-19
-2.700000e-02 -1.839595e-18
-2.600000e-02 -3.580011e-18
-2.500000e-02 -3.320418e-18
-2.400000e-02 1.739408e-19
-2.300000e-02 6.040743e-18
-2.200000e-02 1.064564e-17
-2.100000e-02 8.995138e-18
-2.000000e-02 -1.668898e-18
-1.900000e-02 -1.793937e-17
-1.800000e-02 -2.930420e-17
-1.700000e-02 -2.290113e-17
-1.600000e-02 6.760319e-18
-1.500000e-02 4.866061e-17
-1.400000e-02 7.499024e-17
-1.300000e-02 5.502414e-17
-1.200000e-02 -2.079237e-17
-1.100000e-02 -1.213588e-16
-9.999998e-03 -1.788391e-16
-8.999996e-03 -1.249037e-16
-8.000001e-03 5.420961e-17
-6.999999e-03 2.796088e-16
-5.999997e-03 3.978533e-16
-5.000003e-03 2.672212e-16
-4.000001e-03 -1.255809e-16
-2.999999e-03 -5.975398e-16
-1.999997e-03 -8.255098e-16
-1.000002e-03 -5.354851e-16
0.000000e+00 2.673248e-16
1.000002e-03 1.189868e-15
2.000004e-03 1.596479e-15
2.999999e-03 9.948836e-16
4.000001e-03 -5.413474e-16
4.999995e-03 -2.222498e-15
5.999997e-03 -2.876992e-15
6.999999e-03 -1.688280e-15
8.000001e-03 1.082453e-15
9.000003e-03 3.935650e-15
1.000001e-02 4.840291e-15
1.100001e-02 2.559581e-15
1.199999e-02 -2.197968e-15
1.300000e-02 -6.713117e-15
1.400000e-02 -7.654986e-15
1.500000e-02 -3.344366e-15
1.600000e-02 4.541592e-15
1.700000e-02 1.124700e-14
1.800001e-02 1.155938e-14
1.900001e-02 3.503936e-15
2.000000e-02 -9.312861e-15
2.100000e-02 -1.880814e-14
2.200000e-02 -1.710904e-14
2.300000e-02 -2.358963e-15
2.400000e-02 1.829760e-14
2.500001e-02 3.147555e-14
2.600001e-02 2.556167e-14
2.700000e-02 -4.505555e-16
2.800000e-02 -3.345601e-14
2.900000e-02 -5.192526e-14
3.000000e-02 -3.901544e-14
3.100000e-02 4.391080e-15
3.200001e-02 5.595818e-14
3.300001e-02 8.230129e-14
3.400001e-02 5.950765e-14
3.500000e-02 -8.251233e-15
3.600000e-02 -8.536777e-14
3.700000e-02 -1.223308e-13
3.800000e-02 -8.646615e-14
3.900000e-02 1.253117e-14
4.000001e-02 1.208492e-13
4.100001e-02 1.684999e-13
4.200000e-02 1.135828e-13
4.300000e-02 -2.429523e-14
4.400000e-02 -1.663406e-13
4.500000e-02 -2.176657e-13
4.600000e-02 -1.291248e-13
4.700001e-02 6.108491e-14
4.800001e-02 2.382965e-13
4.900001e-02 2.767964e-13
5.000000e-02 1.247433e-13
5.100000e-02 -1.463009e-13
5.200000e-02 -3.678458e-13
5.300000e-02 -3.728171e-13
5.400001e-02 -1.115558e-13
5.500001e-02 2.908011e-13
5.600001e-02 5.857597e-13
5.700000e-02 5.469187e-13
5.800000e-02 1.280388e-13
5.900000e-02 -4.708569e-13
6.000000e-02 -8.904776e-13
6.100000e-02 -8.212786e-13
6.200001e-02 -2.163573e-13
6.300001e-02 6.324089e-13
6.400001e-02 1.227884e-12
6.500000e-02 1.156547e-12
6.600000e-02 3.673068e-13
6.700000e-02 -7.436554e-13
6.800000e-02 -1.525408e-12
6.900001e-02 -1.455316e-12
7.000001e-02 -4.887006e-13
7.100001e-02 8.569904e-13
7.200000e-02 1.771553e-12
7.300000e-02 1.641867e-12
7.400000e-02 4.674920e-13
7.500000e-02 -1.079299e-12
7.600001e-02 -2.028354e-12
7.700001e-02 -1.720953e-12
7.800001e-02 -2.734201e-13
7.900001e-02 1.431401e-12
8.000000e-02 2.270625e-12
8.100000e-02 1.625199e-12
8.200000e-02 -1.445179e-13
8.300000e-02 -1.853218e-12
8.400001e-02 -2.246968e-12
8.500001e-02 -9.086284e-13
8.600001e-02 1.311374e-12
8.700001e-02 2.723810e-12
8.800000e-02 1.927227e-12
8.900000e-02 -1.053617e-12
9.000000e-02 -4.438092e-12
9.100001e-02 -5.574867e-12
9.200001e-02 -2.674036e-12
9.300001e-02 3.647698e-12
9.400001e-02 1.012693e-11
9.500000e-02 1.237660e-11
9.600000e-02 7.534574e-12
9.700000e-02 -3.478111e-12
9.800000e-02 -1.564762e-11
9.900001e-02 -2.209550e-11
1.000000e-01 -1.791207e-11
1.010000e-01 -3.476880e-12
1.020000e-01 1.488546e-11
1.030000e-01 2.774476e-11
1.040000e-01 2.768313e-11
1.050000e-01 1.388252e-11
1.060000e-01 -6.697292e-12
1.070000e-01 -2.271922e-11
1.080000e-01 -2.494369e-11
1.090000e-01 -1.216741e-11
1.100000e-01 7.141722e-12
1.110000e-01 1.913146e-11
1.120000e-01 1.294985e-11
1.130000e-01 -1.139573e-11
1.140000e-01 -4.069788e-11
1.150000e-01 -5.412043e-11
1.160000e-01 -3.468038e-11
1.170000e-01 1.917599e-11
1.180000e-01 8.865816e-11
1.190000e-01 1.403212e-10
1.200000e-01 1.409327e-10
1.210000e-01 7.489879e-11
1.220000e-01 -4.451161e-11
1.230000e-01 -1.766040e-10
1.240000e-01 -2.679869e-10
1.250000e-01 -2.747072e-10
1.260000e-01 -1.819995e-10
1.270000e-01 -1.258757e-11
1.280000e-01 1.804724e-10
1.290000e-01 3.334970e-10
1.300000e-01 3.960429e-10
1.310000e-01 3.489947e-10
1.320000e-01 2.097972e-10
1.330000e-01 2.346462e-11
1.340000e-01 -1.561208e-10
1.350000e-01 -2.865274e-10
1.360000e-01 -3.505240e-10
1.370000e-01 -3.581497e-10
1.380000e-01 -3.367953e-10
1.390000e-01 -3.137262e-10
1.400000e-01 -2.985647e-10
1.410000e-01 -2.736526e-10
1.420000e-01 -1.976149e-10
1.430000e-01 -2.237392e-11
1.440000e-01 2.820819e-10
1.450000e-01 7.052693e-10
1.460000e-01 1.186577e-09
1.470000e-01 1.624055e-09
1.480000e-01 1.898590e-09
1.490000e-01 1.902041e-09
1.500000e-01 1.554912e-09
1.510000e-01 8.049412e-10
1.520000e-01 -3.887190e-10
1.530000e-01 -2.066846e-09
1.540000e-01 -4.252295e-09
1.550000e-01 -6.887619e-09
1.560000e-01 -9.736675e-09
1.570000e-01 -1.228679e-08
1.580000e-01 -1.370436e-08
1.590000e-01 -1.288764e-08
1.600000e-01 -8.623635e-09
1.610000e-01 1.953122e-10
1.620000e-01 1.438079e-08
1.630000e-01 3.437571e-08
1.640000e-01 6.035395e-08
1.650000e-01 9.247572e-08
1.660000e-01 1.312112e-07
1.670000e-01 1.776103e-07
1.680000e-01 2.334210e-07
1.690000e-01 3.010339e-07
1.700000e-01 3.833235e-07
1.710000e-01 4.835196e-07
1.720000e-01 6.052317e-07
1.730000e-01 7.526760e-07
1.740000e-01 9.310446e-07
1.750000e-01 1.146872e-06
1.760000e-01 1.408250e-06
1.770000e-01 1.724813e-06
1.780000e-01 2.107566e-06
1.790000e-01 2.568742e-06
1.800000e-01 3.121899e-06
1.810000e-01 3.782406e-06
1.820000e-01 4.568300e-06
1.830000e-01 5.501311e-06
1.840000e-01 6.607758e-06
1.850000e-01 7.919097e-06
1.860000e-01 9.472014e-06
1.870000e-01 1.130824e-05
1.880000e-01 1.347435e-05
1.890000e-01 1.602201e-05
1.900000e-01 1.900862e-05
1.910000e-01 2.249868e-05
1.920000e-01 2.656531e-05
1.930000e-01 3.129178e-05
1.940000e-01 3.677270e-05
1.950000e-01 4.311474e-05
1.960000e-01 5.043714e-05
1.970000e-01 5.887206e-05
1.980000e-01 6.856525e-05
1.990000e-01 7.967691e-05
2.000000e-01 9.238291e-05
2.010000e-01 1.068759e-04
2.020000e-01 1.233658e-04
2.030000e-01 1.420804e-04
2.040000e-01 1.632652e-04
2.050000e-01 1.871829e-04
2.060000e-01 2.141136e-04
2.070000e-01 2.443546e-04
2.080000e-01 2.782214e-04
2.090000e-01 3.160473e-04
2.100000e-01 3.581832e-04
2.110000e-01 4.049961e-04
2.120000e-01 4.568660e-04
2.130000e-01 5.141827e-04
2.140000e-01 5.773416e-04
2.150000e-01 6.467389e-04
2.160000e-01 7.227680e-04
2.170000e-01 8.058152e-04
2.180000e-01 8.962564e-04
2.190000e-01 9.944518e-04
2.200000e-01 1.100740e-03
2.210000e-01 1.215430e-03
2.220000e-01 1.338796e-03
2.230000e-01 1.471062e-03
2.240000e-01 1.612401e-03
2.250000e-01 1.762917e-03
2.260000e-01 1.922647e-03
2.270000e-01 2.091545e-03
2.280000e-01 2.269475e-03
2.290000e-01 2.456207e-03
2.300000e-01 2.651403e-03
2.310000e-01 2.854609e-03
2.320000e-01 3.065246e-03
2.330000e-01 3.282603e-03
2.340000e-01 3.505833e-03
2.350000e-01 3.733948e-03
2.360000e-01 3.965820e-03
2.370000e-01 4.200180e-03
2.380000e-01 4.435617e-03
2.390000e-01 4.670586e-03
2.400000e-01 4.903399e-03
2.410000e-01 5.132244e-03
2.420000e-01 5.355184e-03
2.430000e-01 5.570171e-03
2.440000e-01 5.775063e-03
2.450000e-01 5.967639e-03
2.460000e-01 6.145624e-03
2.470000e-01 6.306701e-03
2.480000e-01 6.448544e-03
2.490000e-01 6.568833e-03
2.500000e-01 6.665283e-03
2.510000e-01 6.735676e-03
2.520000e-01 6.777881e-03
2.530000e-01 6.789894e-03
2.540000e-01 6.769864e-03
2.550000e-01 6.716121e-03
2.560000e-01 6.627209e-03
2.570000e-01 6.501906e-03
2.580000e-01 6.339261e-03
2.590000e-01 6.138610e-03
2.600000e-01 5.899596e-03
2.610000e-01 5.622193e-03
2.620000e-01 5.306720e-03
2.630000e-01 4.953855e-03
2.640000e-01 4.564640e-03
2.650000e-01 4.140486e-03
2.660000e-01 3.683165e-03
2.670000e-01 3.194798e-03
2.680000e-01 2.677851e-03
2.690000e-01 2.135113e-03
2.700000e-01 1.569682e-03
2.710000e-01 9.849386e-04
2.720000e-01 3.845152e-04
2.730000e-01 -2.277371e-04
2.740000e-01 -8.477885e-04
2.750000e-01 -1.471472e-03
2.760000e-01 -2.094526e-03
2.770000e-01 -2.712639e-03
2.780000e-01 -3.321499e-03
2.790000e-01 -3.916836e-03
2.800000e-01 -4.494474e-03
2.810000e-01 -5.050374e-03
2.820000e-01 -5.580677e-03
2.830000e-01 -6.081746e-03
2.840000e-01 -6.550208e-03
2.850000e-01 -6.982984e-03
2.860000e-01 -7.377331e-03
2.870000e-01 -7.730863e-03
2.880000e-01 -8.041576e-03
2.890000e-01 -8.307869e-03
2.900000e-01 -8.528546e-03
2.910000e-01 -8.702836e-03
2.920000e-01 -8.830385e-03
2.930000e-01 -8.911262e-03
2.940000e-01 -8.945947e-03
2.950000e-01 -8.935310e-03
2.960000e-01 -8.880603e-03
2.970000e-01 -8.783426e-03
2.980000e-01 -8.645708e-03
2.990000e-01 -8.469673e-03
3.000000e-01 -8.257814e-03
3.010000e-01 -8.012850e-03
3.020000e-01 -7.737695e-03
3.030000e-01 -7.435415e-03
3.040000e-01 -7.109190e-03
3.050000e-01 -6.762279e-03
3.060000e-01 -6.397981e-03
3.070000e-01 -6.019601e-03
3.080000e-01 -5.630408e-03
3.090000e-01 -5.233607e-03
3.100000e-01 -4.832300e-03
3.110000e-01 -4.429467e-03
3.120000e-01 -4.027934e-03
3.130000e-01 -3.630363e-03
3.140000e-01 -3.239227e-03
3.150000e-01 -2.856794e-03
3.160000e-01 -2.485118e-03
3.170000e-01 -2.126026e-03
3.180000e-01 -1.781116e-03
3.190000e-01 -1.451758e-03
3.200000e-01 -1.139094e-03
3.210000e-01 -8.440412e-04
3.220000e-01 -5.672980e-04
3.230000e-01 -3.093501e-04
3.240000e-01 -7.048246e-05
3.250000e-01 1.492057e-04
3.260000e-01 3.497861e-04
3.270000e-01 5.314865e-04
3.280000e-01 6.946774e-04
3.290000e-01 8.398572e-04
3.300000e-01 9.676365e-04
3.310000e-01 1.078721e-03
3.320000e-01 1.173893e-03
3.330000e-01 1.253999e-03
3.340000e-01 1.319934e-03
3.350000e-01 1.372633e-03
3.360000e-01 1.413054e-03
3.370000e-01 1.442167e-03
3.380000e-01 1.460937e-03
3.390000e-01 1.470317e-03
3.400000e-01 1.471233e-03
3.410000e-01 1.464590e-03
3.420000e-01 1.451258e-03
3.430000e-01 1.432077e-03
3.440000e-01 1.407839e-03
3.450000e-01 1.379293e-03
3.460000e-01 1.347133e-03
3.470000e-01 1.312005e-03
3.480000e-01 1.274505e-03
3.490000e-01 1.235177e-03
3.500000e-01 1.194519e-03
3.510000e-01 1.152976e-03
3.520000e-01 1.110943e-03
3.530000e-01 1.068765e-03
3.540000e-01 1.026744e-03
3.550000e-01 9.851437e-04
3.560000e-01 9.441925e-04
3.570000e-01 9.040822e-04
3.580000e-01 8.649696e-04
3.590000e-01 8.269791e-04
3.600000e-01 7.902069e-04
3.610000e-01 7.547273e-04
3.620000e-01 7.205948e-04
3.630000e-01 6.878462e-04
3.640000e-01 6.564991e-04
3.650000e-01 6.265526e-04
3.660000e-01 5.979899e-04
3.670000e-01 5.707840e-04
3.680000e-01 5.449017e-04
3.690000e-01 5.203062e-04
3.700000e-01 4.969572e-04
3.710000e-01 4.748089e-04
3.720000e-01 4.538106e-04
3.730000e-01 4.339076e-04
3.740000e-01 4.150442e-04
3.750000e-01 3.971648e-04
3.760000e-01 3.802140e-04
3.770000e-01 3.641357e-04
3.780000e-01 3.488716e-04
3.790000e-01 3.343626e-04
3.800000e-01 3.205504e-04
3.810000e-01 3.073791e-04
3.820000e-01 2.947947e-04
3.830000e-01 2.827437e-04
3.840000e-01 2.711714e-04
3.850000e-01 2.600205e-04
3.860000e-01 2.492324e-04
3.870000e-01 2.387468e-04
3.880000e-01 2.285009e-04
3.890000e-01 2.184274e-04
3.900000e-01 2.084513e-04
3.910000e-01 1.984889e-04
3.920000e-01 1.884488e-04
3.930000e-01 1.782323e-04
3.940000e-01 1.677338e-04
3.950000e-01 1.568381e-04
3.960000e-01 1.454167e-04
3.970000e-01 1.333238e-04
3.980000e-01 1.203948e-04
3.990000e-01 1.064456e-04
4.000000e-01 9.127334e-05
4.010000e-01 7.465406e-05
4.020000e-01 5.633994e-05
4.030000e-01 3.605516e-05
4.040000e-01 1.349333e-05
4.050000e-01 -1.168332e-05
4.060000e-01 -3.984360e-05
4.070000e-01 -7.138788e-05
4.080000e-01 -1.067505e-04
4.090000e-01 -1.464032e-04
4.100000e-01 -1.908586e-04
4.110000e-01 -2.406713e-04
4.120000e-01 -2.964364e-04
4.130000e-01 -3.587876e-04
4.140000e-01 -4.283961e-04
4.150000e-01 -5.059703e-04
4.160000e-01 -5.922566e-04
4.170000e-01 -6.880375e-04
4.180000e-01 -7.941278e-04
4.190000e-01 -9.113679e-04
4.200000e-01 -1.040616e-03
4.210000e-01 -1.182742e-03
4.220001e-01 -1.338619e-03
4.230000e-01 -1.509118e-03
4.240000e-01 -1.695095e-03
4.250000e-01 -1.897381e-03
4.260000e-01 -2.116767e-03
4.270000e-01 -2.353991e-03
4.280000e-01 -2.609721e-03
4.290000e-01 -2.884538e-03
4.300000e-01 -3.178920e-03
4.310000e-01 -3.493223e-03
4.320000e-01 -3.827657e-03
4.330000e-01 -4.182265e-03
4.340000e-01 -4.556909e-03
4.350000e-01 -4.951242e-03
4.360000e-01 -5.364696e-03
4.370000e-01 -5.796459e-03
4.380000e-01 -6.245455e-03
4.390000e-01 -6.710330e-03
4.400000e-01 -7.189435e-03
4.410000e-01 -7.680815e-03
4.420000e-01 -8.182201e-03
4.430000e-01 -8.690999e-03
4.440000e-01 -9.204295e-03
4.450000e-01 -9.718846e-03
4.460000e-01 -1.023110e-02
4.470000e-01 -1.073718e-02
4.480000e-01 -1.123296e-02
4.490000e-01 -1.171400e-02
4.500000e-01 -1.217567e-02
4.510000e-01 -1.261309e-02
4.520000e-01 -1.302123e-02
4.530000e-01 -1.339495e-02
4.540000e-01 -1.372900e-02
4.550000e-01 -1.401815e-02
4.560000e-01 -1.425719e-02
4.570000e-01 -1.444100e-02
4.580000e-01 -1.456465e-02
4.590001e-01 -1.462339e-02
4.600000e-01 -1.461282e-02
4.610000e-01 -1.452887e-02
4.620000e-01 -1.436793e-02
4.630000e-01 -1.412688e-02
4.640000e-01 -1.380317e-02
4.650000e-01 -1.339486e-02
4.660000e-01 -1.290069e-02
4.670000e-01 -1.232011e-02
4.680000e-01 -1.165336e-02
4.690000e-01 -1.090145e-02
4.700000e-01 -1.006621e-02
4.710000e-01 -9.150326e-03
4.720000e-01 -8.157271e-03
4.730000e-01 -7.091362e-03
4.740000e-01 -5.957716e-03
4.750000e-01 -4.762229e-03
4.760000e-01 -3.511523e-03
4.770000e-01 -2.212901e-03
4.780000e-01 -8.742739e-04
4.790000e-01 4.959066e-04
4.800000e-01 1.888727e-03
4.810000e-01 3.294902e-03
4.820001e-01 4.704865e-03
4.830000e-01 6.108874e-03
4.840000e-01 7.497117e-03
4.850000e-01 8.859819e-03
4.860000e-01 1.018734e-02
4.870000e-01 1.147030e-02
4.880000e-01 1.269966e-02
4.890000e-01 1.386682e-02
4.900000e-01 1.496374e-02
4.910000e-01 1.598300e-02
4.920000e-01 1.691790e-02
4.930000e-01 1.776252e-02
4.940000e-01 1.851176e-02
4.950000e-01 1.916143e-02
4.960001e-01 1.970823e-02
4.970000e-01 2.014985e-02
4.980000e-01 2.048490e-02
4.990000e-01 2.071297e-02
5.000000e-01 2.083459e-02
5.010000e-01 2.085120e-02
5.020000e-01 2.076514e-02
5.030000e-01 2.057960e-02
5.040000e-01 2.029852e-02
5.050000e-01 1.992660e-02
5.060000e-01 1.946917e-02
5.070000e-01 1.893214e-02
5.080000e-01 1.832192e-02
5.090000e-01 1.764531e-02
5.100001e-01 1.690943e-02
5.110000e-01 1.612166e-02
5.120000e-01 1.528951e-02
5.130000e-01 1.442056e-02
5.140000e-01 1.352237e-02
5.150000e-01 1.260238e-02
5.160000e-01 1.166788e-02
5.170000e-01 1.072591e-02
5.180000e-01 9.783195e-03
5.190001e-01 8.846132e-03
5.200000e-01 7.920699e-03
5.210000e-01 7.012430e-03
5.220000e-01 6.126378e-03
5.230000e-01 5.267098e-03
5.240000e-01 4.438632e-03
5.250000e-01 3.644500e-03
5.260000e-01 2.887698e-03
5.270000e-01 2.170699e-03
5.280000e-01 1.495457e-03
5.290000e-01 8.634285e-04
5.300000e-01 2.755956e-04
5.310000e-01 -2.675092e-04
5.320000e-01 -7.657716e-04
5.330001e-01 -1.219467e-03
5.340000e-01 -1.629228e-03
5.350000e-01 -1.996014e-03
5.360000e-01 -2.321066e-03
5.370000e-01 -2.605872e-03
5.380000e-01 -2.852126e-03
5.390000e-01 -3.061690e-03
5.400000e-01 -3.236569e-03
5.410000e-01 -3.378874e-03
5.420001e-01 -3.490794e-03
5.430000e-01 -3.574566e-03
5.440000e-01 -3.632442e-03
5.450000e-01 -3.666665e-03
5.460000e-01 -3.679445e-03
5.470001e-01 -3.672945e-03
5.480000e-01 -3.649264e-03
5.490000e-01 -3.610424e-03
5.500000e-01 -3.558350e-03
5.510000e-01 -3.494867e-03
5.520000e-01 -3.421683e-03
5.530000e-01 -3.340391e-03
5.540000e-01 -3.252471e-03
5.550000e-01 -3.159287e-03
5.560001e-01 -3.062088e-03
5.570000e-01 -2.962005e-03
5.580000e-01 -2.860053e-03
5.590000e-01 -2.757132e-03
5.600000e-01 -2.654038e-03
5.610000e-01 -2.551467e-03
5.620000e-01 -2.450023e-03
5.630000e-01 -2.350221e-03
5.640000e-01 -2.252495e-03
5.650001e-01 -2.157200e-03
5.660000e-01 -2.064619e-03
5.670000e-01 -1.974979e-03
5.680000e-01 -1.888451e-03
5.690000e-01 -1.805160e-03
5.700001e-01 -1.725188e-03
5.710000e-01 -1.648574e-03
5.720000e-01 -1.575324e-03
5.730000e-01 -1.505413e-03
5.740000e-01 -1.438794e-03
5.750000e-01 -1.375401e-03
5.760000e-01 -1.315153e-03
5.770000e-01 -1.257956e-03
5.780000e-01 -1.203705e-03
5.790001e-01 -1.152285e-03
5.800000e-01 -1.103577e-03
5.810000e-01 -1.057461e-03
5.820000e-01 -1.013818e-03
5.830000e-01 -9.725259e-04
5.840001e-01 -9.334640e-04
5.850000e-01 -8.965110e-04
5.860000e-01 -8.615487e-04
5.870000e-01 -8.284636e-04
5.880000e-01 -7.971483e-04
5.890000e-01 -7.674998e-04
5.900000e-01 -7.394190e-04
5.910000e-01 -7.128090e-04
5.920000e-01 -6.875769e-04
5.930001e-01 -6.636349e-04
5.940000e-01 -6.409019e-04
5.950000e-01 -6.193027e-04
5.960000e-01 -5.987675e-04
5.970000e-01 -5.792294e-04
5.980000e-01 -5.606241e-04
5.990000e-01 -5.428905e-04
6.000000e-01 -5.259715e-04
6.010000e-01 -5.098147e-04
6.020001e-01 -4.943723e-04
6.030000e-01 -4.796003e-04
6.040000e-01 -4.654581e-04
6.050000e-01 -4.519075e-04
6.060000e-01 -4.389128e-04
6.070001e-01 -4.264411e-04
6.080000e-01 -4.144614e-04
6.090000e-01 -4.029455e-04
6.100000e-01 -3.918676e-04
6.110000e-01 -3.812040e-04
6.120000e-01 -3.709327e-04
6.130000e-01 -3.610331e-04
6.140000e-01 -3.514851e-04
6.150000e-01 -3.422701e-04
6.160001e-01 -3.333726e-04
6.170000e-01 -3.247806e-04
6.180000e-01 -3.164854e-04
6.190000e-01 -3.084793e-04
6.200000e-01 -3.007526e-04
6.210001e-01 -2.932922e-04
6.220000e-01 -2.860830e-04
6.230000e-01 -2.791110e-04
6.240000e-01 -2.723667e-04
6.250001e-01 -2.658454e-04
6.260000e-01 -2.595445e-04
6.270000e-01 -2.534600e-04
6.280000e-01 -2.475844e-04
6.290000e-01 -2.419082e-04
6.300001e-01 -2.364232e-04
6.310000e-01 -2.311253e-04
6.320000e-01 -2.260127e-04
6.330000e-01 -2.210823e-04
6.340000e-01 -2.163255e-04
6.350001e-01 -2.117286e-04
6.360000e-01 -2.072770e-04
6.370000e-01 -2.029609e-04
6.380000e-01 -1.987779e-04
6.390001e-01 -1.947302e-04
6.400000e-01 -1.908179e-04
6.410000e-01 -1.870344e-04
6.420000e-01 -1.833669e-04
6.430000e-01 -1.798015e-04
6.440001e-01 -1.763292e-04
6.450000e-01 -1.729472e-04
6.460000e-01 -1.696557e-04
6.470000e-01 -1.664517e-04
6.480000e-01 -1.633257e-04
6.490000e-01 -1.602649e-04
6.500000e-01 -1.572587e-04
6.510000e-01 -1.543034e-04
6.520000e-01 -1.514012e-04
6.530001e-01 -1.485548e-04
6.540000e-01 -1.457620e-04
6.550000e-01 -1.430155e-04
6.560000e-01 -1.403071e-04
6.570000e-01 -1.376338e-04
6.580001e-01 -1.349995e-04
6.590000e-01 -1.324108e-04
6.600000e-01 -1.298709e-04
6.610000e-01 -1.273764e-04
6.620001e-01 -1.249210e-04
6.630000e-01 -1.225021e-04
6.640000e-01 -1.201249e-04
6.650000e-01 -1.178009e-04
6.660000e-01 -1.155398e-04
6.670001e-01 -1.133435e-04
6.680000e-01 -1.112061e-04
6.690000e-01 -1.091207e-04
6.700000e-01 -1.070878e-04
6.710000e-01 -1.051174e-04
6.720001e-01 -1.032221e-04
6.730000e-01 -1.014083e-04
6.740000e-01 -9.967035e-05
6.750000e-01 -9.799552e-05
6.760001e-01 -9.637410e-05
6.770000e-01 -9.480756e-05
6.780000e-01 -9.330721e-05
6.790000e-01 -9.188396e-05
6.800000e-01 -9.053743e-05
6.810001e-01 -8.925326e-05
6.820000e-01 -8.801115e-05
6.830000e-01 -8.679744e-05
6.840000e-01 -8.561210e-05
6.850001e-01 -8.446452e-05
6.860000e-01 -8.336159e-05
6.870000e-01 -8.229791e-05
6.880000e-01 -8.125615e-05
6.890000e-01 -8.021719e-05
6.900001e-01 -7.917171e-05
6.910000e-01 -7.812352e-05
6.920000e-01 -7.708219e-05
6.930000e-01 -7.605116e-05
6.940000e-01 -7.502139e-05
6.950001e-01 -7.397592e-05
6.960000e-01 -7.290159e-05
6.970000e-01 -7.179818e-05
6.980000e-01 -7.067774e-05
6.990001e-01 -6.955464e-05
7.000000e-01 -6.843494e-05
7.010000e-01 -6.731332e-05
7.020000e-01 -6.617983e-05
7.030000e-01 -6.503010e-05
7.040001e-01 -6.387051e-05
7.050000e-01 -6.271432e-05
7.060000e-01 -6.157272e-05
7.070000e-01 -6.044882e-05
7.080001e-01 -5.933953e-05
7.090001e-01 -5.824334e-05
7.100000e-01 -5.716649e-05
7.110000e-01 -5.612204e-05
7.120000e-01 -5.512251e-05
7.130001e-01 -5.417261e-05
7.140000e-01 -5.326854e-05
7.150000e-01 -5.240439e-05
7.160000e-01 -5.157981e-05
7.170000e-01 -5.080219e-05
7.180001e-01 -5.008123e-05
7.190000e-01 -4.942089e-05
7.200000e-01 -4.881583e-05
7.210000e-01 -4.825570e-05
7.220001e-01 -4.773338e-05
7.230000e-01 -4.724977e-05
7.240000e-01 -4.681066e-05
7.250000e-01 -4.641831e-05
7.260000e-01 -4.606511e-05
7.270001e-01 -4.573545e-05
7.280000e-01 -4.541434e-05
7.290000e-01 -4.509575e-05
7.300000e-01 -4.478309e-05
7.310000e-01 -4.448144e-05
7.320001e-01 -4.418781e-05
7.330000e-01 -4.388813e-05
7.340000e-01 -4.356370e-05
7.350000e-01 -4.320209e-05
7.360001e-01 -4.280322e-05
7.370000e-01 -4.237572e-05
7.380000e-01 -4.192664e-05
7.390000e-01 -4.145340e-05
7.400000e-01 -4.094474e-05
7.410001e-01 -4.038989e-05
7.420000e-01 -3.978785e-05
7.430000e-01 -3.914897e-05
7.440000e-01 -3.848750e-05
7.450001e-01 -3.781173e-05
7.460001e-01 -3.712024e-05
7.470000e-01 -3.640739e-05
7.480000e-01 -3.567299e-05
7.490000e-01 -3.492759e-05
7.500001e-01 -3.418854e-05
7.510000e-01 -3.347042e-05
7.520000e-01 -3.277807e-05
7.530000e-01 -3.210833e-05
7.540000e-01 -3.145875e-05
7.550001e-01 -3.083534e-05
7.560000e-01 -3.025229e-05
7.570000e-01 -2.972368e-05
7.580000e-01 -2.925454e-05
7.590001e-01 -2.883910e-05
7.600001e-01 -2.846789e-05
7.610000e-01 -2.813748e-05
7.620000e-01 -2.785388e-05
7.630000e-01 -2.762663e-05
7.640001e-01 -2.745842e-05
7.650000e-01 -2.733979e-05
7.660000e-01 -2.725381e-05
7.670000e-01 -2.718720e-05
7.680001e-01 -2.713822e-05
7.690001e-01 -2.711424e-05
7.700000e-01 -2.712079e-05
7.710000e-01 -2.715131e-05
7.720000e-01 -2.718670e-05
7.730001e-01 -2.720540e-05
7.740000e-01 -2.719563e-05
7.750000e-01 -2.715955e-05
7.760000e-01 -2.710584e-05
7.770000e-01 -2.703710e-05
7.780001e-01 -2.694328e-05
7.790000e-01 -2.680673e-05
7.800000e-01 -2.661485e-05
7.810000e-01 -2.636908e-05
7.820001e-01 -2.608259e-05
7.830001e-01 -2.576814e-05
7.840000e-01 -2.542682e-05
7.850000e-01 -2.504732e-05
7.860000e-01 -2.461677e-05
7.870001e-01 -2.413392e-05
7.880000e-01 -2.361339e-05
7.890000e-01 -2.307719e-05
7.900000e-01 -2.254049e-05
7.910001e-01 -2.200367e-05
7.920001e-01 -2.145717e-05
7.930000e-01 -2.089500e-05
7.940000e-01 -2.032516e-05
7.950000e-01 -1.976824e-05
7.960001e-01 -1.924533e-05
7.970001e-01 -1.876578e-05
7.980000e-01 -1.832495e-05
7.990000e-01 -1.791360e-05
8.000000e-01 -1.753049e-05
8.010001e-01 -1.718705e-05
8.020000e-01 -1.690027e-05
8.030000e-01 -1.667992e-05
8.040000e-01 -1.652144e-05
8.050001e-01 -1.641046e-05
8.060001e-01 -1.633491e-05
8.070000e-01 -1.629436e-05
8.080000e-01 -1.629835e-05
8.090000e-01 -1.635566e-05
8.100001e-01 -1.646366e-05
8.110000e-01 -1.660712e-05
8.120000e-01 -1.676700e-05
8.130000e-01 -1.693132e-05
8.140000e-01 -1.709882e-05
8.150001e-01 -1.727250e-05
8.160000e-01 -1.744958e-05
8.170000e-01 -1.761712e-05
8.180000e-01 -1.775744e-05
8.190001e-01 -1.785830e-05
8.200001e-01 -1.791856e-05
8.210000e-01 -1.794421e-05
8.220000e-01 -1.793826e-05
8.230000e-01 -1.789389e-05
8.240001e-01 -1.779732e-05
8.250000e-01 -1.763800e-05
8.260000e-01 -1.741723e-05
8.270000e-01 -1.714718e-05
8.280001e-01 -1.684105e-05
8.290001e-01 -1.650312e-05
8.300000e-01 -1.612772e-05
8.310000e-01 -1.570834e-05
8.320000e-01 -1.524878e-05
8.330001e-01 -1.476611e-05
8.340001e-01 -1.428209e-05
8.350000e-01 -1.381017e-05
8.360000e-01 -1.334937e-05
8.370000e-01 -1.289085e-05
8.380001e-01 -1.243178e-05
8.390000e-01 -1.198447e-05
8.400000e-01 -1.157227e-05
8.410000e-01 -1.121536e-05
8.420001e-01 -1.091807e-05
8.430001e-01 -1.066894e-05
8.440000e-01 -1.045362e-05
8.450000e-01 -1.026967e-05
8.460000e-01 -1.013058e-05
8.470001e-01 -1.005510e-05
8.480000e-01 -1.005103e-05
8.490000e-01 -1.010718e-05
8.500000e-01 -1.020084e-05
8.510001e-01 -1.031442e-05
8.520001e-01 -1.044733e-05
8.530000e-01 -1.061272e-05
8.540000e-01 -1.082197e-05
8.550000e-01 -1.107004e-05
8.560001e-01 -1.133430e-05
8.570001e-01 -1.158800e-05
8.580000e-01 -1.181692e-05
8.590000e-01 -1.202528e-05
8.600000e-01 -1.222602e-05
8.610001e-01 -1.242404e-05
8.620000e-01 -1.260689e-05
8.630000e-01 -1.275086e-05
8.640000e-01 -1.283709e-05
8.650001e-01 -1.286388e-05
8.660001e-01 -1.284475e-05
8.670000e-01 -1.279420e-05
8.680000e-01 -1.271368e-05
8.690000e-01 -1.258983e-05
8.700001e-01 -1.240638e-05
8.710001e-01 -1.215905e-05
8.720000e-01 -1.186058e-05
8.730000e-01 -1.153167e-05
8.740000e-01 -1.118592e-05
8.750001e-01 -1.082198e-05
8.760000e-01 -1.042966e-05
8.770000e-01 -1.000432e-05
8.780000e-01 -9.556774e-06
8.790001e-01 -9.109844e-06
