-1.200000e-01 0.000000e+00
-1.190000e-01 0.000000e+00
-1.180000e-01 0.000000e+00
-1.170000e-01 0.000000e+00
-1.160000e-01 0.000000e+00
-1.150000e-01 0.000000e+00
-1.140000e-01 0.000000e+00
-1.130000e-01 0.000000e+00
-1.120000e-01 0.000000e+00
-1.110000e-01 0.000000e+00
-1.100000e-01 0.000000e+00
-1.090000e-01 0.000000e+00
-1.080000e-01 0.000000e+00
-1.070000e-01 0.000000e+00
-1.060000e-01 0.000000e+00
-1.050000e-01 0.000000e+00
-1.040000e-01 0.000000e+00
-1.030000e-01 0.000000e+00
-1.020000e-01 0.000000e+00
-1.010000e-01 0.000000e+00
-1.000000e-01 0.000000e+00
-9.900001e-02 0.000000e+00
-9.800000e-02 0.000000e+00
-9.700000e-02 0.000000e+00
-9.600000e-02 0.000000e+00
-9.500001e-02 0.000000e+00
-9.400000e-02 0.000000e+00
-9.300000e-02 0.000000e+00
-9.200001e-02 0.000000e+00
-9.100001e-02 0.000000e+00
-9.000000e-02 0.000000e+00
-8.900000e-02 0.000000e+00
-8.800000e-02 0.000000e+00
-8.700000e-02 0.000000e+00
-8.600000e-02 0.000000e+00
-8.500001e-02 0.000000e+00
-8.400001e-02 0.000000e+00
-8.300000e-02 0.000000e+00
-8.200000e-02 -2.802597e-45
-8.100000e-02 -7.006492e-45
-8.000000e-02 -1.681558e-44
-7.900000e-02 -2.662467e-44
-7.800000e-02 1.681558e-44
-7.700001e-02 2.284116e-43
-7.600001e-02 6.614129e-43
-7.500000e-02 8.561934e-43
-7.400000e-02 -8.547921e-43
-7.300000e-02 -7.199872e-42
-7.200000e-02 -1.784694e-41
-7.100000e-02 -1.946684e-41
-7.000001e-02 2.500477e-41
-6.900001e-02 1.611900e-40
-6.800000e-02 3.581831e-40
-6.700000e-02 3.402479e-40
-6.600000e-02 -5.059921e-40
-6.500000e-02 -2.746252e-39
-6.400000e-02 -5.548940e-39
-6.300000e-02 -4.693649e-39
-6.200000e-02 7.754980e-39
-6.100000e-02 3.715829e-38
-6.000000e-02 6.976378e-38
-5.900000e-02 5.435978e-38
-5.800000e-02 -9.128232e-38
-5.700000e-02 -4.058108e-37
-5.600000e-02 -7.270710e-37
-5.500000e-02 -5.486956e-37
-5.400001e-02 8.488502e-37
-5.300000e-02 3.685092e-36
-5.200000e-02 6.398668e-36
-5.100000e-02 4.833929e-36
-5.000000e-02 -6.346550e-36
-4.900000e-02 -2.803433e-35
-4.800000e-02 -4.836682e-35
-4.700000e-02 -3.806297e-35
-4.600000e-02 3.715161e-35
-4.500000e-02 1.803884e-34
-4.400000e-02 3.150278e-34
-4.300000e-02 2.676683e-34
-4.200000e-02 -1.542205e-34
-4.100000e-02 -9.605952e-34
-4.000000e-02 -1.747631e-33
-3.900000e-02 -1.642766e-33
-3.800000e-02 2.864924e-34
-3.700000e-02 4.121331e-33
-3.600000e-02 8.155305e-33
-3.500000e-02 8.761840e-33
-3.400000e-02 2.064672e-33
-3.300000e-02 -1.287980e-32
-3.200000e-02 -3.063056e-32
-3.100000e-02 -3.949065e-32
-3.000000e-02 -2.613328e-32
-2.900000e-02 1.634087e-32
-2.800000e-02 8.121630e-32
-2.700000e-02 1.459447e-31
-2.600000e-02 1.752329e-31
-2.500000e-02 1.258961e-31
-2.400000e-02 -5.206427e-32
-2.300000e-02 -3.966863e-31
-2.200000e-02 -8.732161e-31
-2.100000e-02 -1.258376e-30
-2.000000e-02 -1.052181e-30
-1.900000e-02 4.057403e-31
-1.800000e-02 3.417341e-30
-1.700000e-02 7.039119e-30
-1.600000e-02 8.380182e-30
-1.500000e-02 3.308888e-30
-1.400000e-02 -1.072214e-29
-1.300000e-02 -3.012790e-29
-1.200000e-02 -4.211742e-29
-1.100000e-02 -2.783007e-29
-9.999998e-03 2.533296e-29
-8.999996e-03 1.055007e-28
-8.000001e-03 1.653647e-28
-6.999999e-03 1.344769e-28
-5.999997e-03 -3.555022e-29
-5.000003e-03 -3.098816e-28
-4.000001e-03 -5.366223e-28
-2.999999e-03 -4.935171e-28
-1.999997e-03 -2.998211e-29
-1.000002e-03 7.572074e-28
0.000000e+00 1.443406e-27
1.000002e-03 1.436818e-27
2.000004e-03 3.701216e-28
2.999999e-03 -1.482020e-27
4.000001e-03 -3.100455e-27
4.999995e-03 -3.220683e-27
5.999997e-03 -1.236754e-27
6.999999e-03 2.033762e-27
8.000001e-03 4.571838e-27
9.000003e-03 4.507828e-27
1.000001e-02 1.923649e-27
1.100001e-02 -6.251931e-28
1.199999e-02 -1.736043e-28
1.300000e-02 3.066393e-27
1.400000e-02 3.479432e-27
1.500000e-02 -6.778092e-27
1.600000e-02 -2.888314e-26
1.700000e-02 -4.870092e-26
1.800001e-02 -3.803895e-26
1.900001e-02 2.603967e-26
2.000000e-02 1.313790e-25
2.100000e-02 2.115328e-25
2.200000e-02 1.678144e-25
2.300000e-02 -6.083853e-26
2.400000e-02 -4.116674e-25
2.500001e-02 -6.660713e-25
2.600001e-02 -5.392984e-25
2.700000e-02 1.092795e-25
2.800000e-02 1.062758e-24
2.900000e-02 1.720793e-24
3.000000e-02 1.387851e-24
3.100000e-02 -1.934753e-25
3.200001e-02 -2.394471e-24
3.300001e-02 -3.774519e-24
3.400001e-02 -2.877580e-24
3.500000e-02 5.704056e-25
3.600000e-02 4.894234e-24
3.700000e-02 7.006661e-24
3.800000e-02 4.394882e-24
3.900000e-02 -2.509351e-24
4.000001e-02 -9.474440e-24
4.100001e-02 -1.056768e-23
4.200000e-02 -2.726500e-24
4.300000e-02 1.028586e-23
4.400000e-02 1.827095e-23
4.500000e-02 1.108464e-23
4.600000e-02 -1.177309e-23
4.700001e-02 -3.580190e-23
4.800001e-02 -3.736966e-23
4.900001e-02 -1.084548e-24
5.000000e-02 6.114855e-23
5.100000e-02 1.061181e-22
5.200000e-02 8.150701e-23
5.300000e-02 -3.220482e-23
5.400001e-02 -1.868518e-22
5.500001e-02 -2.728656e-22
5.600001e-02 -1.814542e-22
5.700000e-02 1.042775e-22
5.800000e-02 4.516423e-22
5.900000e-02 6.161081e-22
6.000000e-02 3.885646e-22
6.100000e-02 -2.251985e-22
6.200001e-02 -9.215425e-22
6.300001e-02 -1.217167e-21
6.400001e-02 -7.520359e-22
6.500000e-02 3.945846e-22
6.600000e-02 1.614891e-21
6.700000e-02 2.061179e-21
6.800000e-02 1.208489e-21
6.900001e-02 -6.549616e-22
7.000001e-02 -2.426199e-21
7.100001e-02 -2.818879e-21
7.200000e-02 -1.299302e-21
7.300000e-02 1.308668e-21
7.400000e-02 3.151147e-21
7.500000e-02 2.603674e-21
7.600001e-02 -3.017483e-22
7.700001e-02 -3.432018e-21
7.800001e-02 -3.782012e-21
7.900001e-02 1.249362e-22
8.000000e-02 6.315728e-21
8.100000e-02 9.754455e-21
8.200000e-02 5.566898e-21
8.300000e-02 -6.616638e-21
8.400001e-02 -2.037663e-20
8.500001e-02 -2.495409e-20
8.600001e-02 -1.225788e-20
8.700001e-02 1.565384e-20
8.800000e-02 4.430727e-20
8.900000e-02 5.333581e-20
9.000000e-02 2.954169e-20
9.100001e-02 -2.118696e-20
9.200001e-02 -7.274426e-20
9.300001e-02 -9.181658e-20
9.400001e-02 -5.927000e-20
9.500000e-02 1.371206e-20
9.600000e-02 8.779898e-20
9.700000e-02 1.180415e-19
9.800000e-02 8.384039e-20
9.900001e-02 5.646671e-21
1.000000e-01 -6.637595e-20
1.010000e-01 -8.708958e-20
1.020000e-01 -5.175135e-20
1.030000e-01 -2.642697e-21
1.040000e-01 3.241357e-21
1.050000e-01 -5.312448e-20
1.060000e-01 -1.217247e-19
1.070000e-01 -1.077563e-19
1.080000e-01 5.232426e-20
1.090000e-01 3.132981e-19
1.100000e-01 5.088422e-19
1.110000e-01 4.390024e-19
1.120000e-01 1.980865e-20
1.130000e-01 -6.031120e-19
1.140000e-01 -1.078735e-18
1.150000e-01 -1.037603e-18
1.160000e-01 -3.484251e-19
1.170000e-01 7.244922e-19
1.180000e-01 1.606833e-18
1.190000e-01 1.731720e-18
1.200000e-01 9.179534e-19
1.210000e-01 -4.619364e-19
1.220000e-01 -1.659873e-18
1.230000e-01 -2.001942e-18
1.240000e-01 -1.341760e-18
1.250000e-01 -1.607276e-19
1.260000e-01 7.710899e-19
1.270000e-01 9.888931e-19
1.280000e-01 7.030919e-19
1.290000e-01 6.227424e-19
1.300000e-01 1.278828e-18
1.310000e-01 2.328139e-18
1.320000e-01 2.522012e-18
1.330000e-01 5.350374e-19
1.340000e-01 -3.716647e-18
1.350000e-01 -8.283947e-18
1.360000e-01 -9.784780e-18
1.370000e-01 -5.466568e-18
1.380000e-01 4.398190e-18
1.390000e-01 1.547798e-17
1.400000e-01 2.102847e-17
1.410000e-01 1.577906e-17
1.420000e-01 -1.081241e-19
1.430000e-01 -1.967231e-17
1.440000e-01 -3.211964e-17
1.450000e-01 -2.898973e-17
1.460000e-01 -9.937645e-18
1.470000e-01 1.575788e-17
1.480000e-01 3.404421e-17
1.490000e-01 3.459400e-17
1.500000e-01 1.778670e-17
1.510000e-01 -4.925879e-18
1.520000e-01 -1.865637e-17
1.530000e-01 -1.587139e-17
1.540000e-01 -2.828065e-18
1.550000e-01 4.134066e-18
1.560000e-01 -8.496078e-18
1.570000e-01 -3.746232e-17
1.580000e-01 -5.964024e-17
1.590000e-01 -4.531031e-17
1.600000e-01 1.819520e-17
1.610000e-01 1.082055e-16
1.620000e-01 1.700691e-16
1.630000e-01 1.469133e-16
1.640000e-01 2.121536e-17
1.650000e-01 -1.587580e-16
1.660000e-01 -2.925378e-16
1.670000e-01 -2.818866e-16
1.680000e-01 -9.860255e-17
1.690000e-01 1.796626e-16
1.700000e-01 3.961983e-16
1.710000e-01 4.024896e-16
1.720000e-01 1.584412e-16
1.730000e-01 -2.213734e-16
1.740000e-01 -5.160857e-16
1.750000e-01 -5.258546e-16
1.760000e-01 -2.069148e-16
1.770000e-01 2.786974e-16
1.780000e-01 6.455417e-16
1.790000e-01 6.588420e-16
1.800000e-01 2.983990e-16
1.810000e-01 -2.124907e-16
1.820000e-01 -5.463324e-16
1.830000e-01 -4.993665e-16
1.840000e-01 -1.557018e-16
1.850000e-01 1.530832e-16
1.860000e-01 8.829035e-17
1.870000e-01 -4.019032e-16
1.880000e-01 -9.583242e-16
1.890000e-01 -9.955223e-16
1.900000e-01 -1.163537e-16
1.910000e-01 1.497939e-15
1.920000e-01 3.026578e-15
1.930000e-01 3.405950e-15
1.940000e-01 1.994975e-15
1.950000e-01 -8.999357e-16
1.960000e-01 -4.013618e-15
1.970000e-01 -5.731447e-15
1.980000e-01 -4.993122e-15
1.990000e-01 -1.952732e-15
2.000000e-01 2.042658e-15
2.010000e-01 5.151482e-15
2.020000e-01 6.006864e-15
2.030000e-01 4.373861e-15
2.040000e-01 1.144336e-15
2.050000e-01 -2.225591e-15
2.060000e-01 -4.419319e-15
2.070000e-01 -4.722033e-15
2.080000e-01 -3.068832e-15
2.090000e-01 7.316205e-17
2.100000e-01 3.785594e-15
2.110000e-01 6.705064e-15
2.120000e-01 7.296860e-15
2.130000e-01 4.602011e-15
2.140000e-01 -8.620263e-16
2.150000e-01 -6.806433e-15
2.160000e-01 -1.017592e-14
2.170000e-01 -9.273292e-15
2.180000e-01 -5.431053e-15
2.190000e-01 -2.703200e-15
2.200000e-01 -4.807300e-15
2.210000e-01 -1.122060e-14
2.220000e-01 -1.561705e-14
2.230000e-01 -9.088625e-15
2.240000e-01 1.267034e-14
2.250000e-01 4.255981e-14
2.260000e-01 6.255227e-14
2.270000e-01 5.364484e-14
2.280000e-01 9.924753e-15
2.290000e-01 -5.145598e-14
2.300000e-01 -9.515134e-14
2.310000e-01 -8.807588e-14
2.320000e-01 -2.450756e-14
2.330000e-01 6.228098e-14
2.340000e-01 1.140449e-13
2.350000e-01 8.602514e-14
2.360000e-01 -1.300456e-14
2.370000e-01 -1.139275e-13
2.380000e-01 -1.195394e-13
2.390000e-01 2.845383e-14
2.400000e-01 2.988566e-13
2.410000e-01 5.724806e-13
2.420000e-01 7.142574e-13
2.430000e-01 6.651861e-13
2.440000e-01 5.093740e-13
2.450000e-01 4.284429e-13
2.460000e-01 5.671256e-13
2.470000e-01 8.929827e-13
2.480000e-01 1.216805e-12
2.490000e-01 1.307790e-12
2.500000e-01 1.083652e-12
2.510000e-01 6.890684e-13
2.520000e-01 4.644787e-13
2.530000e-01 7.245536e-13
2.540000e-01 1.566045e-12
2.550000e-01 2.669762e-12
2.560000e-01 3.529338e-12
2.570000e-01 3.764999e-12
2.580000e-01 3.425573e-12
2.590000e-01 3.019234e-12
2.600000e-01 3.115644e-12
2.610000e-01 4.004155e-12
2.620000e-01 5.652215e-12
2.630000e-01 7.835577e-12
2.640000e-01 9.527040e-12
2.650000e-01 9.901951e-12
2.660000e-01 8.887973e-12
2.670000e-01 7.497837e-12
2.680000e-01 7.974022e-12
2.690000e-01 1.153181e-11
2.700000e-01 1.695591e-11
2.710000e-01 2.081751e-11
2.720000e-01 2.114902e-11
2.730000e-01 1.812405e-11
2.740000e-01 1.292893e-11
2.750000e-01 9.412061e-12
2.760000e-01 9.135932e-12
2.770000e-01 1.129036e-11
2.780000e-01 1.466006e-11
2.790000e-01 1.883995e-11
2.800000e-01 2.082077e-11
2.810000e-01 1.875065e-11
2.820000e-01 1.424998e-11
2.830000e-01 6.971537e-12
2.840000e-01 -5.383922e-13
2.850000e-01 -1.684462e-11
2.860000e-01 -3.986382e-11
2.870000e-01 -6.473487e-11
2.880000e-01 -8.636518e-11
2.890000e-01 -1.052177e-10
2.900000e-01 -1.222184e-10
2.910000e-01 -1.475524e-10
2.920000e-01 -1.747383e-10
2.930000e-01 -2.084056e-10
2.940000e-01 -2.490174e-10
2.950000e-01 -3.150922e-10
2.960000e-01 -4.293151e-10
2.970000e-01 -5.833529e-10
2.980000e-01 -7.253537e-10
2.990000e-01 -8.192063e-10
3.000000e-01 -8.584292e-10
3.010000e-01 -8.837632e-10
3.020000e-01 -9.072453e-10
3.030000e-01 -1.000172e-09
3.040000e-01 -1.124580e-09
3.050000e-01 -1.306396e-09
3.060000e-01 -1.545619e-09
3.070000e-01 -1.821879e-09
3.080000e-01 -2.064805e-09
3.090000e-01 -2.283658e-09
3.100000e-01 -2.467326e-09
3.110000e-01 -2.647289e-09
3.120000e-01 -2.832809e-09
3.130000e-01 -2.972032e-09
3.140000e-01 -3.070514e-09
3.150000e-01 -3.054181e-09
3.160000e-01 -3.004515e-09
3.170000e-01 -3.036331e-09
3.180000e-01 -3.223702e-09
3.190000e-01 -3.455517e-09
3.200000e-01 -3.728073e-09
3.210000e-01 -3.900630e-09
3.220000e-01 -3.988001e-09
3.230000e-01 -3.938335e-09
3.240000e-01 -3.725706e-09
3.250000e-01 -3.409373e-09
3.260000e-01 -2.983781e-09
3.270000e-01 -2.400781e-09
3.280000e-01 -1.608522e-09
3.290000e-01 -7.236706e-10
3.300000e-01 -7.770801e-11
3.310000e-01 -3.174572e-11
3.320000e-01 -9.411683e-11
3.330000e-01 5.286976e-10
3.340000e-01 2.121420e-09
3.350000e-01 4.373401e-09
3.360000e-01 6.518901e-09
3.370000e-01 7.917179e-09
3.380000e-01 8.532123e-09
3.390000e-01 9.272992e-09
3.400000e-01 1.085275e-08
3.410000e-01 1.339177e-08
3.420000e-01 1.650857e-08
3.430000e-01 1.924018e-08
3.440000e-01 2.111253e-08
3.450000e-01 2.251081e-08
3.460000e-01 2.404983e-08
3.470000e-01 2.631477e-08
3.480000e-01 2.925379e-08
3.490000e-01 3.230392e-08
3.500000e-01 3.493182e-08
3.510000e-01 3.677454e-08
3.520000e-01 3.801727e-08
3.530000e-01 3.937110e-08
3.540000e-01 4.111012e-08
3.550000e-01 4.307136e-08
3.560000e-01 4.475852e-08
3.570000e-01 4.583087e-08
3.580000e-01 4.634767e-08
3.590000e-01 4.673854e-08
3.600000e-01 4.727756e-08
3.610000e-01 4.786102e-08
3.620000e-01 4.817041e-08
3.630000e-01 4.797609e-08
3.640000e-01 4.718177e-08
3.650000e-01 4.569857e-08
3.660000e-01 4.342277e-08
3.670000e-01 4.080623e-08
3.680000e-01 3.810822e-08
3.690000e-01 3.566205e-08
3.700000e-01 3.318254e-08
3.710000e-01 3.023638e-08
3.720000e-01 2.643465e-08
3.730000e-01 2.166255e-08
3.740000e-01 1.646638e-08
3.750000e-01 1.131651e-08
3.760000e-01 6.515711e-09
3.770000e-01 1.775732e-09
3.780000e-01 -3.172579e-09
3.790000e-01 -8.546817e-09
3.800000e-01 -1.452846e-08
3.810000e-01 -2.075455e-08
3.820000e-01 -2.667694e-08
3.830000e-01 -3.179562e-08
3.840000e-01 -3.652171e-08
3.850000e-01 -4.128114e-08
3.860000e-01 -4.623315e-08
3.870000e-01 -5.109628e-08
3.880000e-01 -5.524089e-08
3.890000e-01 -5.822254e-08
3.900000e-01 -6.014492e-08
3.910000e-01 -6.190434e-08
3.920000e-01 -6.455266e-08
3.930000e-01 -6.834912e-08
3.940000e-01 -7.247891e-08
3.950000e-01 -7.582352e-08
3.960000e-01 -7.744961e-08
3.970000e-01 -7.733496e-08
3.980000e-01 -7.622030e-08
3.990000e-01 -7.494268e-08
4.000000e-01 -7.375395e-08
4.010000e-01 -7.216522e-08
4.020000e-01 -6.948761e-08
4.030000e-01 -6.572110e-08
4.040000e-01 -6.161014e-08
4.050000e-01 -5.825105e-08
4.060000e-01 -5.615862e-08
4.070000e-01 -5.478100e-08
4.080000e-01 -5.281079e-08
4.090000e-01 -4.915539e-08
4.100000e-01 -4.374444e-08
4.110000e-01 -3.757052e-08
4.120000e-01 -3.189846e-08
4.130000e-01 -2.738010e-08
4.140000e-01 -2.356174e-08
4.150000e-01 -1.950264e-08
4.160000e-01 -1.452965e-08
4.170000e-01 -8.893700e-09
4.180000e-01 -3.664229e-09
4.190000e-01 1.647784e-10
4.200000e-01 2.377581e-09
4.210000e-01 3.684597e-09
4.220001e-01 5.179402e-09
4.230000e-01 7.516684e-09
4.240000e-01 1.050420e-08
4.250000e-01 1.334287e-08
4.260000e-01 1.520376e-08
4.270000e-01 1.594845e-08
4.280000e-01 1.610610e-08
4.290000e-01 1.633644e-08
4.300000e-01 1.682233e-08
4.310000e-01 1.716008e-08
4.320000e-01 1.665523e-08
4.330000e-01 1.498279e-08
4.340000e-01 1.239646e-08
4.350000e-01 9.614756e-09
4.360000e-01 7.206203e-09
4.370000e-01 5.315243e-09
4.380000e-01 3.617802e-09
4.390000e-01 1.734249e-09
4.400000e-01 -4.280072e-10
4.410000e-01 -2.502301e-09
4.420000e-01 -4.174742e-09
4.430000e-01 -5.328664e-09
4.440000e-01 -6.381661e-09
4.450000e-01 -7.907805e-09
4.460000e-01 -1.021682e-08
4.470000e-01 -1.306843e-08
4.480000e-01 -1.579689e-08
4.490000e-01 -1.773507e-08
4.500000e-01 -1.868899e-08
4.510000e-01 -1.896699e-08
4.520000e-01 -1.910470e-08
4.530000e-01 -1.933594e-08
4.540000e-01 -1.933847e-08
4.550000e-01 -1.841508e-08
4.560000e-01 -1.610048e-08
4.570000e-01 -1.263820e-08
4.580000e-01 -8.982396e-09
4.590001e-01 -6.253909e-09
4.600000e-01 -5.069635e-09
4.610000e-01 -5.190917e-09
4.620000e-01 -5.701783e-09
4.630000e-01 -5.593205e-09
4.640000e-01 -4.379764e-09
4.650000e-01 -2.259379e-09
4.660000e-01 1.809142e-10
4.670000e-01 2.485096e-09
4.680000e-01 4.587426e-09
4.690000e-01 6.753644e-09
4.700000e-01 9.177501e-09
4.710000e-01 1.167057e-08
4.720000e-01 1.376110e-08
4.730000e-01 1.507430e-08
4.740000e-01 1.571355e-08
4.750000e-01 1.629389e-08
4.760000e-01 1.752712e-08
4.770000e-01 1.965098e-08
4.780000e-01 2.213410e-08
4.790000e-01 2.399858e-08
4.800000e-01 2.450427e-08
4.810000e-01 2.370984e-08
4.820001e-01 2.246749e-08
4.830000e-01 2.188428e-08
4.840000e-01 2.258129e-08
4.850000e-01 2.433501e-08
4.860000e-01 2.631650e-08
4.870000e-01 2.769638e-08
4.880000e-01 2.813274e-08
4.890000e-01 2.782279e-08
4.900000e-01 2.716957e-08
4.910000e-01 2.639967e-08
4.920000e-01 2.547162e-08
4.930000e-01 2.432320e-08
4.940000e-01 2.313837e-08
4.950000e-01 2.235823e-08
4.960001e-01 2.240802e-08
4.970000e-01 2.334304e-08
4.980000e-01 2.478449e-08
4.990000e-01 2.619955e-08
5.000000e-01 2.730414e-08
5.010000e-01 2.821683e-08
5.020000e-01 2.923779e-08
5.030000e-01 3.047056e-08
5.040000e-01 3.167763e-08
5.050000e-01 3.249900e-08
5.060000e-01 3.283374e-08
5.070000e-01 3.301859e-08
5.080000e-01 3.357671e-08
5.090000e-01 3.473506e-08
5.100001e-01 3.617101e-08
5.110000e-01 3.724950e-08
5.120000e-01 3.760385e-08
5.130000e-01 3.753251e-08
5.140000e-01 3.781368e-08
5.150000e-01 3.903335e-08
5.160000e-01 4.099546e-08
5.170000e-01 4.275950e-08
5.180000e-01 4.335682e-08
5.190001e-01 4.259419e-08
5.200000e-01 4.124961e-08
5.210000e-01 4.042720e-08
5.220000e-01 4.057415e-08
5.230000e-01 4.100064e-08
5.240000e-01 4.037635e-08
5.250000e-01 3.784294e-08
5.260000e-01 3.381639e-08
5.270000e-01 2.975260e-08
5.280000e-01 2.702776e-08
5.290000e-01 2.581802e-08
5.300000e-01 2.495498e-08
5.310000e-01 2.289649e-08
5.320000e-01 1.903814e-08
5.330001e-01 1.424648e-08
5.340000e-01 1.013449e-08
5.350000e-01 7.661699e-09
5.360000e-01 6.239490e-09
5.370000e-01 4.131257e-09
5.380000e-01 -1.488525e-10
5.390000e-01 -6.591159e-09
5.400000e-01 -1.364870e-08
5.410000e-01 -1.943534e-08
5.420001e-01 -2.317760e-08
5.430000e-01 -2.570960e-08
5.440000e-01 -2.862634e-08
5.450000e-01 -3.284931e-08
5.460000e-01 -3.784341e-08
5.470001e-01 -4.214656e-08
5.480000e-01 -4.472538e-08
5.490000e-01 -4.595054e-08
5.500000e-01 -4.732406e-08
5.510000e-01 -5.018774e-08
5.520000e-01 -5.454407e-08
5.530000e-01 -5.902362e-08
5.540000e-01 -6.203643e-08
5.550000e-01 -6.310494e-08
5.560001e-01 -6.320776e-08
5.570000e-01 -6.383329e-08
5.580000e-01 -6.557774e-08
5.590000e-01 -6.753710e-08
5.600000e-01 -6.805425e-08
5.610000e-01 -6.618835e-08
5.620000e-01 -6.262002e-08
5.630000e-01 -5.919006e-08
5.640000e-01 -5.744638e-08
5.650001e-01 -5.745039e-08
5.660000e-01 -5.786580e-08
5.670000e-01 -5.722450e-08
5.680000e-01 -5.523436e-08
5.690000e-01 -5.296145e-08
5.700001e-01 -5.173126e-08
5.710000e-01 -5.176183e-08
5.720000e-01 -5.181208e-08
5.730000e-01 -5.022854e-08
5.740000e-01 -4.652369e-08
5.750000e-01 -4.207047e-08
5.760000e-01 -3.921007e-08
5.770000e-01 -3.942513e-08
5.780000e-01 -4.209043e-08
5.790001e-01 -4.489276e-08
5.800000e-01 -4.562704e-08
5.810000e-01 -4.387196e-08
5.820000e-01 -4.119606e-08
5.830000e-01 -3.972339e-08
5.840001e-01 -4.031878e-08
5.850000e-01 -4.192945e-08
5.860000e-01 -4.263548e-08
5.870000e-01 -4.143782e-08
5.880000e-01 -3.924709e-08
5.890000e-01 -3.816656e-08
5.900000e-01 -3.970269e-08
5.910000e-01 -4.336845e-08
5.920000e-01 -4.693328e-08
5.930001e-01 -4.810738e-08
5.940000e-01 -4.629258e-08
5.950000e-01 -4.294352e-08
5.960000e-01 -4.028150e-08
5.970000e-01 -3.954911e-08
5.980000e-01 -4.011117e-08
5.990000e-01 -4.023711e-08
6.000000e-01 -3.866954e-08
6.010000e-01 -3.563344e-08
6.020001e-01 -3.248068e-08
6.030000e-01 -3.043441e-08
6.040000e-01 -2.953998e-08
6.050000e-01 -2.873352e-08
6.060000e-01 -2.693076e-08
6.070001e-01 -2.402522e-08
6.080000e-01 -2.085301e-08
6.090000e-01 -1.817155e-08
6.100000e-01 -1.575397e-08
6.110000e-01 -1.248084e-08
6.120000e-01 -7.339191e-09
6.130000e-01 -5.614287e-10
6.140000e-01 6.354297e-09
6.150000e-01 1.180521e-08
6.160001e-01 1.552648e-08
6.170000e-01 1.901073e-08
6.180000e-01 2.435377e-08
6.190000e-01 3.259403e-08
6.200000e-01 4.275142e-08
6.210001e-01 5.251808e-08
6.220000e-01 6.012154e-08
6.230000e-01 6.566330e-08
6.240000e-01 7.096765e-08
6.250001e-01 7.801876e-08
6.260000e-01 8.733585e-08
6.270000e-01 9.768766e-08
6.280000e-01 1.073358e-07
6.290000e-01 1.154950e-07
6.300001e-01 1.229093e-07
6.310000e-01 1.309977e-07
6.320000e-01 1.403407e-07
6.330000e-01 1.499856e-07
6.340000e-01 1.581832e-07
6.350001e-01 1.638901e-07
6.360000e-01 1.677100e-07
6.370000e-01 1.713965e-07
6.380000e-01 1.763478e-07
6.390001e-01 1.824066e-07
6.400000e-01 1.880227e-07
6.410000e-01 1.916741e-07
6.420000e-01 1.931902e-07
6.430000e-01 1.937268e-07
6.440001e-01 1.945374e-07
6.450000e-01 1.955739e-07
6.460000e-01 1.952549e-07
6.470000e-01 1.917506e-07
6.480000e-01 1.847057e-07
6.490000e-01 1.757867e-07
6.500000e-01 1.675121e-07
6.510000e-01 1.612986e-07
6.520000e-01 1.563314e-07
6.530001e-01 1.503642e-07
6.540000e-01 1.416156e-07
6.550000e-01 1.302391e-07
6.560000e-01 1.180646e-07
6.570000e-01 1.068576e-07
6.580001e-01 9.665889e-08
6.590000e-01 8.569912e-08
6.600000e-01 7.202082e-08
6.610000e-01 5.533327e-08
6.620001e-01 3.746424e-08
6.630000e-01 2.095539e-08
6.640000e-01 6.973393e-09
6.650000e-01 -5.606750e-09
6.660000e-01 -1.912671e-08
6.670001e-01 -3.496935e-08
6.680000e-01 -5.227959e-08
6.690000e-01 -6.864400e-08
6.700000e-01 -8.221164e-08
6.710000e-01 -9.341725e-08
6.720001e-01 -1.046268e-07
6.730000e-01 -1.180375e-07
6.740000e-01 -1.335702e-07
6.750000e-01 -1.486807e-07
6.760001e-01 -1.603138e-07
6.770000e-01 -1.673849e-07
6.780000e-01 -1.716825e-07
6.790000e-01 -1.763262e-07
6.800000e-01 -1.831008e-07
6.810001e-01 -1.909080e-07
6.820000e-01 -1.967444e-07
6.830000e-01 -1.983422e-07
6.840000e-01 -1.962996e-07
6.850001e-01 -1.937513e-07
6.860000e-01 -1.938305e-07
6.870000e-01 -1.969922e-07
6.880000e-01 -2.004860e-07
6.890000e-01 -2.004152e-07
6.900001e-01 -1.947273e-07
6.910000e-01 -1.847741e-07
6.920000e-01 -1.741364e-07
6.930000e-01 -1.658052e-07
6.940000e-01 -1.600819e-07
6.950001e-01 -1.548308e-07
6.960000e-01 -1.477133e-07
6.970000e-01 -1.383726e-07
6.980000e-01 -1.287141e-07
6.990001e-01 -1.211350e-07
7.000000e-01 -1.163628e-07
7.010000e-01 -1.127920e-07
7.020000e-01 -1.078939e-07
7.030000e-01 -1.003799e-07
7.040001e-01 -9.123455e-08
7.050000e-01 -8.272743e-08
7.060000e-01 -7.636684e-08
7.070000e-01 -7.163680e-08
7.080001e-01 -6.664588e-08
7.090001e-01 -6.006886e-08
7.100000e-01 -5.257122e-08
7.110000e-01 -4.641457e-08
7.120000e-01 -4.353013e-08
7.130001e-01 -4.377764e-08
7.140000e-01 -4.496416e-08
7.150000e-01 -4.459246e-08
7.160000e-01 -4.185270e-08
7.170000e-01 -3.808320e-08
7.180001e-01 -3.531751e-08
7.190000e-01 -3.425136e-08
7.200000e-01 -3.347225e-08
7.210000e-01 -3.071629e-08
7.220001e-01 -2.507225e-08
7.230000e-01 -1.814534e-08
7.240000e-01 -1.305014e-08
7.250000e-01 -1.195760e-08
7.260000e-01 -1.422305e-08
7.270001e-01 -1.670818e-08
7.280000e-01 -1.608809e-08
7.290000e-01 -1.127397e-08
7.300000e-01 -3.991269e-09
7.310000e-01 2.891607e-09
7.320001e-01 7.806483e-09
7.330000e-01 1.165579e-08
7.340000e-01 1.681043e-08
7.350000e-01 2.490025e-08
7.360001e-01 3.535355e-08
7.370000e-01 4.592676e-08
7.380000e-01 5.464425e-08
7.390000e-01 6.141752e-08
7.400000e-01 6.792893e-08
7.410001e-01 7.596175e-08
7.420000e-01 8.574081e-08
7.430000e-01 9.577103e-08
7.440000e-01 1.043419e-07
7.450001e-01 1.112644e-07
7.460001e-01 1.182488e-07
7.470000e-01 1.275037e-07
7.480000e-01 1.397486e-07
7.490000e-01 1.533981e-07
7.500001e-01 1.656730e-07
7.510000e-01 1.747036e-07
7.520000e-01 1.808458e-07
7.530000e-01 1.861092e-07
7.540000e-01 1.922617e-07
7.550001e-01 1.993252e-07
7.560000e-01 2.057914e-07
7.570000e-01 2.103164e-07
7.580000e-01 2.132853e-07
7.590001e-01 2.167365e-07
7.600001e-01 2.225879e-07
7.610000e-01 2.306845e-07
7.620000e-01 2.384584e-07
7.630000e-01 2.426424e-07
7.640001e-01 2.417136e-07
7.650000e-01 2.370377e-07
7.660000e-01 2.317222e-07
7.670000e-01 2.281115e-07
7.680001e-01 2.259941e-07
7.690001e-01 2.229991e-07
7.700000e-01 2.167837e-07
7.710000e-01 2.071094e-07
7.720000e-01 1.960238e-07
7.730001e-01 1.860223e-07
7.740000e-01 1.778245e-07
7.750000e-01 1.697268e-07
7.760000e-01 1.591318e-07
7.770000e-01 1.449289e-07
7.780001e-01 1.286567e-07
7.790000e-01 1.133874e-07
7.800000e-01 1.012455e-07
7.810000e-01 9.166347e-08
7.820001e-01 8.187860e-08
7.830001e-01 6.927548e-08
7.840000e-01 5.361510e-08
7.850000e-01 3.728486e-08
7.860000e-01 2.336486e-08
7.870001e-01 1.315409e-08
7.880000e-01 5.215261e-09
7.890000e-01 -3.302377e-09
7.900000e-01 -1.423162e-08
7.910001e-01 -2.691302e-08
7.920001e-01 -3.887833e-08
7.930000e-01 -4.803166e-08
7.940000e-01 -5.441447e-08
7.950000e-01 -6.006866e-08
7.960001e-01 -6.717293e-08
7.970001e-01 -7.612125e-08
7.980000e-01 -8.520431e-08
7.990000e-01 -9.214243e-08
8.000000e-01 -9.609606e-08
8.010001e-01 -9.838703e-08
8.020000e-01 -1.013195e-07
8.030000e-01 -1.061469e-07
8.040000e-01 -1.119872e-07
8.050001e-01 -1.166349e-07
8.060001e-01 -1.185645e-07
8.070000e-01 -1.183676e-07
8.080000e-01 -1.183515e-07
8.090000e-01 -1.206281e-07
8.100001e-01 -1.253336e-07
8.110000e-01 -1.305292e-07
8.120000e-01 -1.338748e-07
8.130000e-01 -1.346439e-07
8.140000e-01 -1.343291e-07
8.150001e-01 -1.352995e-07
8.160000e-01 -1.386508e-07
8.170000e-01 -1.431075e-07
8.180000e-01 -1.459665e-07
8.190001e-01 -1.453423e-07
8.200001e-01 -1.418517e-07
8.210000e-01 -1.382957e-07
8.220000e-01 -1.375522e-07
8.230000e-01 -1.403662e-07
8.240001e-01 -1.448037e-07
8.250000e-01 -1.477813e-07
8.260000e-01 -1.473979e-07
8.270000e-01 -1.442047e-07
8.280001e-01 -1.404677e-07
8.290001e-01 -1.381345e-07
8.300000e-01 -1.372247e-07
8.310000e-01 -1.359190e-07
8.320000e-01 -1.321740e-07
8.330001e-01 -1.254481e-07
8.340001e-01 -1.171208e-07
8.350000e-01 -1.093431e-07
8.360000e-01 -1.033629e-07
8.370000e-01 -9.872365e-08
8.380001e-01 -9.391407e-08
8.390000e-01 -8.779102e-08
8.400000e-01 -8.049575e-08
8.410000e-01 -7.310781e-08
8.420001e-01 -6.643378e-08
8.430001e-01 -6.008040e-08
8.440000e-01 -5.268711e-08
8.450000e-01 -4.315865e-08
8.460000e-01 -3.184632e-08
8.470001e-01 -2.064296e-08
8.480000e-01 -1.184142e-08
8.490000e-01 -6.631220e-09
8.500000e-01 -4.377150e-09
8.510001e-01 -3.184329e-09
8.520001e-01 -1.240906e-09
8.530000e-01 2.108206e-09
8.540000e-01 6.279357e-09
8.550000e-01 1.022762e-08
8.560001e-01 1.331673e-08
8.570001e-01 1.558554e-08
8.580000e-01 1.734564e-08
8.590000e-01 1.863405e-08
8.600000e-01 1.909157e-08
8.610001e-01 1.835372e-08
8.620000e-01 1.651357e-08
8.630000e-01 1.416345e-08
8.640000e-01 1.194013e-08
8.650001e-01 9.997519e-09
8.660001e-01 7.927535e-09
8.670000e-01 5.228256e-09
8.680000e-01 1.892290e-09
8.690000e-01 -1.443359e-09
8.700001e-01 -3.976584e-09
8.710001e-01 -5.438461e-09
8.720000e-01 -6.380373e-09
8.730000e-01 -7.739154e-09
8.740000e-01 -1.002451e-08
8.750001e-01 -1.282825e-08
8.760000e-01 -1.511621e-08
8.770000e-01 -1.608415e-08
8.780000e-01 -1.584549e-08
8.790001e-01 -1.533362e-08
