-1.200000e-01 0.000000e+00
-1.190000e-01 0.000000e+00
-1.180000e-01 0.000000e+00
-1.170000e-01 0.000000e+00
-1.160000e-01 0.000000e+00
-1.150000e-01 0.000000e+00
-1.140000e-01 0.000000e+00
-1.130000e-01 -4.405863e-22
-1.120000e-01 2.485317e-21
-1.110000e-01 3.253238e-20
-1.100000e-01 1.002210e-19
-1.090000e-01 -2.737729e-21
-1.080000e-01 -8.526568e-19
-1.070000e-01 -2.413696e-18
-1.060000e-01 -1.323655e-18
-1.050000e-01 9.663823e-18
-1.040000e-01 3.074013e-17
-1.030000e-01 3.109086e-17
-1.020000e-01 -5.698966e-17
-1.010000e-01 -2.645012e-16
-1.000000e-01 -4.208100e-16
-9.900001e-02 -6.312497e-17
-9.800000e-02 1.243119e-15
-9.700000e-02 3.021437e-15
-9.600000e-02 3.062472e-15
-9.500001e-02 -1.817192e-15
-9.400000e-02 -1.223638e-14
-9.300000e-02 -2.141673e-14
-9.200001e-02 -1.450642e-14
-9.100001e-02 2.155994e-14
-9.000000e-02 7.826614e-14
-8.900000e-02 1.104455e-13
-8.800000e-02 5.049204e-14
-8.700000e-02 -1.348440e-13
-8.600000e-02 -3.704299e-13
-8.500001e-02 -4.511056e-13
-8.400001e-02 -1.444780e-13
-8.300000e-02 5.869568e-13
-8.200000e-02 1.383344e-12
-8.100000e-02 1.530887e-12
-8.000000e-02 3.906782e-13
-7.900000e-02 -1.938644e-12
-7.800000e-02 -4.209019e-12
-7.700001e-02 -4.413648e-12
-7.600001e-02 -1.106037e-12
-7.500000e-02 5.018158e-12
-7.400000e-02 1.054717e-11
-7.300000e-02 1.081240e-11
-7.200000e-02 3.112973e-12
-7.100000e-02 -1.022511e-11
-7.000001e-02 -2.159195e-11
-6.900001e-02 -2.198924e-11
-6.800000e-02 -7.468559e-12
-6.700000e-02 1.620392e-11
-6.600000e-02 3.499925e-11
-6.500000e-02 3.492556e-11
-6.400000e-02 1.252987e-11
-6.300000e-02 -2.018578e-11
-6.200000e-02 -4.179334e-11
-6.100000e-02 -3.621216e-11
-6.000000e-02 -6.279314e-12
-5.900000e-02 2.528333e-11
-5.800000e-02 3.119096e-11
-5.700000e-02 2.169062e-12
-5.600000e-02 -4.053083e-11
-5.500000e-02 -5.576107e-11
-5.400001e-02 -1.316382e-11
-5.300000e-02 7.663090e-11
-5.200000e-02 1.574059e-10
-5.100000e-02 1.585575e-10
-5.000000e-02 4.593811e-11
-4.900000e-02 -1.426675e-10
-4.800000e-02 -3.073662e-10
-4.700000e-02 -3.420782e-10
-4.600000e-02 -2.031488e-10
-4.500000e-02 5.628971e-11
-4.400000e-02 3.130500e-10
-4.300000e-02 4.466204e-10
-4.200000e-02 4.090151e-10
-4.100000e-02 2.435990e-10
-4.000000e-02 4.158497e-11
-3.900000e-02 -1.286075e-10
-3.800000e-02 -2.633539e-10
-3.700000e-02 -4.038269e-10
-3.600000e-02 -5.701354e-10
-3.500000e-02 -7.044813e-10
-3.400000e-02 -6.755252e-10
-3.300000e-02 -3.528635e-10
-3.200000e-02 2.914065e-10
-3.100000e-02 1.119485e-09
-3.000000e-02 1.846728e-09
-2.900000e-02 2.138730e-09
-2.800000e-02 1.743713e-09
-2.700000e-02 6.079616e-10
-2.600000e-02 -1.063289e-09
-2.500000e-02 -2.819530e-09
-2.400000e-02 -4.063784e-09
-2.300000e-02 -4.234578e-09
-2.200000e-02 -3.035524e-09
-2.100000e-02 -6.266045e-10
-2.000000e-02 2.337480e-09
-1.900000e-02 4.897007e-09
-1.800000e-02 6.164953e-09
-1.700000e-02 5.721312e-09
-1.600000e-02 3.802024e-09
-1.500000e-02 1.153078e-09
-1.400000e-02 -1.380177e-09
-1.300000e-02 -3.280070e-09
-1.200000e-02 -4.529185e-09
-1.100000e-02 -5.426190e-09
-9.999998e-03 -6.195085e-09
-8.999996e-03 -6.691832e-09
-8.000001e-03 -6.444580e-09
-6.999999e-03 -5.011746e-09
-5.999997e-03 -2.385822e-09
-5.000003e-03 8.985190e-10
-4.000001e-03 4.118149e-09
-2.999999e-03 7.045027e-09
-1.999997e-03 1.061385e-08
-1.000002e-03 1.723417e-08
0.000000e+00 3.060181e-08
1.000002e-03 5.509199e-08
2.000004e-03 9.493969e-08
2.999999e-03 1.534148e-07
4.000001e-03 2.321766e-07
4.999995e-03 3.310219e-07
5.999997e-03 4.482791e-07
6.999999e-03 5.820093e-07
8.000001e-03 7.318653e-07
9.000003e-03 9.010355e-07
1.000001e-02 1.097454e-06
1.100001e-02 1.333647e-06
1.199999e-02 1.625219e-06
1.300000e-02 1.988711e-06
1.400000e-02 2.439942e-06
1.500000e-02 2.993676e-06
1.600000e-02 3.664730e-06
1.700000e-02 4.469896e-06
1.800001e-02 5.429771e-06
1.900001e-02 6.569935e-06
2.000000e-02 7.921496e-06
2.100000e-02 9.521435e-06
2.200000e-02 1.141313e-05
2.300000e-02 1.364715e-05
2.400000e-02 1.628200e-05
2.500001e-02 1.938476e-05
2.600001e-02 2.303169e-05
2.700000e-02 2.730902e-05
2.800000e-02 3.231422e-05
2.900000e-02 3.815750e-05
3.000000e-02 4.496291e-05
3.100000e-02 5.286903e-05
3.200001e-02 6.202948e-05
3.300001e-02 7.261399e-05
3.400001e-02 8.481070e-05
3.500000e-02 9.882940e-05
3.600000e-02 1.149046e-04
3.700000e-02 1.332971e-04
3.800000e-02 1.542943e-04
3.900000e-02 1.782083e-04
4.000001e-02 2.053758e-04
4.100001e-02 2.361589e-04
4.200000e-02 2.709476e-04
4.300000e-02 3.101622e-04
4.400000e-02 3.542550e-04
4.500000e-02 4.037092e-04
4.600000e-02 4.590361e-04
4.700001e-02 5.207724e-04
4.800001e-02 5.894781e-04
4.900001e-02 6.657352e-04
5.000000e-02 7.501454e-04
5.100000e-02 8.433262e-04
5.200000e-02 9.459065e-04
5.300000e-02 1.058520e-03
5.400001e-02 1.181798e-03
5.500001e-02 1.316364e-03
5.600001e-02 1.462828e-03
5.700000e-02 1.621771e-03
5.800000e-02 1.793742e-03
5.900000e-02 1.979240e-03
6.000000e-02 2.178707e-03
6.100000e-02 2.392518e-03
6.200001e-02 2.620967e-03
6.300001e-02 2.864258e-03
6.400001e-02 3.122489e-03
6.500000e-02 3.395631e-03
6.600000e-02 3.683517e-03
6.700000e-02 3.985826e-03
6.800000e-02 4.302075e-03
6.900001e-02 4.631606e-03
7.000001e-02 4.973581e-03
7.100001e-02 5.326961e-03
7.200000e-02 5.690506e-03
7.300000e-02 6.062760e-03
7.400000e-02 6.442049e-03
7.500000e-02 6.826485e-03
7.600001e-02 7.213966e-03
7.700001e-02 7.602178e-03
7.800001e-02 7.988603e-03
7.900001e-02 8.370516e-03
8.000000e-02 8.745005e-03
8.100000e-02 9.108993e-03
8.200000e-02 9.459256e-03
8.300000e-02 9.792454e-03
8.400001e-02 1.010515e-02
8.500001e-02 1.039385e-02
8.600001e-02 1.065502e-02
8.700001e-02 1.088513e-02
8.800000e-02 1.108070e-02
8.900000e-02 1.123833e-02
9.000000e-02 1.135477e-02
9.100001e-02 1.142693e-02
9.200001e-02 1.145193e-02
9.300001e-02 1.142714e-02
9.400001e-02 1.135025e-02
9.500000e-02 1.121927e-02
9.600000e-02 1.103263e-02
9.700000e-02 1.078916e-02
9.800000e-02 1.048812e-02
9.900001e-02 1.012926e-02
1.000000e-01 9.712826e-03
1.010000e-01 9.239571e-03
1.020000e-01 8.710789e-03
1.030000e-01 8.128301e-03
1.040000e-01 7.494451e-03
1.050000e-01 6.812089e-03
1.060000e-01 6.084563e-03
1.070000e-01 5.315697e-03
1.080000e-01 4.509766e-03
1.090000e-01 3.671456e-03
1.100000e-01 2.805814e-03
1.110000e-01 1.918192e-03
1.120000e-01 1.014192e-03
1.130000e-01 9.961094e-05
1.140000e-01 -8.196169e-04
1.150000e-01 -1.737484e-03
1.160000e-01 -2.647986e-03
1.170000e-01 -3.545193e-03
1.180000e-01 -4.423325e-03
1.190000e-01 -5.276820e-03
1.200000e-01 -6.100383e-03
1.210000e-01 -6.889057e-03
1.220000e-01 -7.638279e-03
1.230000e-01 -8.343942e-03
1.240000e-01 -9.002457e-03
1.250000e-01 -9.610786e-03
1.260000e-01 -1.016648e-02
1.270000e-01 -1.066769e-02
1.280000e-01 -1.111321e-02
1.290000e-01 -1.150245e-02
1.300000e-01 -1.183552e-02
1.310000e-01 -1.211315e-02
1.320000e-01 -1.233673e-02
1.330000e-01 -1.250826e-02
1.340000e-01 -1.263033e-02
1.350000e-01 -1.270608e-02
1.360000e-01 -1.273917e-02
1.370000e-01 -1.273372e-02
1.380000e-01 -1.269429e-02
1.390000e-01 -1.262580e-02
1.400000e-01 -1.253345e-02
1.410000e-01 -1.242267e-02
1.420000e-01 -1.229905e-02
1.430000e-01 -1.216829e-02
1.440000e-01 -1.203610e-02
1.450000e-01 -1.190816e-02
1.460000e-01 -1.179003e-02
1.470000e-01 -1.168707e-02
1.480000e-01 -1.160437e-02
1.490000e-01 -1.154670e-02
1.500000e-01 -1.151848e-02
1.510000e-01 -1.152365e-02
1.520000e-01 -1.156567e-02
1.530000e-01 -1.164745e-02
1.540000e-01 -1.177128e-02
1.550000e-01 -1.193882e-02
1.560000e-01 -1.215106e-02
1.570000e-01 -1.240831e-02
1.580000e-01 -1.271014e-02
1.590000e-01 -1.305539e-02
1.600000e-01 -1.344213e-02
1.610000e-01 -1.386770e-02
1.620000e-01 -1.432869e-02
1.630000e-01 -1.482099e-02
1.640000e-01 -1.533976e-02
1.650000e-01 -1.587951e-02
1.660000e-01 -1.643411e-02
1.670000e-01 -1.699680e-02
1.680000e-01 -1.756032e-02
1.690000e-01 -1.811695e-02
1.700000e-01 -1.865859e-02
1.710000e-01 -1.917678e-02
1.720000e-01 -1.966286e-02
1.730000e-01 -2.010798e-02
1.740000e-01 -2.050324e-02
1.750000e-01 -2.083983e-02
1.760000e-01 -2.110905e-02
1.770000e-01 -2.130252e-02
1.780000e-01 -2.141219e-02
1.790000e-01 -2.143048e-02
1.800000e-01 -2.135038e-02
1.810000e-01 -2.116557e-02
1.820000e-01 -2.087053e-02
1.830000e-01 -2.046065e-02
1.840000e-01 -1.993225e-02
1.850000e-01 -1.928271e-02
1.860000e-01 -1.851047e-02
1.870000e-01 -1.761516e-02
1.880000e-01 -1.659761e-02
1.890000e-01 -1.545993e-02
1.900000e-01 -1.420546e-02
1.910000e-01 -1.283880e-02
1.920000e-01 -1.136575e-02
1.930000e-01 -9.793304e-03
1.940000e-01 -8.129615e-03
1.950000e-01 -6.383942e-03
1.960000e-01 -4.566563e-03
1.970000e-01 -2.688671e-03
1.980000e-01 -7.622346e-04
1.990000e-01 1.200111e-03
2.000000e-01 3.185188e-03
2.010000e-01 5.179389e-03
2.020000e-01 7.168817e-03
2.030000e-01 9.139452e-03
2.040000e-01 1.107733e-02
2.050000e-01 1.296870e-02
2.060000e-01 1.480018e-02
2.070000e-01 1.655888e-02
2.080000e-01 1.823254e-02
2.090000e-01 1.980962e-02
2.100000e-01 2.127951e-02
2.110000e-01 2.263261e-02
2.120000e-01 2.386045e-02
2.130000e-01 2.495578e-02
2.140000e-01 2.591258e-02
2.150000e-01 2.672614e-02
2.160000e-01 2.739303e-02
2.170000e-01 2.791122e-02
2.180000e-01 2.828006e-02
2.190000e-01 2.850026e-02
2.200000e-01 2.857382e-02
2.210000e-01 2.850397e-02
2.220000e-01 2.829509e-02
2.230000e-01 2.795266e-02
2.240000e-01 2.748319e-02
2.250000e-01 2.689414e-02
2.260000e-01 2.619377e-02
2.270000e-01 2.539103e-02
2.280000e-01 2.449539e-02
2.290000e-01 2.351676e-02
2.300000e-01 2.246535e-02
2.310000e-01 2.135162e-02
2.320000e-01 2.018612e-02
2.330000e-01 1.897934e-02
2.340000e-01 1.774163e-02
2.350000e-01 1.648303e-02
2.360000e-01 1.521326e-02
2.370000e-01 1.394159e-02
2.380000e-01 1.267685e-02
2.390000e-01 1.142730e-02
2.400000e-01 1.020057e-02
2.410000e-01 9.003604e-03
2.420000e-01 7.842595e-03
2.430000e-01 6.723043e-03
2.440000e-01 5.649740e-03
2.450000e-01 4.626782e-03
2.460000e-01 3.657541e-03
2.470000e-01 2.744660e-03
2.480000e-01 1.890066e-03
2.490000e-01 1.095023e-03
2.500000e-01 3.601965e-04
2.510000e-01 -3.142880e-04
2.520000e-01 -9.288175e-04
2.530000e-01 -1.484272e-03
2.540000e-01 -1.981996e-03
2.550000e-01 -2.423739e-03
2.560000e-01 -2.811578e-03
2.570000e-01 -3.147842e-03
2.580000e-01 -3.435062e-03
2.590000e-01 -3.675948e-03
2.600000e-01 -3.873372e-03
2.610000e-01 -4.030325e-03
2.620000e-01 -4.149862e-03
2.630000e-01 -4.235037e-03
2.640000e-01 -4.288860e-03
2.650000e-01 -4.314277e-03
2.660000e-01 -4.314173e-03
2.670000e-01 -4.291366e-03
2.680000e-01 -4.248581e-03
2.690000e-01 -4.188408e-03
2.700000e-01 -4.113272e-03
2.710000e-01 -4.025427e-03
2.720000e-01 -3.926969e-03
2.730000e-01 -3.819856e-03
2.740000e-01 -3.705908e-03
2.750000e-01 -3.586784e-03
2.760000e-01 -3.463968e-03
2.770000e-01 -3.338764e-03
2.780000e-01 -3.212321e-03
2.790000e-01 -3.085666e-03
2.800000e-01 -2.959717e-03
2.810000e-01 -2.835279e-03
2.820000e-01 -2.713025e-03
2.830000e-01 -2.593494e-03
2.840000e-01 -2.477107e-03
2.850000e-01 -2.364206e-03
2.860000e-01 -2.255079e-03
2.870000e-01 -2.149961e-03
2.880000e-01 -2.049020e-03
2.890000e-01 -1.952337e-03
2.900000e-01 -1.859919e-03
2.910000e-01 -1.771729e-03
2.920000e-01 -1.687722e-03
2.930000e-01 -1.607851e-03
2.940000e-01 -1.532056e-03
2.950000e-01 -1.460231e-03
2.960000e-01 -1.392223e-03
2.970000e-01 -1.327847e-03
2.980000e-01 -1.266927e-03
2.990000e-01 -1.209317e-03
3.000000e-01 -1.154891e-03
3.010000e-01 -1.103519e-03
3.020000e-01 -1.055036e-03
3.030000e-01 -1.009255e-03
3.040000e-01 -9.659871e-04
3.050000e-01 -9.250804e-04
3.060000e-01 -8.864201e-04
3.070000e-01 -8.499047e-04
3.080000e-01 -8.154147e-04
3.090000e-01 -7.828016e-04
3.100000e-01 -7.519093e-04
3.110000e-01 -7.226091e-04
3.120000e-01 -6.948170e-04
3.130000e-01 -6.684797e-04
3.140000e-01 -6.435383e-04
3.150000e-01 -6.199033e-04
3.160000e-01 -5.974618e-04
3.170000e-01 -5.761092e-04
3.180000e-01 -5.557790e-04
3.190000e-01 -5.364425e-04
3.200000e-01 -5.180791e-04
3.210000e-01 -5.006424e-04
3.220000e-01 -4.840525e-04
3.230000e-01 -4.682214e-04
3.240000e-01 -4.530897e-04
3.250000e-01 -4.386409e-04
3.260000e-01 -4.248804e-04
3.270000e-01 -4.117968e-04
3.280000e-01 -3.993382e-04
3.290000e-01 -3.874248e-04
3.300000e-01 -3.759881e-04
3.310000e-01 -3.650016e-04
3.320000e-01 -3.544769e-04
3.330000e-01 -3.444277e-04
3.340000e-01 -3.348328e-04
3.350000e-01 -3.256304e-04
3.360000e-01 -3.167482e-04
3.370000e-01 -3.081443e-04
3.380000e-01 -2.998228e-04
3.390000e-01 -2.918106e-04
3.400000e-01 -2.841163e-04
3.410000e-01 -2.767062e-04
3.420000e-01 -2.695190e-04
3.430000e-01 -2.625058e-04
3.440000e-01 -2.556604e-04
3.450000e-01 -2.490136e-04
3.460000e-01 -2.425964e-04
3.470000e-01 -2.364043e-04
3.480000e-01 -2.303941e-04
3.490000e-01 -2.245157e-04
3.500000e-01 -2.187503e-04
3.510000e-01 -2.131218e-04
3.520000e-01 -2.076713e-04
3.530000e-01 -2.024176e-04
3.540000e-01 -1.973390e-04
3.550000e-01 -1.923924e-04
3.560000e-01 -1.875521e-04
3.570000e-01 -1.828331e-04
3.580000e-01 -1.782773e-04
3.590000e-01 -1.739152e-04
3.600000e-01 -1.697359e-04
3.610000e-01 -1.656948e-04
3.620000e-01 -1.617515e-04
3.630000e-01 -1.579055e-04
3.640000e-01 -1.541970e-04
3.650000e-01 -1.506705e-04
3.660000e-01 -1.473330e-04
3.670000e-01 -1.441439e-04
3.680000e-01 -1.410457e-04
3.690000e-01 -1.380109e-04
3.700000e-01 -1.350629e-04
3.710000e-01 -1.322524e-04
3.720000e-01 -1.296093e-04
3.730000e-01 -1.271112e-04
3.740000e-01 -1.246973e-04
3.750000e-01 -1.223155e-04
3.760000e-01 -1.199619e-04
3.770000e-01 -1.176789e-04
3.780000e-01 -1.155115e-04
3.790000e-01 -1.134609e-04
3.800000e-01 -1.114765e-04
3.810000e-01 -1.094922e-04
3.820000e-01 -1.074786e-04
3.830000e-01 -1.054641e-04
3.840000e-01 -1.035061e-04
3.850000e-01 -1.016379e-04
3.860000e-01 -9.983645e-05
3.870000e-01 -9.803833e-05
3.880000e-01 -9.619153e-05
3.890000e-01 -9.429684e-05
3.900000e-01 -9.240387e-05
3.910000e-01 -9.056529e-05
3.920000e-01 -8.878975e-05
3.930000e-01 -8.703480e-05
3.940000e-01 -8.524591e-05
3.950000e-01 -8.340703e-05
3.960000e-01 -8.155794e-05
3.970000e-01 -7.976282e-05
3.980000e-01 -7.805738e-05
3.990000e-01 -7.642113e-05
4.000000e-01 -7.479914e-05
4.010000e-01 -7.315447e-05
4.020000e-01 -7.150483e-05
4.030000e-01 -6.991108e-05
4.040000e-01 -6.842738e-05
4.050000e-01 -6.705670e-05
4.060000e-01 -6.575126e-05
4.070000e-01 -6.445765e-05
4.080000e-01 -6.316690e-05
4.090000e-01 -6.192509e-05
4.100000e-01 -6.079431e-05
4.110000e-01 -5.979790e-05
4.120000e-01 -5.889826e-05
4.130000e-01 -5.802753e-05
4.140000e-01 -5.714485e-05
4.150000e-01 -5.627024e-05
4.160000e-01 -5.546486e-05
4.170000e-01 -5.477411e-05
4.180000e-01 -5.418297e-05
4.190000e-01 -5.362293e-05
4.200000e-01 -5.302512e-05
4.210000e-01 -5.237403e-05
4.220001e-01 -5.171520e-05
4.230000e-01 -5.111016e-05
4.240000e-01 -5.057782e-05
4.250000e-01 -5.007312e-05
4.260000e-01 -4.952188e-05
4.270000e-01 -4.888128e-05
4.280000e-01 -4.817349e-05
4.290000e-01 -4.746330e-05
4.300000e-01 -4.679914e-05
4.310000e-01 -4.616927e-05
4.320000e-01 -4.551106e-05
4.330000e-01 -4.476532e-05
4.340000e-01 -4.392805e-05
4.350000e-01 -4.305450e-05
4.360000e-01 -4.221238e-05
4.370000e-01 -4.142525e-05
4.380000e-01 -4.065569e-05
4.390000e-01 -3.984249e-05
4.400000e-01 -3.895879e-05
4.410000e-01 -3.803979e-05
4.420000e-01 -3.715548e-05
4.430000e-01 -3.635288e-05
4.440000e-01 -3.561850e-05
4.450000e-01 -3.489448e-05
4.460000e-01 -3.413390e-05
4.470000e-01 -3.334633e-05
4.480000e-01 -3.259311e-05
4.490000e-01 -3.193612e-05
4.500000e-01 -3.138539e-05
4.510000e-01 -3.089184e-05
4.520000e-01 -3.039216e-05
4.530000e-01 -2.986630e-05
4.540000e-01 -2.935675e-05
4.550000e-01 -2.893184e-05
4.560000e-01 -2.862501e-05
4.570000e-01 -2.840332e-05
4.580000e-01 -2.819366e-05
4.590001e-01 -2.794417e-05
4.600000e-01 -2.766735e-05
4.610000e-01 -2.742649e-05
4.620000e-01 -2.727670e-05
4.630000e-01 -2.721197e-05
4.640000e-01 -2.716485e-05
4.650000e-01 -2.706009e-05
4.660000e-01 -2.687607e-05
4.670000e-01 -2.666054e-05
4.680000e-01 -2.648638e-05
4.690000e-01 -2.638517e-05
4.700000e-01 -2.631589e-05
4.710000e-01 -2.619599e-05
4.720000e-01 -2.596843e-05
4.730000e-01 -2.564700e-05
4.740000e-01 -2.530132e-05
4.750000e-01 -2.499469e-05
4.760000e-01 -2.472888e-05
4.770000e-01 -2.444311e-05
4.780000e-01 -2.406774e-05
4.790000e-01 -2.358546e-05
4.800000e-01 -2.304723e-05
4.810000e-01 -2.252946e-05
4.820001e-01 -2.207026e-05
4.830000e-01 -2.164010e-05
4.840000e-01 -2.117183e-05
4.850000e-01 -2.062320e-05
4.860000e-01 -2.001714e-05
4.870000e-01 -1.942522e-05
4.880000e-01 -1.890928e-05
4.890000e-01 -1.847254e-05
4.900000e-01 -1.806247e-05
4.910000e-01 -1.762179e-05
4.920000e-01 -1.714244e-05
4.930000e-01 -1.667499e-05
4.940000e-01 -1.628610e-05
4.950000e-01 -1.600203e-05
4.960001e-01 -1.578821e-05
4.970000e-01 -1.558242e-05
4.980000e-01 -1.535156e-05
4.990000e-01 -1.512166e-05
5.000000e-01 -1.495420e-05
5.010000e-01 -1.489004e-05
5.020000e-01 -1.491060e-05
5.030000e-01 -1.495100e-05
5.040000e-01 -1.495387e-05
5.050000e-01 -1.491665e-05
5.060000e-01 -1.489048e-05
5.070000e-01 -1.493160e-05
5.080000e-01 -1.504769e-05
5.090000e-01 -1.518640e-05
5.100001e-01 -1.527655e-05
5.110000e-01 -1.528607e-05
5.120000e-01 -1.524620e-05
5.130000e-01 -1.522067e-05
5.140000e-01 -1.524668e-05
5.150000e-01 -1.529900e-05
5.160000e-01 -1.530871e-05
5.170000e-01 -1.522016e-05
5.180000e-01 -1.503706e-05
5.190001e-01 -1.481766e-05
5.200000e-01 -1.462360e-05
5.210000e-01 -1.446681e-05
5.220000e-01 -1.430036e-05
5.230000e-01 -1.406060e-05
5.240000e-01 -1.372376e-05
5.250000e-01 -1.332802e-05
5.260000e-01 -1.294251e-05
5.270000e-01 -1.261067e-05
5.280000e-01 -1.231725e-05
5.290000e-01 -1.200666e-05
5.300000e-01 -1.163568e-05
5.310000e-01 -1.121433e-05
5.320000e-01 -1.079949e-05
5.330001e-01 -1.044808e-05
5.340000e-01 -1.017115e-05
5.350000e-01 -9.928850e-06
5.360000e-01 -9.669685e-06
5.370000e-01 -9.378894e-06
5.380000e-01 -9.093324e-06
5.390000e-01 -8.870385e-06
5.400000e-01 -8.739018e-06
5.410000e-01 -8.675954e-06
5.420001e-01 -8.627717e-06
5.430000e-01 -8.558371e-06
5.440000e-01 -8.480619e-06
5.450000e-01 -8.443052e-06
5.460000e-01 -8.485187e-06
5.470001e-01 -8.600230e-06
5.480000e-01 -8.738392e-06
5.490000e-01 -8.847729e-06
5.500000e-01 -8.916505e-06
5.510000e-01 -8.979961e-06
5.520000e-01 -9.085767e-06
5.530000e-01 -9.248646e-06
5.540000e-01 -9.433974e-06
5.550000e-01 -9.584575e-06
5.560001e-01 -9.667207e-06
5.570000e-01 -9.698171e-06
5.580000e-01 -9.725936e-06
5.590000e-01 -9.786115e-06
5.600000e-01 -9.867976e-06
5.610000e-01 -9.921334e-06
5.620000e-01 -9.897522e-06
5.630000e-01 -9.788974e-06
5.640000e-01 -9.633681e-06
5.650001e-01 -9.481539e-06
5.660000e-01 -9.352203e-06
5.670000e-01 -9.220554e-06
5.680000e-01 -9.041252e-06
5.690000e-01 -8.790093e-06
5.700001e-01 -8.486216e-06
5.710000e-01 -8.176768e-06
5.720000e-01 -7.898423e-06
5.730000e-01 -7.649471e-06
5.740000e-01 -7.395890e-06
5.750000e-01 -7.104847e-06
5.760000e-01 -6.775788e-06
5.770000e-01 -6.442656e-06
5.780000e-01 -6.146689e-06
5.790001e-01 -5.904546e-06
5.800000e-01 -5.699339e-06
5.810000e-01 -5.500944e-06
5.820000e-01 -5.296251e-06
5.830000e-01 -5.102324e-06
5.840001e-01 -4.951689e-06
5.850000e-01 -4.864023e-06
5.860000e-01 -4.829901e-06
5.870000e-01 -4.820618e-06
5.880000e-01 -4.814402e-06
5.890000e-01 -4.815099e-06
5.900000e-01 -4.846836e-06
5.910000e-01 -4.930092e-06
5.920000e-01 -5.061066e-06
5.930001e-01 -5.212799e-06
5.940000e-01 -5.356705e-06
5.950000e-01 -5.484999e-06
5.960000e-01 -5.614097e-06
5.970000e-01 -5.766310e-06
5.980000e-01 -5.946480e-06
5.990000e-01 -6.134311e-06
6.000000e-01 -6.298891e-06
6.010000e-01 -6.422202e-06
6.020001e-01 -6.510867e-06
6.030000e-01 -6.586267e-06
6.040000e-01 -6.662423e-06
6.050000e-01 -6.731481e-06
6.060000e-01 -6.769312e-06
6.070001e-01 -6.755709e-06
6.080000e-01 -6.691033e-06
6.090000e-01 -6.594909e-06
6.100000e-01 -6.488828e-06
6.110000e-01 -6.378424e-06
6.120000e-01 -6.250784e-06
6.130000e-01 -6.088258e-06
6.140000e-01 -5.885742e-06
6.150000e-01 -5.656122e-06
6.160001e-01 -5.419880e-06
6.170000e-01 -5.189120e-06
6.180000e-01 -4.960594e-06
6.190000e-01 -4.723380e-06
6.200000e-01 -4.473278e-06
6.210001e-01 -4.220297e-06
6.220000e-01 -3.982571e-06
6.230000e-01 -3.772815e-06
6.240000e-01 -3.590095e-06
6.250001e-01 -3.424303e-06
6.260000e-01 -3.268696e-06
6.270000e-01 -3.128467e-06
6.280000e-01 -3.017291e-06
6.290000e-01 -2.945314e-06
6.300001e-01 -2.910057e-06
6.310000e-01 -2.898923e-06
6.320000e-01 -2.901008e-06
6.330000e-01 -2.917083e-06
6.340000e-01 -2.958308e-06
6.350001e-01 -3.034753e-06
6.360000e-01 -3.144403e-06
6.370000e-01 -3.272983e-06
6.380000e-01 -3.404859e-06
6.390001e-01 -3.534949e-06
6.400000e-01 -3.670508e-06
6.410000e-01 -3.821089e-06
6.420000e-01 -3.986063e-06
6.430000e-01 -4.151500e-06
6.440001e-01 -4.299607e-06
6.450000e-01 -4.422136e-06
6.460000e-01 -4.525280e-06
6.470000e-01 -4.621319e-06
6.480000e-01 -4.714634e-06
6.490000e-01 -4.795142e-06
6.500000e-01 -4.845541e-06
6.510000e-01 -4.855845e-06
6.520000e-01 -4.831664e-06
6.530001e-01 -4.788239e-06
6.540000e-01 -4.735504e-06
6.550000e-01 -4.668177e-06
6.560000e-01 -4.570640e-06
6.570000e-01 -4.432668e-06
6.580001e-01 -4.261474e-06
6.590000e-01 -4.078186e-06
6.600000e-01 -3.900946e-06
6.610000e-01 -3.729664e-06
6.620001e-01 -3.546890e-06
6.630000e-01 -3.335167e-06
6.640000e-01 -3.095897e-06
6.650000e-01 -2.852427e-06
6.660000e-01 -2.633541e-06
6.670001e-01 -2.451268e-06
6.680000e-01 -2.292797e-06
6.690000e-01 -2.134411e-06
6.700000e-01 -1.965681e-06
6.710000e-01 -1.802308e-06
6.720001e-01 -1.675349e-06
6.730000e-01 -1.605449e-06
6.740000e-01 -1.584702e-06
6.750000e-01 -1.582917e-06
6.760001e-01 -1.573792e-06
6.770000e-01 -1.558467e-06
6.780000e-01 -1.565347e-06
6.790000e-01 -1.625479e-06
6.800000e-01 -1.744518e-06
6.810001e-01 -1.895957e-06
6.820000e-01 -2.042129e-06
6.830000e-01 -2.165003e-06
6.840000e-01 -2.279713e-06
6.850001e-01 -2.418513e-06
6.860000e-01 -2.598950e-06
6.870000e-01 -2.804384e-06
6.880000e-01 -2.994632e-06
6.890000e-01 -3.138010e-06
6.900001e-01 -3.236730e-06
6.910000e-01 -3.322868e-06
6.920000e-01 -3.427827e-06
6.930000e-01 -3.551922e-06
6.940000e-01 -3.661244e-06
6.950001e-01 -3.715317e-06
6.960000e-01 -3.701670e-06
6.970000e-01 -3.646761e-06
6.980000e-01 -3.592947e-06
6.990001e-01 -3.561162e-06
7.000000e-01 -3.532101e-06
7.010000e-01 -3.463024e-06
7.020000e-01 -3.326090e-06
7.030000e-01 -3.134742e-06
7.040001e-01 -2.934518e-06
7.050000e-01 -2.765642e-06
7.060000e-01 -2.629836e-06
7.070000e-01 -2.490692e-06
7.080001e-01 -2.307865e-06
7.090001e-01 -2.075509e-06
7.100000e-01 -1.831110e-06
7.110000e-01 -1.626367e-06
7.120000e-01 -1.485043e-06
7.130001e-01 -1.384541e-06
7.140000e-01 -1.277631e-06
7.150000e-01 -1.135725e-06
7.160000e-01 -9.759227e-07
7.170000e-01 -8.479087e-07
7.180001e-01 -7.917710e-07
7.190000e-01 -8.035058e-07
7.200000e-01 -8.386126e-07
7.210000e-01 -8.510437e-07
7.220001e-01 -8.336711e-07
7.230000e-01 -8.247406e-07
7.240000e-01 -8.742703e-07
7.250000e-01 -9.994313e-07
7.260000e-01 -1.167879e-06
7.270001e-01 -1.323859e-06
7.280000e-01 -1.434572e-06
7.290000e-01 -1.516430e-06
7.300000e-01 -1.618201e-06
7.310000e-01 -1.775682e-06
7.320001e-01 -1.977538e-06
7.330000e-01 -2.172330e-06
7.340000e-01 -2.310805e-06
7.350000e-01 -2.386608e-06
7.360001e-01 -2.439785e-06
7.370000e-01 -2.519948e-06
7.380000e-01 -2.641236e-06
7.390000e-01 -2.768489e-06
7.400000e-01 -2.846745e-06
7.410001e-01 -2.848217e-06
7.420000e-01 -2.795531e-06
7.430000e-01 -2.740813e-06
7.440000e-01 -2.718976e-06
7.450001e-01 -2.716341e-06
7.460001e-01 -2.682402e-06
7.470000e-01 -2.574689e-06
7.480000e-01 -2.397501e-06
7.490000e-01 -2.200367e-06
7.500001e-01 -2.037288e-06
7.510000e-01 -1.922146e-06
7.520000e-01 -1.819207e-06
7.530000e-01 -1.676999e-06
7.540000e-01 -1.475904e-06
7.550001e-01 -1.247708e-06
7.560000e-01 -1.049939e-06
7.570000e-01 -9.174270e-07
7.580000e-01 -8.336803e-07
7.590001e-01 -7.473478e-07
7.600001e-01 -6.195465e-07
7.610000e-01 -4.605693e-07
7.620000e-01 -3.235471e-07
7.630000e-01 -2.601968e-07
7.640001e-01 -2.770689e-07
7.650000e-01 -3.305144e-07
7.660000e-01 -3.649492e-07
7.670000e-01 -3.611862e-07
7.680001e-01 -3.526993e-07
7.690001e-01 -3.955499e-07
7.700000e-01 -5.181195e-07
7.710000e-01 -6.945069e-07
7.720000e-01 -8.649225e-07
7.730001e-01 -9.855021e-07
7.740000e-01 -1.064271e-06
7.750000e-01 -1.151964e-06
7.760000e-01 -1.295643e-06
7.770000e-01 -1.495406e-06
7.780001e-01 -1.701819e-06
7.790000e-01 -1.856315e-06
7.800000e-01 -1.939502e-06
7.810000e-01 -1.985515e-06
7.820001e-01 -2.050079e-06
7.830001e-01 -2.160112e-06
7.840000e-01 -2.288632e-06
7.850000e-01 -2.376647e-06
7.860000e-01 -2.382966e-06
7.870001e-01 -2.318798e-06
7.880000e-01 -2.237385e-06
7.890000e-01 -2.187959e-06
7.900000e-01 -2.174006e-06
7.910001e-01 -2.151757e-06
7.920001e-01 -2.069715e-06
7.930000e-01 -1.914612e-06
7.940000e-01 -1.723989e-06
7.950000e-01 -1.554905e-06
7.960001e-01 -1.436324e-06
7.970001e-01 -1.346519e-06
7.980000e-01 -1.234709e-06
7.990000e-01 -1.067631e-06
8.000000e-01 -8.604299e-07
8.010001e-01 -6.652847e-07
8.020000e-01 -5.281147e-07
8.030000e-01 -4.511730e-07
8.040000e-01 -3.937533e-07
8.050001e-01 -3.098271e-07
8.060001e-01 -1.894931e-07
8.070000e-01 -6.830116e-08
8.080000e-01 3.151932e-09
8.090000e-01 2.435498e-09
8.100001e-01 -4.631341e-08
8.110000e-01 -9.435928e-08
8.120000e-01 -1.110225e-07
8.130000e-01 -1.096651e-07
8.140000e-01 -1.346536e-07
8.150001e-01 -2.211662e-07
8.160000e-01 -3.631866e-07
8.170000e-01 -5.175111e-07
8.180000e-01 -6.399822e-07
8.190001e-01 -7.221835e-07
8.200001e-01 -7.967333e-07
8.210000e-01 -9.068650e-07
8.220000e-01 -1.066983e-06
8.230000e-01 -1.248427e-06
8.240001e-01 -1.402514e-06
8.250000e-01 -1.500552e-06
8.260000e-01 -1.556125e-06
8.270000e-01 -1.610684e-06
8.280001e-01 -1.695387e-06
8.290001e-01 -1.802502e-06
8.300000e-01 -1.890981e-06
8.310000e-01 -1.921071e-06
8.320000e-01 -1.887827e-06
8.330001e-01 -1.824732e-06
8.340001e-01 -1.774670e-06
8.350000e-01 -1.753523e-06
8.360000e-01 -1.737583e-06
8.370000e-01 -1.685072e-06
8.380001e-01 -1.572765e-06
8.390000e-01 -1.416227e-06
8.400000e-01 -1.256847e-06
8.410000e-01 -1.127540e-06
8.420001e-01 -1.026872e-06
8.430001e-01 -9.233875e-07
8.440000e-01 -7.855770e-07
8.450000e-01 -6.111617e-07
8.460000e-01 -4.306667e-07
8.470001e-01 -2.828933e-07
8.480000e-01 -1.839504e-07
8.490000e-01 -1.163915e-07
8.500000e-01 -4.708015e-08
8.510001e-01 4.236562e-08
8.520001e-01 1.389515e-07
8.530000e-01 2.093006e-07
8.540000e-01 2.280399e-07
8.550000e-01 1.987917e-07
8.560001e-01 1.500419e-07
8.570001e-01 1.101576e-07
8.580000e-01 8.351664e-08
8.590000e-01 4.810613e-08
8.600000e-01 -2.401146e-08
8.610001e-01 -1.415434e-07
8.620000e-01 -2.857565e-07
8.630000e-01 -4.257161e-07
8.640000e-01 -5.432501e-07
8.650001e-01 -6.460126e-07
8.660001e-01 -7.578427e-07
8.670000e-01 -8.953526e-07
8.680000e-01 -1.051242e-06
8.690000e-01 -1.198572e-06
8.700001e-01 -1.311979e-06
8.710001e-01 -1.387444e-06
8.720000e-01 -1.443826e-06
8.730000e-01 -1.505211e-06
8.740000e-01 -1.579351e-06
8.750001e-01 -1.650405e-06
8.760000e-01 -1.691766e-06
8.770000e-01 -1.687746e-06
8.780000e-01 -1.645858e-06
8.790001e-01 -1.589789e-06
