-1.200000e-01 0.000000e+00
-1.190000e-01 0.000000e+00
-1.180000e-01 0.000000e+00
-1.170000e-01 0.000000e+00
-1.160000e-01 0.000000e+00
-1.150000e-01 0.000000e+00
-1.140000e-01 0.000000e+00
-1.130000e-01 0.000000e+00
-1.120000e-01 0.000000e+00
-1.110000e-01 0.000000e+00
-1.100000e-01 0.000000e+00
-1.090000e-01 0.000000e+00
-1.080000e-01 0.000000e+00
-1.070000e-01 0.000000e+00
-1.060000e-01 0.000000e+00
-1.050000e-01 0.000000e+00
-1.040000e-01 0.000000e+00
-1.030000e-01 0.000000e+00
-1.020000e-01 0.000000e+00
-1.010000e-01 0.000000e+00
-1.000000e-01 0.000000e+00
-9.900001e-02 0.000000e+00
-9.800000e-02 0.000000e+00
-9.700000e-02 5.605194e-45
-9.600000e-02 3.222986e-44
-9.500001e-02 2.242078e-44
-9.400000e-02 -8.043453e-43
-9.300000e-02 -6.381513e-42
-9.200001e-02 -2.593243e-41
-9.100001e-02 -5.112217e-41
-9.000000e-02 7.391289e-41
-8.900000e-02 9.662247e-40
-8.800000e-02 3.733489e-39
-8.700000e-02 7.353245e-39
-8.600000e-02 -1.308656e-39
-8.500001e-02 -6.383604e-38
-8.400001e-02 -2.379815e-37
-8.300000e-02 -4.509978e-37
-8.200000e-02 -9.608482e-38
-8.100000e-02 2.407591e-36
-8.000000e-02 8.783705e-36
-7.900000e-02 1.610698e-35
-7.800000e-02 6.700014e-36
-7.700001e-02 -5.862286e-35
-7.600001e-02 -2.141667e-34
-7.500000e-02 -3.861518e-34
-7.400000e-02 -2.186998e-34
-7.300000e-02 9.826209e-34
-7.200000e-02 3.726123e-33
-7.100000e-02 6.742328e-33
-7.000001e-02 4.758884e-33
-6.900001e-02 -1.160165e-32
-6.800000e-02 -4.849795e-32
-6.700000e-02 -9.023970e-32
-6.600000e-02 -7.681512e-32
-6.500000e-02 9.281686e-32
-6.400000e-02 4.845175e-31
-6.300000e-02 9.563628e-31
-6.200000e-02 9.689634e-31
-6.100000e-02 -3.758528e-31
-6.000000e-02 -3.725967e-30
-5.900000e-02 -8.173722e-30
-5.800000e-02 -9.845041e-30
-5.700000e-02 -2.000931e-30
-5.600000e-02 2.121869e-29
-5.500000e-02 5.656382e-29
-5.400001e-02 8.202327e-29
-5.300000e-02 5.436378e-29
-5.200000e-02 -7.407700e-29
-5.100000e-02 -3.115723e-28
-5.000000e-02 -5.650240e-28
-4.900000e-02 -5.967352e-28
-4.800000e-02 -6.553675e-29
-4.700000e-02 1.276334e-27
-4.600000e-02 3.211119e-27
-4.500000e-02 4.631582e-27
-4.400000e-02 3.416649e-27
-4.300000e-02 -2.838513e-27
-4.200000e-02 -1.477291e-26
-4.100000e-02 -2.817118e-26
-4.000000e-02 -3.166535e-26
-3.900000e-02 -8.795150e-27
-3.800000e-02 5.184276e-26
-3.700000e-02 1.384594e-25
-3.600000e-02 1.988819e-25
-3.500000e-02 1.435310e-25
-3.400000e-02 -1.101397e-25
-3.300000e-02 -5.488209e-25
-3.200000e-02 -9.697599e-25
-3.100000e-02 -9.702302e-25
-3.000000e-02 -1.171847e-25
-2.900000e-02 1.684933e-24
-2.800000e-02 3.784631e-24
-2.700000e-02 4.673746e-24
-2.600000e-02 2.543099e-24
-2.500000e-02 -3.431910e-24
-2.400000e-02 -1.161744e-23
-2.300000e-02 -1.738292e-23
-2.200000e-02 -1.462198e-23
-2.100000e-02 5.375961e-25
-2.000000e-02 2.545644e-23
-1.900000e-02 4.916889e-23
-1.800000e-02 5.567356e-23
-1.700000e-02 3.216122e-23
-1.600000e-02 -2.190771e-23
-1.500000e-02 -9.093436e-23
-1.400000e-02 -1.479259e-22
-1.300000e-02 -1.647320e-22
-1.200000e-02 -1.196271e-22
-1.100000e-02 2.706714e-24
-9.999998e-03 2.114154e-22
-8.999996e-03 4.915839e-22
-8.000001e-03 7.582631e-22
-6.999999e-03 8.093359e-22
-5.999997e-03 3.501514e-22
-5.000003e-03 -8.326092e-22
-4.000001e-03 -2.557634e-21
-2.999999e-03 -3.976546e-21
-1.999997e-03 -3.666505e-21
-1.000002e-03 -3.507666e-22
0.000000e+00 5.871068e-21
1.000002e-03 1.248467e-20
2.000004e-03 1.479144e-20
2.999999e-03 8.140187e-21
4.000001e-03 -8.361096e-21
4.999995e-03 -2.880278e-20
5.999997e-03 -4.102290e-20
6.999999e-03 -3.237054e-20
8.000001e-03 1.139994e-21
9.000003e-03 4.788452e-20
1.000001e-02 8.247511e-20
1.100001e-02 7.884691e-20
1.199999e-02 2.882906e-20
1.300000e-02 -4.661762e-20
1.400000e-02 -1.054199e-19
1.500000e-02 -1.117908e-19
1.600000e-02 -6.600346e-20
1.700000e-02 -1.034663e-20
1.800001e-02 3.754799e-21
1.900001e-02 -2.851702e-20
2.000000e-02 -3.380447e-20
2.100000e-02 9.880737e-20
2.200000e-02 4.034422e-19
2.300000e-02 7.228111e-19
2.400000e-02 7.135765e-19
2.500001e-02 4.925426e-20
2.600001e-02 -1.244647e-18
2.700000e-02 -2.554356e-18
2.800000e-02 -2.819745e-18
2.900000e-02 -1.155721e-18
3.000000e-02 2.311430e-18
3.100000e-02 5.985553e-18
3.200001e-02 7.297851e-18
3.300001e-02 4.223782e-18
3.400001e-02 -2.928250e-18
3.500000e-02 -1.076482e-17
3.600000e-02 -1.412696e-17
3.700000e-02 -9.276518e-18
3.800000e-02 2.837331e-18
3.900000e-02 1.577016e-17
4.000001e-02 2.074286e-17
4.100001e-02 1.262812e-17
4.200000e-02 -5.076490e-18
4.300000e-02 -2.064448e-17
4.400000e-02 -2.133584e-17
4.500000e-02 -3.718784e-18
4.600000e-02 2.053064e-17
4.700001e-02 2.988401e-17
4.800001e-02 8.761040e-18
4.900001e-02 -3.587172e-17
5.000000e-02 -7.126170e-17
5.100000e-02 -5.716229e-17
5.200000e-02 2.142965e-17
5.300000e-02 1.293290e-16
5.400001e-02 1.884991e-16
5.500001e-02 1.247368e-16
5.600001e-02 -6.920022e-17
5.700000e-02 -2.993365e-16
5.800000e-02 -4.040627e-16
5.900000e-02 -2.542619e-16
6.000000e-02 1.349362e-16
6.100000e-02 5.641758e-16
6.200001e-02 7.371870e-16
6.300001e-02 4.501378e-16
6.400001e-02 -2.291912e-16
6.500000e-02 -9.314836e-16
6.600000e-02 -1.171632e-15
6.700000e-02 -6.713108e-16
6.800000e-02 3.866317e-16
6.900001e-02 1.380792e-15
7.000001e-02 1.604328e-15
7.100001e-02 7.643726e-16
7.200000e-02 -7.143317e-16
7.300000e-02 -1.858619e-15
7.400000e-02 -1.770516e-15
7.500000e-02 -3.315834e-16
7.600001e-02 1.539644e-15
7.700001e-02 2.385864e-15
7.800001e-02 1.258103e-15
7.900001e-02 -1.379476e-15
8.000000e-02 -3.644416e-15
8.100000e-02 -3.376319e-15
8.200000e-02 1.694318e-16
8.300000e-02 5.262052e-15
8.400001e-02 8.284341e-15
8.500001e-02 5.980092e-15
8.600001e-02 -1.905394e-15
8.700001e-02 -1.149499e-14
8.800000e-02 -1.642059e-14
8.900000e-02 -1.174673e-14
9.000000e-02 2.119819e-15
9.100001e-02 1.836666e-14
9.200001e-02 2.697239e-14
9.300001e-02 2.082344e-14
9.400001e-02 1.054554e-15
9.500000e-02 -2.225179e-14
9.600000e-02 -3.530932e-14
9.700000e-02 -2.916682e-14
9.800000e-02 -6.152371e-15
9.900001e-02 2.052014e-14
1.000000e-01 3.460014e-14
1.010000e-01 2.753401e-14
1.020000e-01 4.841630e-15
1.030000e-01 -1.693655e-14
1.040000e-01 -2.162840e-14
1.050000e-01 -5.793765e-15
1.060000e-01 1.708392e-14
1.070000e-01 2.501162e-14
1.080000e-01 4.167712e-15
1.090000e-01 -3.750102e-14
1.100000e-01 -7.089038e-14
1.110000e-01 -6.313958e-14
1.120000e-01 -2.368887e-15
1.130000e-01 8.705128e-14
1.140000e-01 1.520260e-13
1.150000e-01 1.406749e-13
1.160000e-01 3.836448e-14
1.170000e-01 -1.138152e-13
1.180000e-01 -2.339948e-13
1.190000e-01 -2.438825e-13
1.200000e-01 -1.183154e-13
1.210000e-01 9.116502e-14
1.220000e-01 2.771961e-13
1.230000e-01 3.341209e-13
1.240000e-01 2.201978e-13
1.250000e-01 -1.344915e-14
1.260000e-01 -2.473018e-13
1.270000e-01 -3.594857e-13
1.280000e-01 -2.948924e-13
1.290000e-01 -9.528275e-14
1.300000e-01 1.285666e-13
1.310000e-01 2.652416e-13
1.320000e-01 2.677690e-13
1.330000e-01 1.731764e-13
1.340000e-01 6.437574e-14
1.350000e-01 1.987566e-15
1.360000e-01 -2.353330e-14
1.370000e-01 -8.068912e-14
1.380000e-01 -2.288960e-13
1.390000e-01 -4.404527e-13
1.400000e-01 -5.760428e-13
1.410000e-01 -4.498947e-13
1.420000e-01 3.857125e-14
1.430000e-01 7.849090e-13
1.440000e-01 1.461910e-12
1.450000e-01 1.646820e-12
1.460000e-01 1.050186e-12
1.470000e-01 -2.725566e-13
1.480000e-01 -1.860059e-12
1.490000e-01 -3.002012e-12
1.500000e-01 -3.063687e-12
1.510000e-01 -1.822534e-12
1.520000e-01 3.660995e-13
1.530000e-01 2.681524e-12
1.540000e-01 4.191605e-12
1.550000e-01 4.276747e-12
1.560000e-01 2.907440e-12
1.570000e-01 6.337955e-13
1.580000e-01 -1.698366e-12
1.590000e-01 -3.342689e-12
1.600000e-01 -3.944884e-12
1.610000e-01 -3.593714e-12
1.620000e-01 -2.644876e-12
1.630000e-01 -1.466207e-12
1.640000e-01 -2.804504e-13
1.650000e-01 8.129220e-13
1.660000e-01 1.705169e-12
1.670000e-01 2.198256e-12
1.680000e-01 2.103687e-12
1.690000e-01 1.491891e-12
1.700000e-01 8.969248e-13
1.710000e-01 1.234163e-12
1.720000e-01 3.327822e-12
1.730000e-01 7.213152e-12
1.740000e-01 1.161220e-11
1.750000e-01 1.400934e-11
1.760000e-01 1.150497e-11
1.770000e-01 2.202761e-12
1.780000e-01 -1.348417e-11
1.790000e-01 -3.230696e-11
1.800000e-01 -4.884013e-11
1.810000e-01 -5.717975e-11
1.820000e-01 -5.300517e-11
1.830000e-01 -3.511492e-11
1.840000e-01 -5.780671e-12
1.850000e-01 3.016427e-11
1.860000e-01 6.697647e-11
1.870000e-01 9.954853e-11
1.880000e-01 1.241426e-10
1.890000e-01 1.381134e-10
1.900000e-01 1.390120e-10
1.910000e-01 1.238062e-10
1.920000e-01 8.887218e-11
1.930000e-01 3.098123e-11
1.940000e-01 -5.101131e-11
1.950000e-01 -1.543838e-10
1.960000e-01 -2.712515e-10
1.970000e-01 -3.880573e-10
1.980000e-01 -4.858710e-10
1.990000e-01 -5.414552e-10
2.000000e-01 -5.292312e-10
2.010000e-01 -4.244823e-10
2.020000e-01 -2.080597e-10
2.030000e-01 1.276766e-10
2.040000e-01 5.727847e-10
2.050000e-01 1.095343e-09
2.060000e-01 1.640570e-09
2.070000e-01 2.134392e-09
2.080000e-01 2.490762e-09
2.090000e-01 2.620369e-09
2.100000e-01 2.437536e-09
2.110000e-01 1.862567e-09
2.120000e-01 8.185518e-10
2.130000e-01 -7.762421e-10
2.140000e-01 -3.017639e-09
2.150000e-01 -6.023595e-09
2.160000e-01 -9.939331e-09
2.170000e-01 -1.493995e-08
2.180000e-01 -2.123263e-08
2.190000e-01 -2.906111e-08
2.200000e-01 -3.871441e-08
2.210000e-01 -5.054037e-08
2.220000e-01 -6.496268e-08
2.230000e-01 -8.250018e-08
2.240000e-01 -1.037869e-07
2.250000e-01 -1.295927e-07
2.260000e-01 -1.608460e-07
2.270000e-01 -1.986574e-07
2.280000e-01 -2.443483e-07
2.290000e-01 -2.994808e-07
2.300000e-01 -3.658930e-07
2.310000e-01 -4.457381e-07
2.320000e-01 -5.415308e-07
2.330000e-01 -6.562028e-07
2.340000e-01 -7.931690e-07
2.350000e-01 -9.564030e-07
2.360000e-01 -1.150520e-06
2.370000e-01 -1.380863e-06
2.380000e-01 -1.653587e-06
2.390000e-01 -1.975751e-06
2.400000e-01 -2.355405e-06
2.410000e-01 -2.801694e-06
2.420000e-01 -3.324981e-06
2.430000e-01 -3.936987e-06
2.440000e-01 -4.650951e-06
2.450000e-01 -5.481802e-06
2.460000e-01 -6.446333e-06
2.470000e-01 -7.563375e-06
2.480000e-01 -8.853951e-06
2.490000e-01 -1.034143e-05
2.500000e-01 -1.205168e-05
2.510000e-01 -1.401320e-05
2.520000e-01 -1.625727e-05
2.530000e-01 -1.881807e-05
2.540000e-01 -2.173289e-05
2.550000e-01 -2.504212e-05
2.560000e-01 -2.878944e-05
2.570000e-01 -3.302186e-05
2.580000e-01 -3.778970e-05
2.590000e-01 -4.314661e-05
2.600000e-01 -4.914945e-05
2.610000e-01 -5.585818e-05
2.620000e-01 -6.333560e-05
2.630000e-01 -7.164710e-05
2.640000e-01 -8.086026e-05
2.650000e-01 -9.104438e-05
2.660000e-01 -1.022700e-04
2.670000e-01 -1.146083e-04
2.680000e-01 -1.281303e-04
2.690000e-01 -1.429063e-04
2.700000e-01 -1.590043e-04
2.710000e-01 -1.764899e-04
2.720000e-01 -1.954241e-04
2.730000e-01 -2.158628e-04
2.740000e-01 -2.378550e-04
2.750000e-01 -2.614416e-04
2.760000e-01 -2.866535e-04
2.770000e-01 -3.135108e-04
2.780000e-01 -3.420203e-04
2.790000e-01 -3.721747e-04
2.800000e-01 -4.039504e-04
2.810000e-01 -4.373062e-04
2.820000e-01 -4.721814e-04
2.830000e-01 -5.084946e-04
2.840000e-01 -5.461423e-04
2.850000e-01 -5.849979e-04
2.860000e-01 -6.249099e-04
2.870000e-01 -6.657020e-04
2.880000e-01 -7.071719e-04
2.890000e-01 -7.490916e-04
2.900000e-01 -7.912070e-04
2.910000e-01 -8.332389e-04
2.920000e-01 -8.748832e-04
2.930000e-01 -9.158126e-04
2.940000e-01 -9.556781e-04
2.950000e-01 -9.941107e-04
2.960000e-01 -1.030724e-03
2.970000e-01 -1.065119e-03
2.980000e-01 -1.096884e-03
2.990000e-01 -1.125601e-03
3.000000e-01 -1.150848e-03
3.010000e-01 -1.172205e-03
3.020000e-01 -1.189260e-03
3.030000e-01 -1.201611e-03
3.040000e-01 -1.208873e-03
3.050000e-01 -1.210683e-03
3.060000e-01 -1.206705e-03
3.070000e-01 -1.196635e-03
3.080000e-01 -1.180210e-03
3.090000e-01 -1.157208e-03
3.100000e-01 -1.127454e-03
3.110000e-01 -1.090828e-03
3.120000e-01 -1.047266e-03
3.130000e-01 -9.967611e-04
3.140000e-01 -9.393715e-04
3.150000e-01 -8.752185e-04
3.160000e-01 -8.044895e-04
3.170000e-01 -7.274377e-04
3.180000e-01 -6.443828e-04
3.190000e-01 -5.557089e-04
3.200000e-01 -4.618631e-04
3.210000e-01 -3.633517e-04
3.220000e-01 -2.607369e-04
3.230000e-01 -1.546320e-04
3.240000e-01 -4.569582e-05
3.250000e-01 6.537296e-05
3.260000e-01 1.778429e-04
3.270000e-01 2.909571e-04
3.280000e-01 4.039417e-04
3.290000e-01 5.160136e-04
3.300000e-01 6.263892e-04
3.310000e-01 7.342929e-04
3.320000e-01 8.389650e-04
3.330000e-01 9.396704e-04
3.340000e-01 1.035707e-03
3.350000e-01 1.126411e-03
3.360000e-01 1.211171e-03
3.370000e-01 1.289424e-03
3.380000e-01 1.360672e-03
3.390000e-01 1.424479e-03
3.400000e-01 1.480480e-03
3.410000e-01 1.528381e-03
3.420000e-01 1.567966e-03
3.430000e-01 1.599093e-03
3.440000e-01 1.621698e-03
3.450000e-01 1.635793e-03
3.460000e-01 1.641465e-03
3.470000e-01 1.638873e-03
3.480000e-01 1.628243e-03
3.490000e-01 1.609869e-03
3.500000e-01 1.584101e-03
3.510000e-01 1.551347e-03
3.520000e-01 1.512060e-03
3.530000e-01 1.466738e-03
3.540000e-01 1.415910e-03
3.550000e-01 1.360138e-03
3.560000e-01 1.300002e-03
3.570000e-01 1.236098e-03
3.580000e-01 1.169027e-03
3.590000e-01 1.099393e-03
3.600000e-01 1.027793e-03
3.610000e-01 9.548129e-04
3.620000e-01 8.810202e-04
3.630000e-01 8.069605e-04
3.640000e-01 7.331520e-04
3.650000e-01 6.600816e-04
3.660000e-01 5.882015e-04
3.670000e-01 5.179259e-04
3.680000e-01 4.496303e-04
3.690000e-01 3.836487e-04
3.700000e-01 3.202739e-04
3.710000e-01 2.597563e-04
3.720000e-01 2.023047e-04
3.730000e-01 1.480866e-04
3.740000e-01 9.722991e-05
3.750000e-01 4.982435e-05
3.760000e-01 5.923455e-06
3.770000e-01 -3.445351e-05
3.780000e-01 -7.131926e-05
3.790000e-01 -1.047158e-04
3.800000e-01 -1.347116e-04
3.810000e-01 -1.613983e-04
3.820000e-01 -1.848873e-04
3.830000e-01 -2.053076e-04
3.840000e-01 -2.228022e-04
3.850000e-01 -2.375264e-04
3.860000e-01 -2.496447e-04
3.870000e-01 -2.593280e-04
3.880000e-01 -2.667511e-04
3.890000e-01 -2.720903e-04
3.900000e-01 -2.755215e-04
3.910000e-01 -2.772186e-04
3.920000e-01 -2.773524e-04
3.930000e-01 -2.760893e-04
3.940000e-01 -2.735898e-04
3.950000e-01 -2.700072e-04
3.960000e-01 -2.654864e-04
3.970000e-01 -2.601639e-04
3.980000e-01 -2.541670e-04
3.990000e-01 -2.476141e-04
4.000000e-01 -2.406149e-04
4.010000e-01 -2.332697e-04
4.020000e-01 -2.256696e-04
4.030000e-01 -2.178969e-04
4.040000e-01 -2.100250e-04
4.050000e-01 -2.021186e-04
4.060000e-01 -1.942348e-04
4.070000e-01 -1.864230e-04
4.080000e-01 -1.787254e-04
4.090000e-01 -1.711780e-04
4.100000e-01 -1.638107e-04
4.110000e-01 -1.566480e-04
4.120000e-01 -1.497095e-04
4.130000e-01 -1.430105e-04
4.140000e-01 -1.365621e-04
4.150000e-01 -1.303716e-04
4.160000e-01 -1.244435e-04
4.170000e-01 -1.187791e-04
4.180000e-01 -1.133777e-04
4.190000e-01 -1.082364e-04
4.200000e-01 -1.033504e-04
4.210000e-01 -9.871333e-05
4.220001e-01 -9.431779e-05
4.230000e-01 -9.015549e-05
4.240000e-01 -8.621773e-05
4.250000e-01 -8.249547e-05
4.260000e-01 -7.897931e-05
4.270000e-01 -7.565942e-05
4.280000e-01 -7.252554e-05
4.290000e-01 -6.956731e-05
4.300000e-01 -6.677440e-05
4.310000e-01 -6.413685e-05
4.320000e-01 -6.164504e-05
4.330000e-01 -5.928976e-05
4.340000e-01 -5.706210e-05
4.350000e-01 -5.495357e-05
4.360000e-01 -5.295618e-05
4.370000e-01 -5.106255e-05
4.380000e-01 -4.926577e-05
4.390000e-01 -4.755929e-05
4.400000e-01 -4.593671e-05
4.410000e-01 -4.439181e-05
4.420000e-01 -4.291876e-05
4.430000e-01 -4.151232e-05
4.440000e-01 -4.016791e-05
4.450000e-01 -3.888154e-05
4.460000e-01 -3.764950e-05
4.470000e-01 -3.646818e-05
4.480000e-01 -3.533409e-05
4.490000e-01 -3.424406e-05
4.500000e-01 -3.319540e-05
4.510000e-01 -3.218599e-05
4.520000e-01 -3.121410e-05
4.530000e-01 -3.027815e-05
4.540000e-01 -2.937654e-05
4.550000e-01 -2.850770e-05
4.560000e-01 -2.767023e-05
4.570000e-01 -2.686303e-05
4.580000e-01 -2.608524e-05
4.590001e-01 -2.533607e-05
4.600000e-01 -2.461456e-05
4.610000e-01 -2.391957e-05
4.620000e-01 -2.324974e-05
4.630000e-01 -2.260372e-05
4.640000e-01 -2.198018e-05
4.650000e-01 -2.137770e-05
4.660000e-01 -2.079466e-05
4.670000e-01 -2.022918e-05
4.680000e-01 -1.967915e-05
4.690000e-01 -1.914229e-05
4.700000e-01 -1.861623e-05
4.710000e-01 -1.809831e-05
4.720000e-01 -1.758538e-05
4.730000e-01 -1.707361e-05
4.740000e-01 -1.655847e-05
4.750000e-01 -1.603485e-05
4.760000e-01 -1.549713e-05
4.770000e-01 -1.493909e-05
4.780000e-01 -1.435366e-05
4.790000e-01 -1.373260e-05
4.800000e-01 -1.306625e-05
4.810000e-01 -1.234360e-05
4.820001e-01 -1.155231e-05
4.830000e-01 -1.067863e-05
4.840000e-01 -9.707175e-06
4.850000e-01 -8.620438e-06
4.860000e-01 -7.398323e-06
4.870000e-01 -6.017900e-06
4.880000e-01 -4.453342e-06
4.890000e-01 -2.675870e-06
4.900000e-01 -6.534844e-07
4.910000e-01 1.649545e-06
4.920000e-01 4.273362e-06
4.930000e-01 7.263074e-06
4.940000e-01 1.066913e-05
4.950000e-01 1.454750e-05
4.960001e-01 1.895995e-05
4.970000e-01 2.397431e-05
4.980000e-01 2.966503e-05
4.990000e-01 3.611369e-05
5.000000e-01 4.340932e-05
5.010000e-01 5.164860e-05
5.020000e-01 6.093573e-05
5.030000e-01 7.138245e-05
5.040000e-01 8.310798e-05
5.050000e-01 9.623906e-05
5.060000e-01 1.109098e-04
5.070000e-01 1.272611e-04
5.080000e-01 1.454404e-04
5.090000e-01 1.656001e-04
5.100001e-01 1.878978e-04
5.110000e-01 2.124941e-04
5.120000e-01 2.395515e-04
5.130000e-01 2.692323e-04
5.140000e-01 3.016958e-04
5.150000e-01 3.370970e-04
5.160000e-01 3.755841e-04
5.170000e-01 4.172964e-04
5.180000e-01 4.623617e-04
5.190001e-01 5.108926e-04
5.200000e-01 5.629827e-04
5.210000e-01 6.187028e-04
5.220000e-01 6.780975e-04
5.230000e-01 7.411810e-04
5.240000e-01 8.079342e-04
5.250000e-01 8.783005e-04
5.260000e-01 9.521818e-04
5.270000e-01 1.029436e-03
5.280000e-01 1.109873e-03
5.290000e-01 1.193253e-03
5.300000e-01 1.279282e-03
5.310000e-01 1.367611e-03
5.320000e-01 1.457832e-03
5.330001e-01 1.549481e-03
5.340000e-01 1.642033e-03
5.350000e-01 1.734904e-03
5.360000e-01 1.827455e-03
5.370000e-01 1.918989e-03
5.380000e-01 2.008760e-03
5.390000e-01 2.095973e-03
5.400000e-01 2.179792e-03
5.410000e-01 2.259344e-03
5.420001e-01 2.333724e-03
5.430000e-01 2.402006e-03
5.440000e-01 2.463249e-03
5.450000e-01 2.516509e-03
5.460000e-01 2.560846e-03
5.470001e-01 2.595340e-03
5.480000e-01 2.619098e-03
5.490000e-01 2.631270e-03
5.500000e-01 2.631056e-03
5.510000e-01 2.617721e-03
5.520000e-01 2.590605e-03
5.530000e-01 2.549138e-03
5.540000e-01 2.492849e-03
5.550000e-01 2.421374e-03
5.560001e-01 2.334467e-03
5.570000e-01 2.232011e-03
5.580000e-01 2.114020e-03
5.590000e-01 1.980653e-03
5.600000e-01 1.832212e-03
5.610000e-01 1.669149e-03
5.620000e-01 1.492064e-03
5.630000e-01 1.301697e-03
5.640000e-01 1.098936e-03
5.650001e-01 8.848018e-04
5.660000e-01 6.604504e-04
5.670000e-01 4.271613e-04
5.680000e-01 1.863286e-04
5.690000e-01 -6.055356e-05
5.700001e-01 -3.119051e-04
5.710000e-01 -5.660751e-04
5.720000e-01 -8.213575e-04
5.730000e-01 -1.076007e-03
5.740000e-01 -1.328260e-03
5.750000e-01 -1.576349e-03
5.760000e-01 -1.818530e-03
5.770000e-01 -2.053099e-03
5.780000e-01 -2.278406e-03
5.790001e-01 -2.492876e-03
5.800000e-01 -2.695018e-03
5.810000e-01 -2.883449e-03
5.820000e-01 -3.056911e-03
5.830000e-01 -3.214281e-03
5.840001e-01 -3.354586e-03
5.850000e-01 -3.477007e-03
5.860000e-01 -3.580891e-03
5.870000e-01 -3.665749e-03
5.880000e-01 -3.731265e-03
5.890000e-01 -3.777303e-03
5.900000e-01 -3.803900e-03
5.910000e-01 -3.811265e-03
5.920000e-01 -3.799770e-03
5.930001e-01 -3.769939e-03
5.940000e-01 -3.722442e-03
5.950000e-01 -3.658086e-03
5.960000e-01 -3.577809e-03
5.970000e-01 -3.482660e-03
5.980000e-01 -3.373786e-03
5.990000e-01 -3.252414e-03
6.000000e-01 -3.119833e-03
6.010000e-01 -2.977383e-03
6.020001e-01 -2.826438e-03
6.030000e-01 -2.668392e-03
6.040000e-01 -2.504641e-03
6.050000e-01 -2.336567e-03
6.060000e-01 -2.165518e-03
6.070001e-01 -1.992803e-03
6.080000e-01 -1.819679e-03
6.090000e-01 -1.647345e-03
6.100000e-01 -1.476927e-03
6.110000e-01 -1.309472e-03
6.120000e-01 -1.145934e-03
6.130000e-01 -9.871722e-04
6.140000e-01 -8.339516e-04
6.150000e-01 -6.869419e-04
6.160001e-01 -5.467166e-04
6.170000e-01 -4.137509e-04
6.180000e-01 -2.884199e-04
6.190000e-01 -1.710021e-04
6.200000e-01 -6.168632e-05
6.210001e-01 3.941951e-05
6.220000e-01 1.322819e-04
6.230000e-01 2.169386e-04
6.240000e-01 2.934966e-04
6.250001e-01 3.621286e-04
6.260000e-01 4.230647e-04
6.270000e-01 4.765809e-04
6.280000e-01 5.229879e-04
6.290000e-01 5.626226e-04
6.300001e-01 5.958457e-04
6.310000e-01 6.230398e-04
6.320000e-01 6.446058e-04
6.330000e-01 6.609560e-04
6.340000e-01 6.725047e-04
6.350001e-01 6.796604e-04
6.360000e-01 6.828222e-04
6.370000e-01 6.823795e-04
6.380000e-01 6.787135e-04
6.390001e-01 6.721955e-04
6.400000e-01 6.631812e-04
6.410000e-01 6.520050e-04
6.420000e-01 6.389768e-04
6.430000e-01 6.243833e-04
6.440001e-01 6.084920e-04
6.450000e-01 5.915541e-04
6.460000e-01 5.738045e-04
6.470000e-01 5.554586e-04
6.480000e-01 5.367089e-04
6.490000e-01 5.177244e-04
6.500000e-01 4.986533e-04
6.510000e-01 4.796271e-04
6.520000e-01 4.607633e-04
6.530001e-01 4.421661e-04
6.540000e-01 4.239240e-04
6.550000e-01 4.061100e-04
6.560000e-01 3.887817e-04
6.570000e-01 3.719850e-04
6.580001e-01 3.557574e-04
6.590000e-01 3.401292e-04
6.600000e-01 3.251230e-04
6.610000e-01 3.107523e-04
6.620001e-01 2.970210e-04
6.630000e-01 2.839247e-04
6.640000e-01 2.714545e-04
6.650000e-01 2.595975e-04
6.660000e-01 2.483391e-04
6.670001e-01 2.376615e-04
6.680000e-01 2.275440e-04
6.690000e-01 2.179630e-04
6.700000e-01 2.088934e-04
6.710000e-01 2.003102e-04
6.720001e-01 1.921886e-04
6.730000e-01 1.845044e-04
6.740000e-01 1.772331e-04
6.750000e-01 1.703508e-04
6.760001e-01 1.638336e-04
6.770000e-01 1.576591e-04
6.780000e-01 1.518061e-04
6.790000e-01 1.462543e-04
6.800000e-01 1.409843e-04
6.810001e-01 1.359779e-04
6.820000e-01 1.312181e-04
6.830000e-01 1.266902e-04
6.840000e-01 1.223804e-04
6.850001e-01 1.182766e-04
6.860000e-01 1.143668e-04
6.870000e-01 1.106398e-04
6.880000e-01 1.070855e-04
6.890000e-01 1.036950e-04
6.900001e-01 1.004602e-04
6.910000e-01 9.737226e-05
6.920000e-01 9.442181e-05
6.930000e-01 9.159873e-05
6.940000e-01 8.889363e-05
6.950001e-01 8.629931e-05
6.960000e-01 8.381095e-05
6.970000e-01 8.142498e-05
6.980000e-01 7.913714e-05
6.990001e-01 7.694154e-05
7.000000e-01 7.483117e-05
7.010000e-01 7.279949e-05
7.020000e-01 7.084172e-05
7.030000e-01 6.895483e-05
7.040001e-01 6.713615e-05
7.050000e-01 6.538201e-05
7.060000e-01 6.368772e-05
7.070000e-01 6.204895e-05
7.080001e-01 6.046352e-05
7.090001e-01 5.893187e-05
7.100000e-01 5.745579e-05
7.110000e-01 5.603618e-05
7.120000e-01 5.467154e-05
7.130001e-01 5.335820e-05
7.140000e-01 5.209229e-05
7.150000e-01 5.087159e-05
7.160000e-01 4.969594e-05
7.170000e-01 4.856599e-05
7.180001e-01 4.748153e-05
7.190000e-01 4.644077e-05
7.200000e-01 4.544115e-05
7.210000e-01 4.448072e-05
7.220001e-01 4.355880e-05
7.230000e-01 4.267503e-05
7.240000e-01 4.182780e-05
7.250000e-01 4.101334e-05
7.260000e-01 4.022638e-05
7.270001e-01 3.946215e-05
7.280000e-01 3.871793e-05
7.290000e-01 3.799313e-05
7.300000e-01 3.728768e-05
7.310000e-01 3.660027e-05
7.320001e-01 3.592787e-05
7.330000e-01 3.526687e-05
7.340000e-01 3.461483e-05
7.350000e-01 3.397133e-05
7.360001e-01 3.333705e-05
7.370000e-01 3.271204e-05
7.380000e-01 3.209473e-05
7.390000e-01 3.148270e-05
7.400000e-01 3.087458e-05
7.410001e-01 3.027157e-05
7.420000e-01 2.967702e-05
7.430000e-01 2.909429e-05
7.440000e-01 2.852433e-05
7.450001e-01 2.796508e-05
7.460001e-01 2.741309e-05
7.470000e-01 2.686630e-05
7.480000e-01 2.632586e-05
7.490000e-01 2.579568e-05
7.500001e-01 2.527991e-05
7.510000e-01 2.478048e-05
7.520000e-01 2.429638e-05
7.530000e-01 2.382499e-05
7.540000e-01 2.336443e-05
7.550001e-01 2.291486e-05
7.560000e-01 2.247807e-05
7.570000e-01 2.205570e-05
7.580000e-01 2.164785e-05
7.590001e-01 2.125313e-05
7.600001e-01 2.086997e-05
7.610000e-01 2.049810e-05
7.620000e-01 2.013880e-05
7.630000e-01 1.979382e-05
7.640001e-01 1.946387e-05
7.650000e-01 1.914796e-05
7.660000e-01 1.884410e-05
7.670000e-01 1.855077e-05
7.680001e-01 1.826798e-05
7.690001e-01 1.799706e-05
7.700000e-01 1.773950e-05
7.710000e-01 1.749571e-05
7.720000e-01 1.726479e-05
7.730001e-01 1.704517e-05
7.740000e-01 1.683552e-05
7.750000e-01 1.663498e-05
7.760000e-01 1.644258e-05
7.770000e-01 1.625657e-05
7.780001e-01 1.607440e-05
7.790000e-01 1.589360e-05
7.800000e-01 1.571300e-05
7.810000e-01 1.553307e-05
7.820001e-01 1.535504e-05
7.830001e-01 1.517919e-05
7.840000e-01 1.500359e-05
7.850000e-01 1.482436e-05
7.860000e-01 1.463722e-05
7.870001e-01 1.443943e-05
7.880000e-01 1.423054e-05
7.890000e-01 1.401169e-05
7.900000e-01 1.378404e-05
7.910001e-01 1.354779e-05
7.920001e-01 1.330245e-05
7.930000e-01 1.304828e-05
7.940000e-01 1.278729e-05
7.950000e-01 1.252299e-05
7.960001e-01 1.225875e-05
7.970001e-01 1.199602e-05
7.980000e-01 1.173396e-05
7.990000e-01 1.147096e-05
8.000000e-01 1.120697e-05
8.010001e-01 1.094504e-05
8.020000e-01 1.069068e-05
8.030000e-01 1.044954e-05
8.040000e-01 1.022497e-05
8.050001e-01 1.001737e-05
8.060001e-01 9.825553e-06
8.070000e-01 9.649099e-06
8.080000e-01 9.489663e-06
8.090000e-01 9.350222e-06
8.100001e-01 9.232895e-06
8.110000e-01 9.137155e-06
8.120000e-01 9.059949e-06
8.130000e-01 8.997641e-06
8.140000e-01 8.948175e-06
8.150001e-01 8.911624e-06
8.160000e-01 8.888625e-06
8.170000e-01 8.877975e-06
8.180000e-01 8.875454e-06
8.190001e-01 8.875023e-06
8.200001e-01 8.871552e-06
8.210000e-01 8.862947e-06
8.220000e-01 8.849930e-06
8.230000e-01 8.833571e-06
8.240001e-01 8.812548e-06
8.250000e-01 8.782337e-06
8.260000e-01 8.737034e-06
8.270000e-01 8.672388e-06
8.280001e-01 8.587665e-06
8.290001e-01 8.484926e-06
8.300000e-01 8.366465e-06
8.310000e-01 8.232684e-06
8.320000e-01 8.082242e-06
8.330001e-01 7.914353e-06
8.340001e-01 7.731170e-06
8.350000e-01 7.538029e-06
8.360000e-01 7.341051e-06
8.370000e-01 7.143902e-06
8.380001e-01 6.946333e-06
8.390000e-01 6.745809e-06
8.400000e-01 6.541095e-06
8.410000e-01 6.334979e-06
8.420001e-01 6.134031e-06
8.430001e-01 5.945563e-06
8.440000e-01 5.774185e-06
8.450000e-01 5.620594e-06
8.460000e-01 5.483339e-06
8.470001e-01 5.361914e-06
8.480000e-01 5.258498e-06
8.490000e-01 5.176937e-06
8.500000e-01 5.119892e-06
8.510001e-01 5.086637e-06
8.520001e-01 5.073344e-06
8.530000e-01 5.075603e-06
8.540000e-01 5.091043e-06
8.550000e-01 5.119928e-06
8.560001e-01 5.163362e-06
8.570001e-01 5.220775e-06
8.580000e-01 5.288833e-06
8.590000e-01 5.362641e-06
8.600000e-01 5.438035e-06
8.610001e-01 5.512945e-06
8.620000e-01 5.586703e-06
8.630000e-01 5.658096e-06
8.640000e-01 5.724053e-06
8.650001e-01 5.780239e-06
8.660001e-01 5.823024e-06
8.670000e-01 5.850971e-06
8.680000e-01 5.864401e-06
8.690000e-01 5.863394e-06
8.700001e-01 5.846092e-06
8.710001e-01 5.809071e-06
8.720000e-01 5.749704e-06
8.730000e-01 5.668565e-06
8.740000e-01 5.569660e-06
8.750001e-01 5.458014e-06
8.760000e-01 5.336437e-06
8.770000e-01 5.204165e-06
8.780000e-01 5.058621e-06
8.790001e-01 4.898933e-06
