-1.200000e-01 0.000000e+00
-1.190000e-01 0.000000e+00
-1.180000e-01 0.000000e+00
-1.170000e-01 0.000000e+00
-1.160000e-01 0.000000e+00
-1.150000e-01 0.000000e+00
-1.140000e-01 0.000000e+00
-1.130000e-01 0.000000e+00
-1.120000e-01 0.000000e+00
-1.110000e-01 0.000000e+00
-1.100000e-01 0.000000e+00
-1.090000e-01 0.000000e+00
-1.080000e-01 0.000000e+00
-1.070000e-01 0.000000e+00
-1.060000e-01 0.000000e+00
-1.050000e-01 0.000000e+00
-1.040000e-01 0.000000e+00
-1.030000e-01 0.000000e+00
-1.020000e-01 0.000000e+00
-1.010000e-01 0.000000e+00
-1.000000e-01 0.000000e+00
-9.900001e-02 0.000000e+00
-9.800000e-02 0.000000e+00
-9.700000e-02 0.000000e+00
-9.600000e-02 0.000000e+00
-9.500001e-02 -2.802597e-45
-9.400000e-02 -1.541428e-44
-9.300000e-02 -5.605194e-45
-9.200001e-02 1.541428e-43
-9.100001e-02 3.671402e-43
-9.000000e-02 -1.018744e-42
-8.900000e-02 -6.874770e-42
-8.800000e-02 -7.495545e-42
-8.700000e-02 4.830556e-41
-8.600000e-02 2.030860e-40
-8.500001e-02 1.413854e-40
-8.400001e-02 -1.257262e-39
-8.300000e-02 -4.482485e-39
-8.200000e-02 -2.975408e-39
-8.100000e-02 2.276078e-38
-8.000000e-02 7.956208e-38
-7.900000e-02 6.688970e-38
-7.800000e-02 -3.002060e-37
-7.700001e-02 -1.156927e-36
-7.600001e-02 -1.311234e-36
-7.500000e-02 2.793022e-36
-7.400000e-02 1.373015e-35
-7.300000e-02 2.055022e-35
-7.200000e-02 -1.453106e-35
-7.100000e-02 -1.307862e-34
-7.000001e-02 -2.545220e-34
-6.900001e-02 -4.800074e-35
-6.800000e-02 9.622354e-34
-6.700000e-02 2.500298e-33
-6.600000e-02 2.077716e-33
-6.500000e-02 -4.886921e-33
-6.400000e-02 -1.940253e-32
-6.300000e-02 -2.696561e-32
-6.200000e-02 8.377172e-33
-6.100000e-02 1.155666e-31
-6.000000e-02 2.350822e-31
-5.900000e-02 1.388550e-31
-5.800000e-02 -4.751507e-31
-5.700000e-02 -1.525428e-30
-5.600000e-02 -1.875497e-30
-5.500000e-02 6.685458e-31
-5.400001e-02 7.323910e-30
-5.300000e-02 1.406909e-29
-5.200000e-02 8.743554e-30
-5.100000e-02 -2.263919e-29
-5.000000e-02 -7.457715e-29
-4.900000e-02 -9.590720e-29
-4.800000e-02 4.929412e-30
-4.700000e-02 2.777491e-28
-4.600000e-02 5.775039e-28
-4.500000e-02 4.714590e-28
-4.400000e-02 -5.476624e-28
-4.300000e-02 -2.392336e-27
-4.200000e-02 -3.579882e-27
-4.100000e-02 -1.317072e-27
-4.000000e-02 6.339228e-27
-3.900000e-02 1.639482e-26
-3.800000e-02 1.807034e-26
-3.700000e-02 -3.004395e-27
-3.600000e-02 -4.976831e-26
-3.500000e-02 -9.409979e-26
-3.400000e-02 -7.331609e-26
-3.300000e-02 7.153405e-26
-3.200000e-02 3.132495e-25
-3.100000e-02 4.648929e-25
-3.000000e-02 2.212083e-25
-2.900000e-02 -5.992480e-25
-2.800000e-02 -1.679331e-24
-2.700000e-02 -2.008992e-24
-2.600000e-02 -3.169377e-25
-2.500000e-02 3.694748e-24
-2.400000e-02 7.912944e-24
-2.300000e-02 7.662170e-24
-2.200000e-02 -1.613446e-24
-2.100000e-02 -1.898861e-23
-2.000000e-02 -3.342392e-23
-1.900000e-02 -2.586506e-23
-1.800000e-02 1.760170e-23
-1.700000e-02 8.538561e-23
-1.600000e-02 1.283294e-22
-1.500000e-02 7.692951e-23
-1.400000e-02 -1.035861e-22
-1.300000e-02 -3.446436e-22
-1.200000e-02 -4.526220e-22
-1.100000e-02 -1.981523e-22
-9.999998e-03 4.800441e-22
-8.999996e-03 1.268701e-21
-8.000001e-03 1.478996e-21
-6.999999e-03 4.212647e-22
-5.999997e-03 -1.914914e-21
-5.000003e-03 -4.306085e-21
-4.000001e-03 -4.508869e-21
-2.999999e-03 -6.259742e-22
-1.999997e-03 6.822662e-21
-1.000002e-03 1.358196e-20
0.000000e+00 1.289984e-20
1.000002e-03 -5.899316e-24
2.000004e-03 -2.214170e-20
2.999999e-03 -4.004410e-20
4.000001e-03 -3.480180e-20
4.999995e-03 4.605451e-21
5.999997e-03 6.624085e-20
6.999999e-03 1.108404e-19
8.000001e-03 8.886072e-20
9.000003e-03 -2.273578e-20
1.000001e-02 -1.841596e-19
1.100001e-02 -2.889481e-19
1.199999e-02 -2.152405e-19
1.300000e-02 7.981362e-20
1.400000e-02 4.785822e-19
1.500000e-02 7.110085e-19
1.600000e-02 4.949650e-19
1.700000e-02 -2.370394e-19
1.800001e-02 -1.167960e-18
1.900001e-02 -1.653960e-18
2.000000e-02 -1.079424e-18
2.100000e-02 6.316781e-19
2.200000e-02 2.687819e-18
2.300000e-02 3.641090e-18
2.400000e-02 2.225324e-18
2.500001e-02 -1.557537e-18
2.600001e-02 -5.857208e-18
2.700000e-02 -7.592772e-18
2.800000e-02 -4.312677e-18
2.900000e-02 3.627335e-18
3.000000e-02 1.214405e-17
3.100000e-02 1.501682e-17
3.200001e-02 7.790124e-18
3.300001e-02 -8.101341e-18
3.400001e-02 -2.409244e-17
3.500000e-02 -2.822978e-17
3.600000e-02 -1.295050e-17
3.700000e-02 1.753166e-17
3.800000e-02 4.603687e-17
3.900000e-02 5.063238e-17
4.000001e-02 1.942665e-17
4.100001e-02 -3.692780e-17
4.200000e-02 -8.531430e-17
4.300000e-02 -8.715948e-17
4.400000e-02 -2.538407e-17
4.500000e-02 7.560055e-17
4.600000e-02 1.542077e-16
4.700001e-02 1.451492e-16
4.800001e-02 2.662027e-17
4.900001e-02 -1.495398e-16
5.000000e-02 -2.725888e-16
5.100000e-02 -2.357919e-16
5.200000e-02 -1.600883e-17
5.300000e-02 2.836033e-16
5.400001e-02 4.704109e-16
5.500001e-02 3.755346e-16
5.600001e-02 -1.665561e-17
5.700000e-02 -5.124395e-16
5.800000e-02 -7.879805e-16
5.900000e-02 -5.849342e-16
6.000000e-02 8.634495e-17
6.100000e-02 8.803591e-16
6.200001e-02 1.271737e-15
6.300001e-02 8.802879e-16
6.400001e-02 -2.218878e-16
6.500000e-02 -1.445106e-15
6.600000e-02 -1.967158e-15
6.700000e-02 -1.254548e-15
6.800000e-02 4.913057e-16
6.900001e-02 2.297889e-15
7.000001e-02 2.920879e-15
7.100001e-02 1.654517e-15
7.200000e-02 -1.045899e-15
7.300000e-02 -3.613831e-15
7.400000e-02 -4.216306e-15
7.500000e-02 -1.982750e-15
7.600001e-02 2.159972e-15
7.700001e-02 5.725847e-15
7.800001e-02 6.060203e-15
7.900001e-02 2.168096e-15
8.000000e-02 -4.203661e-15
8.100000e-02 -9.158676e-15
8.200000e-02 -8.880873e-15
8.300000e-02 -2.313164e-15
8.400001e-02 7.479514e-15
8.500001e-02 1.449895e-14
8.600001e-02 1.328904e-14
8.700001e-02 2.794812e-15
8.800000e-02 -1.196561e-14
8.900000e-02 -2.202014e-14
9.000000e-02 -1.968774e-14
9.100001e-02 -4.010742e-15
9.200001e-02 1.727848e-14
9.300001e-02 3.126626e-14
9.400001e-02 2.751549e-14
9.500000e-02 5.475297e-15
9.600000e-02 -2.340969e-14
9.700000e-02 -4.127837e-14
9.800000e-02 -3.472459e-14
9.900001e-02 -4.538220e-15
1.000000e-01 3.248898e-14
1.010000e-01 5.230796e-14
1.020000e-01 3.879694e-14
1.030000e-01 -3.851374e-15
1.040000e-01 -5.051131e-14
1.050000e-01 -6.880054e-14
1.060000e-01 -4.024538e-14
1.070000e-01 2.423316e-14
1.080000e-01 8.619720e-14
1.090000e-01 1.008933e-13
1.100000e-01 4.691231e-14
1.110000e-01 -5.431515e-14
1.120000e-01 -1.443461e-13
1.130000e-01 -1.596956e-13
1.140000e-01 -7.333442e-14
1.150000e-01 8.026003e-14
1.160000e-01 2.160798e-13
1.170000e-01 2.446515e-13
1.180000e-01 1.289212e-13
1.190000e-01 -8.340088e-14
1.200000e-01 -2.769485e-13
1.210000e-01 -3.317166e-13
1.220000e-01 -1.980032e-13
1.230000e-01 6.337276e-14
1.240000e-01 3.061851e-13
1.250000e-01 3.815292e-13
1.260000e-01 2.319313e-13
1.270000e-01 -6.278861e-14
1.280000e-01 -3.235467e-13
1.290000e-01 -3.789982e-13
1.300000e-01 -1.793058e-13
1.310000e-01 1.578155e-13
1.320000e-01 4.077465e-13
1.330000e-01 3.792084e-13
1.340000e-01 5.027085e-14
1.350000e-01 -3.920691e-13
1.360000e-01 -6.488279e-13
1.370000e-01 -4.965983e-13
1.380000e-01 4.730249e-14
1.390000e-01 6.960955e-13
1.400000e-01 1.040374e-12
1.410000e-01 7.985138e-13
1.420000e-01 2.014502e-14
1.430000e-01 -8.973203e-13
1.440000e-01 -1.414811e-12
1.450000e-01 -1.174800e-12
1.460000e-01 -2.464025e-13
1.470000e-01 8.750943e-13
1.480000e-01 1.540585e-12
1.490000e-01 1.342721e-12
1.500000e-01 3.892085e-13
1.510000e-01 -7.367180e-13
1.520000e-01 -1.331123e-12
1.530000e-01 -1.030974e-12
1.540000e-01 -7.940155e-14
1.550000e-01 8.081070e-13
1.560000e-01 9.272817e-13
1.570000e-01 1.178906e-13
1.580000e-01 -1.032100e-12
1.590000e-01 -1.513307e-12
1.600000e-01 -6.087699e-13
1.610000e-01 1.453342e-12
1.620000e-01 3.400877e-12
1.630000e-01 3.573394e-12
1.640000e-01 1.043996e-12
1.650000e-01 -3.470015e-12
1.660000e-01 -7.591670e-12
1.670000e-01 -8.395460e-12
1.680000e-01 -4.178350e-12
1.690000e-01 4.107775e-12
1.700000e-01 1.275111e-11
1.710000e-01 1.685051e-11
1.720000e-01 1.293540e-11
1.730000e-01 1.255507e-12
1.740000e-01 -1.366952e-11
1.750000e-01 -2.483328e-11
1.760000e-01 -2.616306e-11
1.770000e-01 -1.583992e-11
1.780000e-01 2.361078e-12
1.790000e-01 2.064297e-11
1.800000e-01 3.101551e-11
1.810000e-01 2.937495e-11
1.820000e-01 1.754342e-11
1.830000e-01 2.019818e-12
1.840000e-01 -9.941245e-12
1.850000e-01 -1.466717e-11
1.860000e-01 -1.416051e-11
1.870000e-01 -1.446652e-11
1.880000e-01 -2.103225e-11
1.890000e-01 -3.375812e-11
1.900000e-01 -4.499277e-11
1.910000e-01 -4.235689e-11
1.920000e-01 -1.560787e-11
1.930000e-01 3.580224e-11
1.940000e-01 9.877717e-11
1.950000e-01 1.491844e-10
1.960000e-01 1.608388e-10
1.970000e-01 1.173105e-10
1.980000e-01 2.116553e-11
1.990000e-01 -1.040255e-10
2.000000e-01 -2.205148e-10
2.010000e-01 -2.896734e-10
2.020000e-01 -2.863845e-10
2.030000e-01 -2.085304e-10
2.040000e-01 -7.757339e-11
2.050000e-01 7.005078e-11
2.060000e-01 1.972058e-10
2.070000e-01 2.801259e-10
2.080000e-01 3.164098e-10
2.090000e-01 3.233220e-10
2.100000e-01 3.265030e-10
2.110000e-01 3.431066e-10
2.120000e-01 3.661947e-10
2.130000e-01 3.578293e-10
2.140000e-01 2.561491e-10
2.150000e-01 -2.988249e-12
2.160000e-01 -4.551724e-10
2.170000e-01 -1.077848e-09
2.180000e-01 -1.774097e-09
2.190000e-01 -2.378762e-09
2.200000e-01 -2.688287e-09
2.210000e-01 -2.506481e-09
2.220000e-01 -1.691825e-09
2.230000e-01 -1.917474e-10
2.240000e-01 1.943909e-09
2.250000e-01 4.567002e-09
2.260000e-01 7.440530e-09
2.270000e-01 1.023964e-08
2.280000e-01 1.253865e-08
2.290000e-01 1.379261e-08
2.300000e-01 1.333359e-08
2.310000e-01 1.040248e-08
2.320000e-01 4.222493e-09
2.330000e-01 -5.903933e-09
2.340000e-01 -2.051588e-08
2.350000e-01 -3.998013e-08
2.360000e-01 -6.457353e-08
2.370000e-01 -9.465575e-08
2.380000e-01 -1.308858e-07
2.390000e-01 -1.744120e-07
2.400000e-01 -2.269741e-07
2.410000e-01 -2.908932e-07
2.420000e-01 -3.689839e-07
2.430000e-01 -4.644608e-07
2.440000e-01 -5.809235e-07
2.450000e-01 -7.224687e-07
2.460000e-01 -8.939193e-07
2.470000e-01 -1.101108e-06
2.480000e-01 -1.351129e-06
2.490000e-01 -1.652505e-06
2.500000e-01 -2.015275e-06
2.510000e-01 -2.451061e-06
2.520000e-01 -2.973244e-06
2.530000e-01 -3.597288e-06
2.540000e-01 -4.341239e-06
2.550000e-01 -5.226308e-06
2.560000e-01 -6.277414e-06
2.570000e-01 -7.523583e-06
2.580000e-01 -8.998158e-06
2.590000e-01 -1.073894e-05
2.600000e-01 -1.278839e-05
2.610000e-01 -1.519409e-05
2.620000e-01 -1.800956e-05
2.630000e-01 -2.129538e-05
2.640000e-01 -2.512039e-05
2.650000e-01 -2.956296e-05
2.660000e-01 -3.471175e-05
2.670000e-01 -4.066637e-05
2.680000e-01 -4.753761e-05
2.690000e-01 -5.544772e-05
2.700000e-01 -6.453082e-05
2.710000e-01 -7.493362e-05
2.720000e-01 -8.681636e-05
2.730000e-01 -1.003539e-04
2.740000e-01 -1.157367e-04
2.750000e-01 -1.331713e-04
2.760000e-01 -1.528806e-04
2.770000e-01 -1.751039e-04
2.780000e-01 -2.000963e-04
2.790000e-01 -2.281285e-04
2.800000e-01 -2.594862e-04
2.810000e-01 -2.944697e-04
2.820000e-01 -3.333926e-04
2.830000e-01 -3.765805e-04
2.840000e-01 -4.243685e-04
2.850000e-01 -4.770984e-04
2.860000e-01 -5.351151e-04
2.870000e-01 -5.987632e-04
2.880000e-01 -6.683830e-04
2.890000e-01 -7.443067e-04
2.900000e-01 -8.268540e-04
2.910000e-01 -9.163278e-04
2.920000e-01 -1.013008e-03
2.930000e-01 -1.117144e-03
2.940000e-01 -1.228951e-03
2.950000e-01 -1.348598e-03
2.960000e-01 -1.476199e-03
2.970000e-01 -1.611808e-03
2.980000e-01 -1.755412e-03
2.990000e-01 -1.906919e-03
3.000000e-01 -2.066154e-03
3.010000e-01 -2.232854e-03
3.020000e-01 -2.406654e-03
3.030000e-01 -2.587087e-03
3.040000e-01 -2.773572e-03
3.050000e-01 -2.965409e-03
3.060000e-01 -3.161779e-03
3.070000e-01 -3.361737e-03
3.080000e-01 -3.564214e-03
3.090000e-01 -3.768016e-03
3.100000e-01 -3.971825e-03
3.110000e-01 -4.174205e-03
3.120000e-01 -4.373603e-03
3.130000e-01 -4.568354e-03
3.140000e-01 -4.756696e-03
3.150000e-01 -4.936773e-03
3.160000e-01 -5.106658e-03
3.170000e-01 -5.264364e-03
3.180000e-01 -5.407868e-03
3.190000e-01 -5.535127e-03
3.200000e-01 -5.644101e-03
3.210000e-01 -5.732775e-03
3.220000e-01 -5.799179e-03
3.230000e-01 -5.841414e-03
3.240000e-01 -5.857679e-03
3.250000e-01 -5.846298e-03
3.260000e-01 -5.805749e-03
3.270000e-01 -5.734687e-03
3.280000e-01 -5.631972e-03
3.290000e-01 -5.496690e-03
3.300000e-01 -5.328173e-03
3.310000e-01 -5.126023e-03
3.320000e-01 -4.890124e-03
3.330000e-01 -4.620661e-03
3.340000e-01 -4.318130e-03
3.350000e-01 -3.983347e-03
3.360000e-01 -3.617448e-03
3.370000e-01 -3.221894e-03
3.380000e-01 -2.798459e-03
3.390000e-01 -2.349228e-03
3.400000e-01 -1.876576e-03
3.410000e-01 -1.383157e-03
3.420000e-01 -8.718820e-04
3.430000e-01 -3.458912e-04
3.440000e-01 1.914710e-04
3.450000e-01 7.366908e-04
3.460000e-01 1.286121e-03
3.470000e-01 1.836017e-03
3.480000e-01 2.382583e-03
3.490000e-01 2.922002e-03
3.500000e-01 3.450487e-03
3.510000e-01 3.964315e-03
3.520000e-01 4.459872e-03
3.530000e-01 4.933690e-03
3.540000e-01 5.382484e-03
3.550000e-01 5.803192e-03
3.560000e-01 6.193005e-03
3.570000e-01 6.549400e-03
3.580000e-01 6.870166e-03
3.590000e-01 7.153420e-03
3.600000e-01 7.397632e-03
3.610000e-01 7.601631e-03
3.620000e-01 7.764620e-03
3.630000e-01 7.886171e-03
3.640000e-01 7.966232e-03
3.650000e-01 8.005111e-03
3.660000e-01 8.003479e-03
3.670000e-01 7.962340e-03
3.680000e-01 7.883026e-03
3.690000e-01 7.767165e-03
3.700000e-01 7.616658e-03
3.710000e-01 7.433651e-03
3.720000e-01 7.220505e-03
3.730000e-01 6.979757e-03
3.740000e-01 6.714095e-03
3.750000e-01 6.426320e-03
3.760000e-01 6.119313e-03
3.770000e-01 5.796002e-03
3.780000e-01 5.459325e-03
3.790000e-01 5.112205e-03
3.800000e-01 4.757513e-03
3.810000e-01 4.398045e-03
3.820000e-01 4.036495e-03
3.830000e-01 3.675434e-03
3.840000e-01 3.317282e-03
3.850000e-01 2.964296e-03
3.860000e-01 2.618556e-03
3.870000e-01 2.281952e-03
3.880000e-01 1.956176e-03
3.890000e-01 1.642723e-03
3.900000e-01 1.342881e-03
3.910000e-01 1.057733e-03
3.920000e-01 7.881607e-04
3.930000e-01 5.348498e-04
3.940000e-01 2.982944e-04
3.950000e-01 7.880817e-05
3.960000e-01 -1.234665e-04
3.970000e-01 -3.085458e-04
3.980000e-01 -4.765923e-04
3.990000e-01 -6.279001e-04
4.000000e-01 -7.628812e-04
4.010000e-01 -8.820510e-04
4.020000e-01 -9.860145e-04
4.030000e-01 -1.075452e-03
4.040000e-01 -1.151108e-03
4.050000e-01 -1.213772e-03
4.060000e-01 -1.264271e-03
4.070000e-01 -1.303454e-03
4.080000e-01 -1.332184e-03
4.090000e-01 -1.351324e-03
4.100000e-01 -1.361736e-03
4.110000e-01 -1.364263e-03
4.120000e-01 -1.359730e-03
4.130000e-01 -1.348933e-03
4.140000e-01 -1.332632e-03
4.150000e-01 -1.311552e-03
4.160000e-01 -1.286375e-03
4.170000e-01 -1.257742e-03
4.180000e-01 -1.226251e-03
4.190000e-01 -1.192451e-03
4.200000e-01 -1.156847e-03
4.210000e-01 -1.119899e-03
4.220001e-01 -1.082021e-03
4.230000e-01 -1.043585e-03
4.240000e-01 -1.004919e-03
4.250000e-01 -9.663145e-04
4.260000e-01 -9.280203e-04
4.270000e-01 -8.902511e-04
4.280000e-01 -8.531884e-04
4.290000e-01 -8.169837e-04
4.300000e-01 -7.817614e-04
4.310000e-01 -7.476205e-04
4.320000e-01 -7.146364e-04
4.330000e-01 -6.828632e-04
4.340000e-01 -6.523368e-04
4.350000e-01 -6.230773e-04
4.360000e-01 -5.950916e-04
4.370000e-01 -5.683744e-04
4.380000e-01 -5.429095e-04
4.390000e-01 -5.186718e-04
4.400000e-01 -4.956292e-04
4.410000e-01 -4.737451e-04
4.420000e-01 -4.529797e-04
4.430000e-01 -4.332912e-04
4.440000e-01 -4.146348e-04
4.450000e-01 -3.969634e-04
4.460000e-01 -3.802285e-04
4.470000e-01 -3.643820e-04
4.480000e-01 -3.493775e-04
4.490000e-01 -3.351710e-04
4.500000e-01 -3.217195e-04
4.510000e-01 -3.089807e-04
4.520000e-01 -2.969123e-04
4.530000e-01 -2.854732e-04
4.540000e-01 -2.746249e-04
4.550000e-01 -2.643332e-04
4.560000e-01 -2.545673e-04
4.570000e-01 -2.452989e-04
4.580000e-01 -2.365004e-04
4.590001e-01 -2.281447e-04
4.600000e-01 -2.202050e-04
4.610000e-01 -2.126569e-04
4.620000e-01 -2.054786e-04
4.630000e-01 -1.986503e-04
4.640000e-01 -1.921535e-04
4.650000e-01 -1.859701e-04
4.660000e-01 -1.800821e-04
4.670000e-01 -1.744725e-04
4.680000e-01 -1.691260e-04
4.690000e-01 -1.640290e-04
4.700000e-01 -1.591685e-04
4.710000e-01 -1.545317e-04
4.720000e-01 -1.501052e-04
4.730000e-01 -1.458761e-04
4.740000e-01 -1.418321e-04
4.750000e-01 -1.379621e-04
4.760000e-01 -1.342554e-04
4.770000e-01 -1.307010e-04
4.780000e-01 -1.272875e-04
4.790000e-01 -1.240033e-04
4.800000e-01 -1.208384e-04
4.810000e-01 -1.177844e-04
4.820001e-01 -1.148346e-04
4.830000e-01 -1.119830e-04
4.840000e-01 -1.092226e-04
4.850000e-01 -1.065460e-04
4.860000e-01 -1.039458e-04
4.870000e-01 -1.014154e-04
4.880000e-01 -9.895026e-05
4.890000e-01 -9.654695e-05
4.900000e-01 -9.420267e-05
4.910000e-01 -9.191440e-05
4.920000e-01 -8.967902e-05
4.930000e-01 -8.749380e-05
4.940000e-01 -8.535691e-05
4.950000e-01 -8.326716e-05
4.960001e-01 -8.122328e-05
4.970000e-01 -7.922303e-05
4.980000e-01 -7.726315e-05
4.990000e-01 -7.533973e-05
5.000000e-01 -7.344882e-05
5.010000e-01 -7.158652e-05
5.020000e-01 -6.974818e-05
5.030000e-01 -6.792732e-05
5.040000e-01 -6.611494e-05
5.050000e-01 -6.429959e-05
5.060000e-01 -6.246803e-05
5.070000e-01 -6.060556e-05
5.080000e-01 -5.869549e-05
5.090000e-01 -5.671768e-05
5.100001e-01 -5.464684e-05
5.110000e-01 -5.245162e-05
5.120000e-01 -5.009464e-05
5.130000e-01 -4.753315e-05
5.140000e-01 -4.471937e-05
5.150000e-01 -4.159980e-05
5.160000e-01 -3.811345e-05
5.170000e-01 -3.418966e-05
5.180000e-01 -2.974629e-05
5.190001e-01 -2.468874e-05
5.200000e-01 -1.890954e-05
5.210000e-01 -1.228778e-05
5.220000e-01 -4.688033e-06
5.230000e-01 4.041536e-06
5.240000e-01 1.407144e-05
5.250000e-01 2.559301e-05
5.260000e-01 3.882013e-05
5.270000e-01 5.399061e-05
5.280000e-01 7.136739e-05
5.290000e-01 9.124001e-05
5.300000e-01 1.139263e-04
5.310000e-01 1.397741e-04
5.320000e-01 1.691635e-04
5.330001e-01 2.025082e-04
5.340000e-01 2.402570e-04
5.350000e-01 2.828945e-04
5.360000e-01 3.309413e-04
5.370000e-01 3.849534e-04
5.380000e-01 4.455216e-04
5.390000e-01 5.132701e-04
5.400000e-01 5.888556e-04
5.410000e-01 6.729645e-04
5.420001e-01 7.663108e-04
5.430000e-01 8.696314e-04
5.440000e-01 9.836807e-04
5.450000e-01 1.109224e-03
5.460000e-01 1.247031e-03
5.470001e-01 1.397865e-03
5.480000e-01 1.562476e-03
5.490000e-01 1.741591e-03
5.500000e-01 1.935901e-03
5.510000e-01 2.146046e-03
5.520000e-01 2.372602e-03
5.530000e-01 2.616066e-03
5.540000e-01 2.876834e-03
5.550000e-01 3.155194e-03
5.560001e-01 3.451298e-03
5.570000e-01 3.765156e-03
5.580000e-01 4.096609e-03
5.590000e-01 4.445311e-03
5.600000e-01 4.810711e-03
5.610000e-01 5.192039e-03
5.620000e-01 5.588287e-03
5.630000e-01 5.998197e-03
5.640000e-01 6.420249e-03
5.650001e-01 6.852648e-03
5.660000e-01 7.293315e-03
5.670000e-01 7.739885e-03
5.680000e-01 8.189702e-03
5.690000e-01 8.639826e-03
5.700001e-01 9.087035e-03
5.710000e-01 9.527843e-03
5.720000e-01 9.958508e-03
5.730000e-01 1.037506e-02
5.740000e-01 1.077333e-02
5.750000e-01 1.114895e-02
5.760000e-01 1.149746e-02
5.770000e-01 1.181425e-02
5.780000e-01 1.209469e-02
5.790001e-01 1.233413e-02
5.800000e-01 1.252798e-02
5.810000e-01 1.267174e-02
5.820000e-01 1.276107e-02
5.830000e-01 1.279186e-02
5.840001e-01 1.276030e-02
5.850000e-01 1.266290e-02
5.860000e-01 1.249658e-02
5.870000e-01 1.225872e-02
5.880000e-01 1.194723e-02
5.890000e-01 1.156055e-02
5.900000e-01 1.109779e-02
5.910000e-01 1.055867e-02
5.920000e-01 9.943619e-03
5.930001e-01 9.253755e-03
5.940000e-01 8.490936e-03
5.950000e-01 7.657756e-03
5.960000e-01 6.757547e-03
5.970000e-01 5.794371e-03
5.980000e-01 4.772990e-03
5.990000e-01 3.698840e-03
6.000000e-01 2.577983e-03
6.010000e-01 1.417065e-03
6.020001e-01 2.232557e-04
6.030000e-01 -9.958113e-04
6.040000e-01 -2.232119e-03
6.050000e-01 -3.477348e-03
6.060000e-01 -4.722971e-03
6.070001e-01 -5.960335e-03
6.080000e-01 -7.180758e-03
6.090000e-01 -8.375618e-03
6.100000e-01 -9.536443e-03
6.110000e-01 -1.065501e-02
6.120000e-01 -1.172345e-02
6.130000e-01 -1.273430e-02
6.140000e-01 -1.368064e-02
6.150000e-01 -1.455609e-02
6.160001e-01 -1.535496e-02
6.170000e-01 -1.607224e-02
6.180000e-01 -1.670368e-02
6.190000e-01 -1.724583e-02
6.200000e-01 -1.769608e-02
6.210001e-01 -1.805263e-02
6.220000e-01 -1.831455e-02
6.230000e-01 -1.848177e-02
6.240000e-01 -1.855502e-02
6.250001e-01 -1.853583e-02
6.260000e-01 -1.842654e-02
6.270000e-01 -1.823018e-02
6.280000e-01 -1.795049e-02
6.290000e-01 -1.759179e-02
6.300001e-01 -1.715900e-02
6.310000e-01 -1.665746e-02
6.320000e-01 -1.609298e-02
6.330000e-01 -1.547169e-02
6.340000e-01 -1.479997e-02
6.350001e-01 -1.408439e-02
6.360000e-01 -1.333163e-02
6.370000e-01 -1.254839e-02
6.380000e-01 -1.174133e-02
6.390001e-01 -1.091702e-02
6.400000e-01 -1.008185e-02
6.410000e-01 -9.241970e-03
6.420000e-01 -8.403262e-03
6.430000e-01 -7.571262e-03
6.440001e-01 -6.751142e-03
6.450000e-01 -5.947682e-03
6.460000e-01 -5.165238e-03
6.470000e-01 -4.407727e-03
6.480000e-01 -3.678600e-03
6.490000e-01 -2.980835e-03
6.500000e-01 -2.316945e-03
6.510000e-01 -1.688983e-03
6.520000e-01 -1.098560e-03
6.530001e-01 -5.468588e-04
6.540000e-01 -3.464328e-05
6.550000e-01 4.377178e-04
6.560000e-01 8.702258e-04
6.570000e-01 1.263218e-03
6.580001e-01 1.617333e-03
6.590000e-01 1.933479e-03
6.600000e-01 2.212806e-03
6.610000e-01 2.456678e-03
6.620001e-01 2.666643e-03
6.630000e-01 2.844396e-03
6.640000e-01 2.991745e-03
6.650000e-01 3.110582e-03
6.660000e-01 3.202853e-03
6.670001e-01 3.270544e-03
6.680000e-01 3.315656e-03
6.690000e-01 3.340181e-03
6.700000e-01 3.346081e-03
6.710000e-01 3.335263e-03
6.720001e-01 3.309572e-03
6.730000e-01 3.270778e-03
6.740000e-01 3.220573e-03
6.750000e-01 3.160563e-03
6.760001e-01 3.092254e-03
6.770000e-01 3.017048e-03
6.780000e-01 2.936237e-03
6.790000e-01 2.851007e-03
6.800000e-01 2.762445e-03
6.810001e-01 2.671538e-03
6.820000e-01 2.579177e-03
6.830000e-01 2.486152e-03
6.840000e-01 2.393151e-03
6.850001e-01 2.300770e-03
6.860000e-01 2.209524e-03
6.870000e-01 2.119858e-03
6.880000e-01 2.032150e-03
6.890000e-01 1.946714e-03
6.900001e-01 1.863799e-03
6.910000e-01 1.783591e-03
6.920000e-01 1.706225e-03
6.930000e-01 1.631798e-03
6.940000e-01 1.560374e-03
6.950001e-01 1.491988e-03
6.960000e-01 1.426640e-03
6.970000e-01 1.364302e-03
6.980000e-01 1.304918e-03
6.990001e-01 1.248416e-03
7.000000e-01 1.194720e-03
7.010000e-01 1.143744e-03
7.020000e-01 1.095397e-03
7.030000e-01 1.049576e-03
7.040001e-01 1.006168e-03
7.050000e-01 9.650535e-04
7.060000e-01 9.261174e-04
7.070000e-01 8.892490e-04
7.080001e-01 8.543431e-04
7.090001e-01 8.212943e-04
7.100000e-01 7.899955e-04
7.110000e-01 7.603391e-04
7.120000e-01 7.322233e-04
7.130001e-01 7.055551e-04
7.140000e-01 6.802506e-04
7.150000e-01 6.562305e-04
7.160000e-01 6.334159e-04
7.170000e-01 6.117283e-04
7.180001e-01 5.910932e-04
7.190000e-01 5.714438e-04
7.200000e-01 5.527224e-04
7.210000e-01 5.348769e-04
7.220001e-01 5.178565e-04
7.230000e-01 5.016099e-04
7.240000e-01 4.860876e-04
7.250000e-01 4.712457e-04
7.260000e-01 4.570482e-04
7.270001e-01 4.434644e-04
7.280000e-01 4.304647e-04
7.290000e-01 4.180174e-04
7.300000e-01 4.060900e-04
7.310000e-01 3.946524e-04
7.320001e-01 3.836805e-04
7.330000e-01 3.731551e-04
7.340000e-01 3.630578e-04
7.350000e-01 3.533676e-04
7.360001e-01 3.440607e-04
7.370000e-01 3.351143e-04
7.380000e-01 3.265103e-04
7.390000e-01 3.182365e-04
7.400000e-01 3.102825e-04
7.410001e-01 3.026342e-04
7.420000e-01 2.952729e-04
7.430000e-01 2.881772e-04
7.440000e-01 2.813294e-04
7.450001e-01 2.747179e-04
7.460001e-01 2.683360e-04
7.470000e-01 2.621759e-04
7.480000e-01 2.562246e-04
7.490000e-01 2.504643e-04
7.500001e-01 2.448783e-04
7.510000e-01 2.394554e-04
7.520000e-01 2.341913e-04
7.530000e-01 2.290841e-04
7.540000e-01 2.241276e-04
7.550001e-01 2.193096e-04
7.560000e-01 2.146155e-04
7.570000e-01 2.100345e-04
7.580000e-01 2.055633e-04
7.590001e-01 2.012047e-04
7.600001e-01 1.969608e-04
7.610000e-01 1.928277e-04
7.620000e-01 1.887964e-04
7.630000e-01 1.848575e-04
7.640001e-01 1.810077e-04
7.650000e-01 1.772508e-04
7.660000e-01 1.735931e-04
7.670000e-01 1.700373e-04
7.680001e-01 1.665794e-04
7.690001e-01 1.632117e-04
7.700000e-01 1.599295e-04
7.710000e-01 1.567344e-04
7.720000e-01 1.536330e-04
7.730001e-01 1.506305e-04
7.740000e-01 1.477258e-04
7.750000e-01 1.449117e-04
7.760000e-01 1.421800e-04
7.770000e-01 1.395275e-04
7.780001e-01 1.369572e-04
7.790000e-01 1.344735e-04
7.800000e-01 1.320764e-04
7.810000e-01 1.297587e-04
7.820001e-01 1.275094e-04
7.830001e-01 1.253207e-04
7.840000e-01 1.231911e-04
7.850000e-01 1.211239e-04
7.860000e-01 1.191206e-04
7.870001e-01 1.171756e-04
7.880000e-01 1.152775e-04
7.890000e-01 1.134142e-04
7.900000e-01 1.115803e-04
7.910001e-01 1.097779e-04
7.920001e-01 1.080123e-04
7.930000e-01 1.062842e-04
7.940000e-01 1.045869e-04
7.950000e-01 1.029092e-04
7.960001e-01 1.012426e-04
7.970001e-01 9.958687e-05
7.980000e-01 9.794866e-05
7.990000e-01 9.633545e-05
8.000000e-01 9.474883e-05
8.010001e-01 9.318334e-05
8.020000e-01 9.163137e-05
8.030000e-01 9.009011e-05
8.040000e-01 8.856474e-05
8.050001e-01 8.706516e-05
8.060001e-01 8.559908e-05
8.070000e-01 8.416703e-05
8.080000e-01 8.276328e-05
8.090000e-01 8.138176e-05
8.100001e-01 8.002218e-05
8.110000e-01 7.869142e-05
8.120000e-01 7.739932e-05
8.130000e-01 7.615237e-05
8.140000e-01 7.495035e-05
8.150001e-01 7.378800e-05
8.160000e-01 7.266002e-05
8.170000e-01 7.156515e-05
8.180000e-01 7.050612e-05
8.190001e-01 6.948624e-05
8.200001e-01 6.850561e-05
8.210000e-01 6.756045e-05
8.220000e-01 6.664559e-05
8.230000e-01 6.575780e-05
8.240001e-01 6.489690e-05
8.250000e-01 6.406384e-05
8.260000e-01 6.325752e-05
8.270000e-01 6.247323e-05
8.280001e-01 6.170414e-05
8.290001e-01 6.094451e-05
8.300000e-01 6.019193e-05
8.310000e-01 5.944687e-05
8.320000e-01 5.870997e-05
8.330001e-01 5.797943e-05
8.340001e-01 5.725074e-05
8.350000e-01 5.651890e-05
8.360000e-01 5.578116e-05
8.370000e-01 5.503818e-05
8.380001e-01 5.429273e-05
8.390000e-01 5.354709e-05
8.400000e-01 5.280140e-05
8.410000e-01 5.205399e-05
8.420001e-01 5.130349e-05
8.430001e-01 5.055062e-05
8.440000e-01 4.979855e-05
8.450000e-01 4.905157e-05
8.460000e-01 4.831320e-05
8.470001e-01 4.758531e-05
8.480000e-01 4.686866e-05
8.490000e-01 4.616418e-05
8.500000e-01 4.547412e-05
8.510001e-01 4.480202e-05
8.520001e-01 4.415189e-05
8.530000e-01 4.352702e-05
8.540000e-01 4.292917e-05
8.550000e-01 4.235845e-05
8.560001e-01 4.181367e-05
8.570001e-01 4.129309e-05
8.580000e-01 4.079524e-05
8.590000e-01 4.031952e-05
8.600000e-01 3.986612e-05
8.610001e-01 3.943535e-05
8.620000e-01 3.902650e-05
8.630000e-01 3.863711e-05
8.640000e-01 3.826318e-05
8.650001e-01 3.790054e-05
8.660001e-01 3.754623e-05
8.670000e-01 3.719903e-05
8.680000e-01 3.685836e-05
8.690000e-01 3.652256e-05
8.700001e-01 3.618779e-05
8.710001e-01 3.584871e-05
8.720000e-01 3.550072e-05
8.730000e-01 3.514203e-05
8.740000e-01 3.477396e-05
8.750001e-01 3.439897e-05
8.760000e-01 3.401811e-05
8.770000e-01 3.362963e-05
8.780000e-01 3.323022e-05
8.790001e-01 3.281784e-05
