-1.200000e-01 0.000000e+00
-1.190000e-01 0.000000e+00
-1.180000e-01 0.000000e+00
-1.170000e-01 0.000000e+00
-1.160000e-01 0.000000e+00
-1.150000e-01 0.000000e+00
-1.140000e-01 0.000000e+00
-1.130000e-01 -1.131271e-21
-1.120000e-01 -3.813871e-21
-1.110000e-01 6.386896e-21
-1.100000e-01 4.274109e-20
-1.090000e-01 -3.426043e-20
-1.080000e-01 -6.178082e-19
-1.070000e-01 -1.491828e-18
-1.060000e-01 4.284233e-19
-1.050000e-01 1.104829e-17
-1.040000e-01 2.833893e-17
-1.030000e-01 2.080893e-17
-1.020000e-01 -7.335572e-17
-1.010000e-01 -2.685652e-16
-1.000000e-01 -3.728763e-16
-9.900001e-02 7.542664e-17
-9.800000e-02 1.441400e-15
-9.700000e-02 3.084292e-15
-9.600000e-02 2.611518e-15
-9.500001e-02 -3.112433e-15
-9.400000e-02 -1.407868e-14
-9.300000e-02 -2.221668e-14
-9.200001e-02 -1.146003e-14
-9.100001e-02 3.059533e-14
-9.000000e-02 9.098002e-14
-8.900000e-02 1.166783e-13
-8.800000e-02 3.413411e-14
-8.700000e-02 -1.842572e-13
-8.600000e-02 -4.386883e-13
-8.500001e-02 -4.866680e-13
-8.400001e-02 -7.369078e-14
-8.300000e-02 8.045411e-13
-8.200000e-02 1.679618e-12
-8.100000e-02 1.694522e-12
-8.000000e-02 1.457130e-13
-7.900000e-02 -2.722592e-12
-7.800000e-02 -5.273926e-12
-7.700001e-02 -5.045894e-12
-7.600001e-02 -4.387588e-13
-7.500000e-02 7.350535e-12
-7.400000e-02 1.375655e-11
-7.300000e-02 1.288585e-11
-7.200000e-02 1.736952e-12
-7.100000e-02 -1.596109e-11
-7.000001e-02 -2.971504e-11
-6.900001e-02 -2.771987e-11
-6.800000e-02 -5.546730e-12
-6.700000e-02 2.777084e-11
-6.600000e-02 5.210255e-11
-6.500000e-02 4.799799e-11
-6.400000e-02 1.147648e-11
-6.300000e-02 -3.900236e-11
-6.200000e-02 -7.107908e-11
-6.100000e-02 -5.985396e-11
-6.000000e-02 -8.306262e-12
-5.900000e-02 4.972451e-11
-5.800000e-02 7.040962e-11
-5.700000e-02 3.322091e-11
-5.600000e-02 -3.757777e-11
-5.500000e-02 -8.341401e-11
-5.400001e-02 -5.258725e-11
-5.300000e-02 5.434215e-11
-5.200000e-02 1.706784e-10
-5.100000e-02 1.994119e-10
-5.000000e-02 8.139975e-11
-4.900000e-02 -1.499790e-10
-4.800000e-02 -3.713987e-10
-4.700000e-02 -4.370269e-10
-4.600000e-02 -2.716024e-10
-4.500000e-02 7.307338e-11
-4.400000e-02 4.395477e-10
-4.300000e-02 6.526137e-10
-4.200000e-02 6.155886e-10
-4.100000e-02 3.519275e-10
-4.000000e-02 -2.912551e-11
-3.900000e-02 -4.075622e-10
-3.800000e-02 -7.064007e-10
-3.700000e-02 -8.873217e-10
-3.600000e-02 -9.071164e-10
-3.500000e-02 -6.927958e-10
-3.400000e-02 -1.794608e-10
-3.300000e-02 6.032316e-10
-3.200000e-02 1.464878e-09
-3.100000e-02 2.079228e-09
-3.000000e-02 2.112278e-09
-2.900000e-02 1.389452e-09
-2.800000e-02 4.481970e-12
-2.700000e-02 -1.690804e-09
-2.600000e-02 -3.200176e-09
-2.500000e-02 -4.030713e-09
-2.400000e-02 -3.813320e-09
-2.300000e-02 -2.386784e-09
-2.200000e-02 1.280807e-10
-2.100000e-02 3.260950e-09
-2.000000e-02 6.190255e-09
-1.900000e-02 7.895317e-09
-1.800000e-02 7.488308e-09
-1.700000e-02 4.619356e-09
-1.600000e-02 -2.549836e-10
-1.500000e-02 -5.921830e-09
-1.400000e-02 -1.079398e-08
-1.300000e-02 -1.343766e-08
-1.200000e-02 -1.298073e-08
-1.100000e-02 -9.245526e-09
-9.999998e-03 -2.662466e-09
-8.999996e-03 5.842843e-09
-8.000001e-03 1.485845e-08
-6.999999e-03 2.246932e-08
-5.999997e-03 2.644957e-08
-5.000003e-03 2.481955e-08
-4.000001e-03 1.662070e-08
-2.999999e-03 2.462190e-09
-1.999997e-03 -1.562110e-08
-1.000002e-03 -3.510094e-08
0.000000e+00 -5.425893e-08
1.000002e-03 -7.314073e-08
2.000004e-03 -9.362038e-08
2.999999e-03 -1.186026e-07
4.000001e-03 -1.509535e-07
4.999995e-03 -1.928932e-07
5.999997e-03 -2.462027e-07
6.999999e-03 -3.129879e-07
8.000001e-03 -3.963661e-07
9.000003e-03 -5.005696e-07
1.000001e-02 -6.304491e-07
1.100001e-02 -7.908122e-07
1.199999e-02 -9.860909e-07
1.300000e-02 -1.220524e-06
1.400000e-02 -1.498686e-06
1.500000e-02 -1.826114e-06
1.600000e-02 -2.210003e-06
1.700000e-02 -2.660130e-06
1.800001e-02 -3.190062e-06
1.900001e-02 -3.818239e-06
2.000000e-02 -4.568240e-06
2.100000e-02 -5.467722e-06
2.200000e-02 -6.546353e-06
2.300000e-02 -7.833945e-06
2.400000e-02 -9.360108e-06
2.500001e-02 -1.115603e-05
2.600001e-02 -1.325763e-05
2.700000e-02 -1.570833e-05
2.800000e-02 -1.856029e-05
2.900000e-02 -2.187370e-05
3.000000e-02 -2.571570e-05
3.100000e-02 -3.016026e-05
3.200001e-02 -3.528976e-05
3.300001e-02 -4.119743e-05
3.400001e-02 -4.798898e-05
3.500000e-02 -5.578239e-05
3.600000e-02 -6.470621e-05
3.700000e-02 -7.489813e-05
3.800000e-02 -8.650517e-05
3.900000e-02 -9.968562e-05
4.000001e-02 -1.146114e-04
4.100001e-02 -1.314694e-04
4.200000e-02 -1.504601e-04
4.300000e-02 -1.717968e-04
4.400000e-02 -1.957034e-04
4.500000e-02 -2.224158e-04
4.600000e-02 -2.521814e-04
4.700001e-02 -2.852597e-04
4.800001e-02 -3.219188e-04
4.900001e-02 -3.624315e-04
5.000000e-02 -4.070708e-04
5.100000e-02 -4.561088e-04
5.200000e-02 -5.098158e-04
5.300000e-02 -5.684594e-04
5.400001e-02 -6.323012e-04
5.500001e-02 -7.015896e-04
5.600001e-02 -7.765517e-04
5.700000e-02 -8.573859e-04
5.800000e-02 -9.442584e-04
5.900000e-02 -1.037300e-03
6.000000e-02 -1.136599e-03
6.100000e-02 -1.242199e-03
6.200001e-02 -1.354082e-03
6.300001e-02 -1.472160e-03
6.400001e-02 -1.596267e-03
6.500000e-02 -1.726157e-03
6.600000e-02 -1.861498e-03
6.700000e-02 -2.001873e-03
6.800000e-02 -2.146767e-03
6.900001e-02 -2.295560e-03
7.000001e-02 -2.447521e-03
7.100001e-02 -2.601806e-03
7.200000e-02 -2.757462e-03
7.300000e-02 -2.913425e-03
7.400000e-02 -3.068517e-03
7.500000e-02 -3.221451e-03
7.600001e-02 -3.370820e-03
7.700001e-02 -3.515111e-03
7.800001e-02 -3.652714e-03
7.900001e-02 -3.781940e-03
8.000000e-02 -3.901032e-03
8.100000e-02 -4.008178e-03
8.200000e-02 -4.101519e-03
8.300000e-02 -4.179165e-03
8.400001e-02 -4.239215e-03
8.500001e-02 -4.279783e-03
8.600001e-02 -4.299024e-03
8.700001e-02 -4.295166e-03
8.800000e-02 -4.266518e-03
8.900000e-02 -4.211501e-03
9.000000e-02 -4.128663e-03
9.100001e-02 -4.016717e-03
9.200001e-02 -3.874566e-03
9.300001e-02 -3.701336e-03
9.400001e-02 -3.496390e-03
9.500000e-02 -3.259352e-03
9.600000e-02 -2.990115e-03
9.700000e-02 -2.688865e-03
9.800000e-02 -2.356098e-03
9.900001e-02 -1.992640e-03
1.000000e-01 -1.599647e-03
1.010000e-01 -1.178608e-03
1.020000e-01 -7.313292e-04
1.030000e-01 -2.599301e-04
1.040000e-01 2.331600e-04
1.050000e-01 7.452077e-04
1.060000e-01 1.273188e-03
1.070000e-01 1.813808e-03
1.080000e-01 2.363544e-03
1.090000e-01 2.918670e-03
1.100000e-01 3.475294e-03
1.110000e-01 4.029384e-03
1.120000e-01 4.576799e-03
1.130000e-01 5.113328e-03
1.140000e-01 5.634744e-03
1.150000e-01 6.136845e-03
1.160000e-01 6.615500e-03
1.170000e-01 7.066678e-03
1.180000e-01 7.486481e-03
1.190000e-01 7.871169e-03
1.200000e-01 8.217202e-03
1.210000e-01 8.521282e-03
1.220000e-01 8.780385e-03
1.230000e-01 8.991783e-03
1.240000e-01 9.153047e-03
1.250000e-01 9.262061e-03
1.260000e-01 9.317025e-03
1.270000e-01 9.316471e-03
1.280000e-01 9.259275e-03
1.290000e-01 9.144645e-03
1.300000e-01 8.972109e-03
1.310000e-01 8.741492e-03
1.320000e-01 8.452895e-03
1.330000e-01 8.106678e-03
1.340000e-01 7.703452e-03
1.350000e-01 7.244060e-03
1.360000e-01 6.729546e-03
1.370000e-01 6.161119e-03
1.380000e-01 5.540116e-03
1.390000e-01 4.867981e-03
1.400000e-01 4.146255e-03
1.410000e-01 3.376565e-03
1.420000e-01 2.560619e-03
1.430000e-01 1.700169e-03
1.440000e-01 7.969995e-04
1.450000e-01 -1.470920e-04
1.460000e-01 -1.130282e-03
1.470000e-01 -2.150702e-03
1.480000e-01 -3.206417e-03
1.490000e-01 -4.295417e-03
1.500000e-01 -5.415607e-03
1.510000e-01 -6.564796e-03
1.520000e-01 -7.740665e-03
1.530000e-01 -8.940719e-03
1.540000e-01 -1.016223e-02
1.550000e-01 -1.140221e-02
1.560000e-01 -1.265736e-02
1.570000e-01 -1.392408e-02
1.580000e-01 -1.519842e-02
1.590000e-01 -1.647604e-02
1.600000e-01 -1.775216e-02
1.610000e-01 -1.902150e-02
1.620000e-01 -2.027830e-02
1.630000e-01 -2.151630e-02
1.640000e-01 -2.272875e-02
1.650000e-01 -2.390843e-02
1.660000e-01 -2.504765e-02
1.670000e-01 -2.613822e-02
1.680000e-01 -2.717152e-02
1.690000e-01 -2.813854e-02
1.700000e-01 -2.902997e-02
1.710000e-01 -2.983630e-02
1.720000e-01 -3.054785e-02
1.730000e-01 -3.115490e-02
1.740000e-01 -3.164771e-02
1.750000e-01 -3.201672e-02
1.760000e-01 -3.225264e-02
1.770000e-01 -3.234661e-02
1.780000e-01 -3.229035e-02
1.790000e-01 -3.207625e-02
1.800000e-01 -3.169753e-02
1.810000e-01 -3.114829e-02
1.820000e-01 -3.042375e-02
1.830000e-01 -2.952033e-02
1.840000e-01 -2.843577e-02
1.850000e-01 -2.716931e-02
1.860000e-01 -2.572164e-02
1.870000e-01 -2.409506e-02
1.880000e-01 -2.229346e-02
1.890000e-01 -2.032243e-02
1.900000e-01 -1.818926e-02
1.910000e-01 -1.590295e-02
1.920000e-01 -1.347417e-02
1.930000e-01 -1.091517e-02
1.940000e-01 -8.239704e-03
1.950000e-01 -5.462919e-03
1.960000e-01 -2.601289e-03
1.970000e-01 3.275308e-04
1.980000e-01 3.304868e-03
1.990000e-01 6.311241e-03
2.000000e-01 9.326564e-03
2.010000e-01 1.233036e-02
2.020000e-01 1.530196e-02
2.030000e-01 1.822068e-02
2.040000e-01 2.106606e-02
2.050000e-01 2.381812e-02
2.060000e-01 2.645755e-02
2.070000e-01 2.896599e-02
2.080000e-01 3.132618e-02
2.090000e-01 3.352217e-02
2.100000e-01 3.553942e-02
2.110000e-01 3.736502e-02
2.120000e-01 3.898779e-02
2.130000e-01 4.039844e-02
2.140000e-01 4.158966e-02
2.150000e-01 4.255612e-02
2.160000e-01 4.329453e-02
2.170000e-01 4.380361e-02
2.180000e-01 4.408411e-02
2.190000e-01 4.413875e-02
2.200000e-01 4.397222e-02
2.210000e-01 4.359101e-02
2.220000e-01 4.300335e-02
2.230000e-01 4.221902e-02
2.240000e-01 4.124920e-02
2.250000e-01 4.010634e-02
2.260000e-01 3.880403e-02
2.270000e-01 3.735677e-02
2.280000e-01 3.577982e-02
2.290000e-01 3.408897e-02
2.300000e-01 3.230033e-02
2.310000e-01 3.043020e-02
2.320000e-01 2.849485e-02
2.330000e-01 2.651043e-02
2.340000e-01 2.449275e-02
2.350000e-01 2.245713e-02
2.360000e-01 2.041825e-02
2.370000e-01 1.839001e-02
2.380000e-01 1.638550e-02
2.390000e-01 1.441686e-02
2.400000e-01 1.249522e-02
2.410000e-01 1.063066e-02
2.420000e-01 8.832121e-03
2.430000e-01 7.107415e-03
2.440000e-01 5.463199e-03
2.450000e-01 3.905010e-03
2.460000e-01 2.437280e-03
2.470000e-01 1.063355e-03
2.480000e-01 -2.144697e-04
2.490000e-01 -1.394905e-03
2.500000e-01 -2.477590e-03
2.510000e-01 -3.463009e-03
2.520000e-01 -4.352422e-03
2.530000e-01 -5.147798e-03
2.540000e-01 -5.851748e-03
2.550000e-01 -6.467463e-03
2.560000e-01 -6.998606e-03
2.570000e-01 -7.449226e-03
2.580000e-01 -7.823664e-03
2.590000e-01 -8.126489e-03
2.600000e-01 -8.362451e-03
2.610000e-01 -8.536431e-03
2.620000e-01 -8.653380e-03
2.630000e-01 -8.718239e-03
2.640000e-01 -8.735868e-03
2.650000e-01 -8.710995e-03
2.660000e-01 -8.648203e-03
2.670000e-01 -8.551915e-03
2.680000e-01 -8.426391e-03
2.690000e-01 -8.275681e-03
2.700000e-01 -8.103592e-03
2.710000e-01 -7.913650e-03
2.720000e-01 -7.709105e-03
2.730000e-01 -7.492950e-03
2.740000e-01 -7.267942e-03
2.750000e-01 -7.036610e-03
2.760000e-01 -6.801234e-03
2.770000e-01 -6.563832e-03
2.780000e-01 -6.326160e-03
2.790000e-01 -6.089746e-03
2.800000e-01 -5.855920e-03
2.810000e-01 -5.625849e-03
2.820000e-01 -5.400537e-03
2.830000e-01 -5.180814e-03
2.840000e-01 -4.967335e-03
2.850000e-01 -4.760597e-03
2.860000e-01 -4.560974e-03
2.870000e-01 -4.368750e-03
2.880000e-01 -4.184131e-03
2.890000e-01 -4.007237e-03
2.900000e-01 -3.838096e-03
2.910000e-01 -3.676649e-03
2.920000e-01 -3.522773e-03
2.930000e-01 -3.376316e-03
2.940000e-01 -3.237108e-03
2.950000e-01 -3.104957e-03
2.960000e-01 -2.979637e-03
2.970000e-01 -2.860876e-03
2.980000e-01 -2.748379e-03
2.990000e-01 -2.641847e-03
3.000000e-01 -2.541004e-03
3.010000e-01 -2.445589e-03
3.020000e-01 -2.355341e-03
3.030000e-01 -2.269978e-03
3.040000e-01 -2.189204e-03
3.050000e-01 -2.112726e-03
3.060000e-01 -2.040285e-03
3.070000e-01 -1.971657e-03
3.080000e-01 -1.906640e-03
3.090000e-01 -1.845028e-03
3.100000e-01 -1.786601e-03
3.110000e-01 -1.731135e-03
3.120000e-01 -1.678427e-03
3.130000e-01 -1.628314e-03
3.140000e-01 -1.580665e-03
3.150000e-01 -1.535358e-03
3.160000e-01 -1.492252e-03
3.170000e-01 -1.451186e-03
3.180000e-01 -1.412000e-03
3.190000e-01 -1.374558e-03
3.200000e-01 -1.338757e-03
3.210000e-01 -1.304516e-03
3.220000e-01 -1.271748e-03
3.230000e-01 -1.240347e-03
3.240000e-01 -1.210190e-03
3.250000e-01 -1.181160e-03
3.260000e-01 -1.153164e-03
3.270000e-01 -1.126133e-03
3.280000e-01 -1.100008e-03
3.290000e-01 -1.074722e-03
3.300000e-01 -1.050190e-03
3.310000e-01 -1.026327e-03
3.320000e-01 -1.003060e-03
3.330000e-01 -9.803370e-04
3.340000e-01 -9.581249e-04
3.350000e-01 -9.363945e-04
3.360000e-01 -9.151146e-04
3.370000e-01 -8.942542e-04
3.380000e-01 -8.737914e-04
3.390000e-01 -8.537178e-04
3.400000e-01 -8.340353e-04
3.410000e-01 -8.147481e-04
3.420000e-01 -7.958588e-04
3.430000e-01 -7.773729e-04
3.440000e-01 -7.593058e-04
3.450000e-01 -7.416846e-04
3.460000e-01 -7.245389e-04
3.470000e-01 -7.078893e-04
3.480000e-01 -6.917420e-04
3.490000e-01 -6.760977e-04
3.500000e-01 -6.609664e-04
3.510000e-01 -6.463756e-04
3.520000e-01 -6.323611e-04
3.530000e-01 -6.189477e-04
3.540000e-01 -6.061329e-04
3.550000e-01 -5.938904e-04
3.560000e-01 -5.821899e-04
3.570000e-01 -5.710195e-04
3.580000e-01 -5.603905e-04
3.590000e-01 -5.503204e-04
3.600000e-01 -5.408074e-04
3.610000e-01 -5.318170e-04
3.620000e-01 -5.232945e-04
3.630000e-01 -5.151918e-04
3.640000e-01 -5.074897e-04
3.650000e-01 -5.001950e-04
3.660000e-01 -4.933170e-04
3.670000e-01 -4.868397e-04
3.680000e-01 -4.807155e-04
3.690000e-01 -4.748824e-04
3.700000e-01 -4.692931e-04
3.710000e-01 -4.639307e-04
3.720000e-01 -4.587998e-04
3.730000e-01 -4.539006e-04
3.740000e-01 -4.492078e-04
3.750000e-01 -4.446699e-04
3.760000e-01 -4.402290e-04
3.770000e-01 -4.358425e-04
3.780000e-01 -4.314907e-04
3.790000e-01 -4.271640e-04
3.800000e-01 -4.228438e-04
3.810000e-01 -4.184920e-04
3.820000e-01 -4.140584e-04
3.830000e-01 -4.094973e-04
3.840000e-01 -4.047791e-04
3.850000e-01 -3.998889e-04
3.860000e-01 -3.948146e-04
3.870000e-01 -3.895381e-04
3.880000e-01 -3.840360e-04
3.890000e-01 -3.782898e-04
3.900000e-01 -3.722940e-04
3.910000e-01 -3.660559e-04
3.920000e-01 -3.595876e-04
3.930000e-01 -3.529001e-04
3.940000e-01 -3.460062e-04
3.950000e-01 -3.389299e-04
3.960000e-01 -3.317124e-04
3.970000e-01 -3.244069e-04
3.980000e-01 -3.170649e-04
3.990000e-01 -3.097258e-04
4.000000e-01 -3.024189e-04
4.010000e-01 -2.951775e-04
4.020000e-01 -2.880533e-04
4.030000e-01 -2.811160e-04
4.040000e-01 -2.744369e-04
4.050000e-01 -2.680683e-04
4.060000e-01 -2.620347e-04
4.070000e-01 -2.563442e-04
4.080000e-01 -2.510103e-04
4.090000e-01 -2.460655e-04
4.100000e-01 -2.415544e-04
4.110000e-01 -2.375106e-04
4.120000e-01 -2.339368e-04
4.130000e-01 -2.308044e-04
4.140000e-01 -2.280726e-04
4.150000e-01 -2.257141e-04
4.160000e-01 -2.237238e-04
4.170000e-01 -2.221073e-04
4.180000e-01 -2.208565e-04
4.190000e-01 -2.199348e-04
4.200000e-01 -2.192830e-04
4.210000e-01 -2.188416e-04
4.220001e-01 -2.185706e-04
4.230000e-01 -2.184519e-04
4.240000e-01 -2.184749e-04
4.250000e-01 -2.186166e-04
4.260000e-01 -2.188348e-04
4.270000e-01 -2.190779e-04
4.280000e-01 -2.193017e-04
4.290000e-01 -2.194805e-04
4.300000e-01 -2.196023e-04
4.310000e-01 -2.196561e-04
4.320000e-01 -2.196222e-04
4.330000e-01 -2.194727e-04
4.340000e-01 -2.191802e-04
4.350000e-01 -2.187251e-04
4.360000e-01 -2.180936e-04
4.370000e-01 -2.172707e-04
4.380000e-01 -2.162357e-04
4.390000e-01 -2.149654e-04
4.400000e-01 -2.134432e-04
4.410000e-01 -2.116639e-04
4.420000e-01 -2.096292e-04
4.430000e-01 -2.073367e-04
4.440000e-01 -2.047732e-04
4.450000e-01 -2.019209e-04
4.460000e-01 -1.987718e-04
4.470000e-01 -1.953391e-04
4.480000e-01 -1.916548e-04
4.490000e-01 -1.877531e-04
4.500000e-01 -1.836537e-04
4.510000e-01 -1.793607e-04
4.520000e-01 -1.748782e-04
4.530000e-01 -1.702322e-04
4.540000e-01 -1.654788e-04
4.550000e-01 -1.606911e-04
4.560000e-01 -1.559335e-04
4.570000e-01 -1.512432e-04
4.580000e-01 -1.466354e-04
4.590001e-01 -1.421264e-04
4.600000e-01 -1.377574e-04
4.610000e-01 -1.335975e-04
4.620000e-01 -1.297226e-04
4.630000e-01 -1.261868e-04
4.640000e-01 -1.230078e-04
4.650000e-01 -1.201778e-04
4.660000e-01 -1.176905e-04
4.670000e-01 -1.155616e-04
4.680000e-01 -1.138263e-04
4.690000e-01 -1.125169e-04
4.700000e-01 -1.116379e-04
4.710000e-01 -1.111593e-04
4.720000e-01 -1.110320e-04
4.730000e-01 -1.112135e-04
4.740000e-01 -1.116817e-04
4.750000e-01 -1.124298e-04
4.760000e-01 -1.134465e-04
4.770000e-01 -1.147003e-04
4.780000e-01 -1.161397e-04
4.790000e-01 -1.177075e-04
4.800000e-01 -1.193578e-04
4.810000e-01 -1.210607e-04
4.820001e-01 -1.227942e-04
4.830000e-01 -1.245318e-04
4.840000e-01 -1.262373e-04
4.850000e-01 -1.278698e-04
4.860000e-01 -1.293942e-04
4.870000e-01 -1.307865e-04
4.880000e-01 -1.320309e-04
4.890000e-01 -1.331122e-04
4.900000e-01 -1.340122e-04
4.910000e-01 -1.347126e-04
4.920000e-01 -1.352009e-04
4.930000e-01 -1.354714e-04
4.940000e-01 -1.355198e-04
4.950000e-01 -1.353354e-04
4.960001e-01 -1.348989e-04
4.970000e-01 -1.341902e-04
4.980000e-01 -1.331993e-04
4.990000e-01 -1.319318e-04
5.000000e-01 -1.304019e-04
5.010000e-01 -1.286197e-04
5.020000e-01 -1.265816e-04
5.030000e-01 -1.242748e-04
5.040000e-01 -1.216923e-04
5.050000e-01 -1.188473e-04
5.060000e-01 -1.157743e-04
5.070000e-01 -1.125154e-04
5.080000e-01 -1.091024e-04
5.090000e-01 -1.055491e-04
5.100001e-01 -1.018606e-04
5.110000e-01 -9.805266e-05
5.120000e-01 -9.416496e-05
5.130000e-01 -9.025862e-05
5.140000e-01 -8.639822e-05
5.150000e-01 -8.263301e-05
5.160000e-01 -7.899146e-05
5.170000e-01 -7.549278e-05
5.180000e-01 -7.216576e-05
5.190001e-01 -6.905914e-05
5.200000e-01 -6.623520e-05
5.210000e-01 -6.375073e-05
5.220000e-01 -6.163969e-05
5.230000e-01 -5.990965e-05
5.240000e-01 -5.855364e-05
5.250000e-01 -5.756764e-05
5.260000e-01 -5.696024e-05
5.270000e-01 -5.674804e-05
5.280000e-01 -5.694108e-05
5.290000e-01 -5.752967e-05
5.300000e-01 -5.848206e-05
5.310000e-01 -5.975410e-05
5.320000e-01 -6.130373e-05
5.330001e-01 -6.310003e-05
5.340000e-01 -6.512170e-05
5.350000e-01 -6.734684e-05
5.360000e-01 -6.974186e-05
5.370000e-01 -7.225718e-05
5.380000e-01 -7.483263e-05
5.390000e-01 -7.740906e-05
5.400000e-01 -7.993910e-05
5.410000e-01 -8.239060e-05
5.420001e-01 -8.474128e-05
5.430000e-01 -8.696863e-05
5.440000e-01 -8.904222e-05
5.450000e-01 -9.092402e-05
5.460000e-01 -9.257678e-05
5.470001e-01 -9.397493e-05
5.480000e-01 -9.510988e-05
5.490000e-01 -9.598542e-05
5.500000e-01 -9.660560e-05
5.510000e-01 -9.696353e-05
5.520000e-01 -9.703917e-05
5.530000e-01 -9.680813e-05
5.540000e-01 -9.625545e-05
5.550000e-01 -9.538436e-05
5.560001e-01 -9.421351e-05
5.570000e-01 -9.276499e-05
5.580000e-01 -9.105224e-05
5.590000e-01 -8.907685e-05
5.600000e-01 -8.683666e-05
5.610000e-01 -8.433832e-05
5.620000e-01 -8.160463e-05
5.630000e-01 -7.867119e-05
5.640000e-01 -7.557511e-05
5.650001e-01 -7.234487e-05
5.660000e-01 -6.899858e-05
5.670000e-01 -6.555131e-05
5.680000e-01 -6.202520e-05
5.690000e-01 -5.845502e-05
5.700001e-01 -5.488608e-05
5.710000e-01 -5.136758e-05
5.720000e-01 -4.794682e-05
5.730000e-01 -4.466742e-05
5.740000e-01 -4.157037e-05
5.750000e-01 -3.869503e-05
5.760000e-01 -3.607849e-05
5.770000e-01 -3.375454e-05
5.780000e-01 -3.175420e-05
5.790001e-01 -3.010720e-05
5.800000e-01 -2.884146e-05
5.810000e-01 -2.797843e-05
5.820000e-01 -2.752648e-05
5.830000e-01 -2.747812e-05
5.840001e-01 -2.781541e-05
5.850000e-01 -2.852148e-05
5.860000e-01 -2.958952e-05
5.870000e-01 -3.102059e-05
5.880000e-01 -3.280955e-05
5.890000e-01 -3.492898e-05
5.900000e-01 -3.732437e-05
5.910000e-01 -3.992674e-05
5.920000e-01 -4.267490e-05
5.930001e-01 -4.553056e-05
5.940000e-01 -4.847405e-05
5.950000e-01 -5.148295e-05
5.960000e-01 -5.451089e-05
5.970000e-01 -5.748458e-05
5.980000e-01 -6.032376e-05
5.990000e-01 -6.297004e-05
6.000000e-01 -6.540240e-05
6.010000e-01 -6.762705e-05
6.020001e-01 -6.964889e-05
6.030000e-01 -7.144715e-05
6.040000e-01 -7.297421e-05
6.050000e-01 -7.417872e-05
6.060000e-01 -7.503422e-05
6.070001e-01 -7.555066e-05
6.080000e-01 -7.575988e-05
6.090000e-01 -7.568704e-05
6.100000e-01 -7.533107e-05
6.110000e-01 -7.466893e-05
6.120000e-01 -7.367905e-05
6.130000e-01 -7.236457e-05
6.140000e-01 -7.075770e-05
6.150000e-01 -6.890341e-05
6.160001e-01 -6.683684e-05
6.170000e-01 -6.457253e-05
6.180000e-01 -6.211244e-05
6.190000e-01 -5.946348e-05
6.200000e-01 -5.664860e-05
6.210001e-01 -5.370296e-05
6.220000e-01 -5.066067e-05
6.230000e-01 -4.754540e-05
6.240000e-01 -4.437331e-05
6.250001e-01 -4.116451e-05
6.260000e-01 -3.795126e-05
6.270000e-01 -3.477485e-05
6.280000e-01 -3.167459e-05
6.290000e-01 -2.868039e-05
6.300001e-01 -2.581701e-05
6.310000e-01 -2.311628e-05
6.320000e-01 -2.062429e-05
6.330000e-01 -1.839410e-05
6.340000e-01 -1.646730e-05
6.350001e-01 -1.485994e-05
6.360000e-01 -1.356651e-05
6.370000e-01 -1.258093e-05
6.380000e-01 -1.191783e-05
6.390001e-01 -1.161503e-05
6.400000e-01 -1.171252e-05
6.410000e-01 -1.222376e-05
6.420000e-01 -1.312278e-05
6.430000e-01 -1.435912e-05
6.440001e-01 -1.588969e-05
6.450000e-01 -1.770160e-05
6.460000e-01 -1.980636e-05
6.470000e-01 -2.220902e-05
6.480000e-01 -2.487710e-05
6.490000e-01 -2.773538e-05
6.500000e-01 -3.069211e-05
6.510000e-01 -3.367642e-05
6.520000e-01 -3.665763e-05
6.530001e-01 -3.963138e-05
6.540000e-01 -4.258518e-05
6.550000e-01 -4.547220e-05
6.560000e-01 -4.821548e-05
6.570000e-01 -5.073893e-05
6.580001e-01 -5.299984e-05
6.590000e-01 -5.499652e-05
6.600000e-01 -5.674560e-05
6.610000e-01 -5.824878e-05
6.620001e-01 -5.947645e-05
6.630000e-01 -6.038102e-05
6.640000e-01 -6.092762e-05
6.650000e-01 -6.111622e-05
6.660000e-01 -6.097747e-05
6.670001e-01 -6.054715e-05
6.680000e-01 -5.984187e-05
6.690000e-01 -5.885595e-05
6.700000e-01 -5.758033e-05
6.710000e-01 -5.602552e-05
6.720001e-01 -5.422780e-05
6.730000e-01 -5.223356e-05
6.740000e-01 -5.007611e-05
6.750000e-01 -4.776531e-05
6.760001e-01 -4.529883e-05
6.770000e-01 -4.268426e-05
6.780000e-01 -3.995206e-05
6.790000e-01 -3.714813e-05
6.800000e-01 -3.431271e-05
6.810001e-01 -3.146509e-05
6.820000e-01 -2.860780e-05
6.830000e-01 -2.574671e-05
6.840000e-01 -2.290895e-05
6.850001e-01 -2.014248e-05
6.860000e-01 -1.749732e-05
6.870000e-01 -1.500495e-05
6.880000e-01 -1.267394e-05
6.890000e-01 -1.050603e-05
6.900001e-01 -8.518240e-06
6.910000e-01 -6.751289e-06
6.920000e-01 -5.256240e-06
6.930000e-01 -4.070444e-06
6.940000e-01 -3.203387e-06
6.950001e-01 -2.644630e-06
6.960000e-01 -2.386745e-06
6.970000e-01 -2.442862e-06
6.980000e-01 -2.842921e-06
6.990001e-01 -3.611231e-06
7.000000e-01 -4.744392e-06
7.010000e-01 -6.208675e-06
7.020000e-01 -7.959312e-06
7.030000e-01 -9.965110e-06
7.040001e-01 -1.221706e-05
7.050000e-01 -1.471332e-05
7.060000e-01 -1.743362e-05
7.070000e-01 -2.032559e-05
7.080001e-01 -2.331570e-05
7.090001e-01 -2.633652e-05
7.100000e-01 -2.934767e-05
7.110000e-01 -3.233293e-05
7.120000e-01 -3.527629e-05
7.130001e-01 -3.813742e-05
7.140000e-01 -4.084842e-05
7.150000e-01 -4.333528e-05
7.160000e-01 -4.554732e-05
7.170000e-01 -4.747041e-05
7.180001e-01 -4.911365e-05
7.190000e-01 -5.048092e-05
7.200000e-01 -5.155125e-05
7.210000e-01 -5.228431e-05
7.220001e-01 -5.264597e-05
7.230000e-01 -5.263265e-05
7.240000e-01 -5.227404e-05
7.250000e-01 -5.161223e-05
7.260000e-01 -5.067459e-05
7.270001e-01 -4.946245e-05
7.280000e-01 -4.796391e-05
7.290000e-01 -4.617913e-05
7.300000e-01 -4.413685e-05
7.310000e-01 -4.188885e-05
7.320001e-01 -3.948771e-05
7.330000e-01 -3.696657e-05
7.340000e-01 -3.433664e-05
7.350000e-01 -3.160297e-05
7.360001e-01 -2.878364e-05
7.370000e-01 -2.591635e-05
7.380000e-01 -2.304775e-05
7.390000e-01 -2.021598e-05
7.400000e-01 -1.744158e-05
7.410001e-01 -1.473376e-05
7.420000e-01 -1.210513e-05
7.430000e-01 -9.581256e-06
7.440000e-01 -7.196959e-06
7.450001e-01 -4.983843e-06
7.460001e-01 -2.961283e-06
7.470000e-01 -1.139582e-06
7.480000e-01 4.677286e-07
7.490000e-01 1.834371e-06
7.500001e-01 2.924498e-06
7.510000e-01 3.707129e-06
7.520000e-01 4.169815e-06
7.530000e-01 4.319406e-06
7.540000e-01 4.168609e-06
7.550001e-01 3.719612e-06
7.560000e-01 2.959258e-06
7.570000e-01 1.870809e-06
7.580000e-01 4.530635e-07
7.590001e-01 -1.269393e-06
7.600001e-01 -3.254252e-06
7.610000e-01 -5.462127e-06
7.620000e-01 -7.872986e-06
7.630000e-01 -1.048425e-05
7.640001e-01 -1.329105e-05
7.650000e-01 -1.626388e-05
7.660000e-01 -1.934172e-05
7.670000e-01 -2.244689e-05
7.680001e-01 -2.551088e-05
7.690001e-01 -2.849175e-05
7.700000e-01 -3.137060e-05
7.710000e-01 -3.413090e-05
7.720000e-01 -3.673787e-05
7.730001e-01 -3.913466e-05
7.740000e-01 -4.125822e-05
7.750000e-01 -4.306261e-05
7.760000e-01 -4.453181e-05
7.770000e-01 -4.567306e-05
7.780001e-01 -4.649684e-05
7.790000e-01 -4.699948e-05
7.800000e-01 -4.716107e-05
7.810000e-01 -4.695894e-05
7.820001e-01 -4.638509e-05
7.830001e-01 -4.545405e-05
7.840000e-01 -4.419657e-05
7.850000e-01 -4.264559e-05
7.860000e-01 -4.082626e-05
7.870001e-01 -3.875672e-05
7.880000e-01 -3.645720e-05
7.890000e-01 -3.395816e-05
7.900000e-01 -3.130077e-05
7.910001e-01 -2.852960e-05
7.920001e-01 -2.568447e-05
7.930000e-01 -2.279753e-05
7.940000e-01 -1.989647e-05
7.950000e-01 -1.700922e-05
7.960001e-01 -1.416479e-05
7.970001e-01 -1.138975e-05
7.980000e-01 -8.704921e-06
7.990000e-01 -6.126961e-06
8.000000e-01 -3.674870e-06
8.010001e-01 -1.375854e-06
8.020000e-01 7.356484e-07
8.030000e-01 2.626594e-06
8.040000e-01 4.275426e-06
8.050001e-01 5.675129e-06
8.060001e-01 6.825906e-06
8.070000e-01 7.722826e-06
8.080000e-01 8.348721e-06
8.090000e-01 8.679065e-06
8.100001e-01 8.695902e-06
8.110000e-01 8.399939e-06
8.120000e-01 7.810570e-06
8.130000e-01 6.952840e-06
8.140000e-01 5.841014e-06
8.150001e-01 4.471708e-06
8.160000e-01 2.832375e-06
8.170000e-01 9.190026e-07
8.180000e-01 -1.250483e-06
8.190001e-01 -3.637199e-06
8.200001e-01 -6.195386e-06
8.210000e-01 -8.888081e-06
8.220000e-01 -1.169206e-05
8.230000e-01 -1.458879e-05
8.240001e-01 -1.754952e-05
8.250000e-01 -2.052721e-05
8.260000e-01 -2.346195e-05
8.270000e-01 -2.629562e-05
8.280001e-01 -2.898435e-05
8.290001e-01 -3.149990e-05
8.300000e-01 -3.382067e-05
8.310000e-01 -3.592101e-05
8.320000e-01 -3.776818e-05
8.330001e-01 -3.932842e-05
8.340001e-01 -4.057595e-05
8.350000e-01 -4.149646e-05
8.360000e-01 -4.208287e-05
8.370000e-01 -4.232815e-05
8.380001e-01 -4.222312e-05
8.390000e-01 -4.176168e-05
8.400000e-01 -4.094861e-05
8.410000e-01 -3.980225e-05
8.420001e-01 -3.834894e-05
8.430001e-01 -3.661387e-05
8.440000e-01 -3.461729e-05
8.450000e-01 -3.238005e-05
8.460000e-01 -2.993379e-05
8.470001e-01 -2.732540e-05
8.480000e-01 -2.460943e-05
8.490000e-01 -2.183262e-05
8.500000e-01 -1.902255e-05
8.510001e-01 -1.619064e-05
8.520001e-01 -1.334806e-05
8.530000e-01 -1.052216e-05
8.540000e-01 -7.759191e-06
8.550000e-01 -5.110428e-06
8.560001e-01 -2.612258e-06
8.570001e-01 -2.769605e-07
8.580000e-01 1.897712e-06
8.590000e-01 3.907582e-06
8.600000e-01 5.727205e-06
8.610001e-01 7.314104e-06
8.620000e-01 8.629399e-06
8.630000e-01 9.658215e-06
8.640000e-01 1.041306e-05
8.650001e-01 1.091721e-05
8.660001e-01 1.118164e-05
8.670000e-01 1.119446e-05
8.680000e-01 1.093097e-05
8.690000e-01 1.037548e-05
8.700001e-01 9.535981e-06
8.710001e-01 8.439607e-06
8.720000e-01 7.113256e-06
8.730000e-01 5.566472e-06
8.740000e-01 3.791585e-06
8.750001e-01 1.780992e-06
8.760000e-01 -4.533067e-07
8.770000e-01 -2.874510e-06
8.780000e-01 -5.434128e-06
8.790001e-01 -8.091545e-06
