-1.200000e-01 0.000000e+00
-1.190000e-01 0.000000e+00
-1.180000e-01 0.000000e+00
-1.170000e-01 0.000000e+00
-1.160000e-01 0.000000e+00
-1.150000e-01 0.000000e+00
-1.140000e-01 0.000000e+00
-1.130000e-01 0.000000e+00
-1.120000e-01 0.000000e+00
-1.110000e-01 0.000000e+00
-1.100000e-01 0.000000e+00
-1.090000e-01 0.000000e+00
-1.080000e-01 0.000000e+00
-1.070000e-01 0.000000e+00
-1.060000e-01 0.000000e+00
-1.050000e-01 0.000000e+00
-1.040000e-01 0.000000e+00
-1.030000e-01 0.000000e+00
-1.020000e-01 0.000000e+00
-1.010000e-01 0.000000e+00
-1.000000e-01 0.000000e+00
-9.900001e-02 1.401298e-45
-9.800000e-02 9.809089e-45
-9.700000e-02 6.586103e-44
-9.600000e-02 2.998779e-43
-9.500001e-02 8.660025e-43
-9.400000e-02 8.688050e-43
-9.300000e-02 -6.050807e-42
-9.200001e-02 -3.781124e-41
-9.100001e-02 -1.123253e-40
-9.000000e-02 -1.568908e-40
-8.900000e-02 2.200011e-40
-8.800000e-02 1.939417e-39
-8.700000e-02 5.712612e-39
-8.600000e-02 8.433991e-39
-8.500001e-02 -3.406425e-39
-8.400001e-02 -5.657148e-38
-8.300000e-02 -1.688018e-37
-8.200000e-02 -2.625202e-37
-8.100000e-02 -4.284438e-38
-8.000000e-02 1.063909e-36
-7.900000e-02 3.354678e-36
-7.800000e-02 5.509320e-36
-7.700001e-02 2.637688e-36
-7.600001e-02 -1.349373e-35
-7.500000e-02 -4.822237e-35
-7.400000e-02 -8.662496e-35
-7.300000e-02 -6.911625e-35
-7.200000e-02 1.119139e-34
-7.100000e-02 5.433960e-34
-7.000001e-02 1.097711e-33
-6.900001e-02 1.172567e-33
-6.800000e-02 -4.069392e-34
-6.700000e-02 -4.792733e-33
-6.600000e-02 -1.141192e-32
-6.500000e-02 -1.512678e-32
-6.400000e-02 -4.650885e-33
-6.300000e-02 3.347123e-32
-6.200000e-02 9.894547e-32
-6.100000e-02 1.509642e-31
-6.000000e-02 9.200595e-32
-5.900000e-02 -2.010629e-31
-5.800000e-02 -7.380460e-31
-5.700000e-02 -1.228560e-30
-5.600000e-02 -9.669396e-31
-5.500000e-02 9.134557e-31
-5.400001e-02 4.591444e-30
-5.300000e-02 8.319627e-30
-5.200000e-02 7.662060e-30
-5.100000e-02 -2.934032e-30
-5.000000e-02 -2.469842e-29
-4.900000e-02 -4.786825e-29
-4.800000e-02 -4.816740e-29
-4.700000e-02 3.986780e-30
-4.600000e-02 1.161737e-28
-4.500000e-02 2.396041e-28
-4.400000e-02 2.559696e-28
-4.300000e-02 2.638168e-29
-4.200000e-02 -4.802802e-28
-4.100000e-02 -1.038743e-27
-4.000000e-02 -1.135416e-27
-3.900000e-02 -2.280964e-28
-3.800000e-02 1.759410e-27
-3.700000e-02 3.918782e-27
-3.600000e-02 4.369131e-27
-3.500000e-02 1.192620e-27
-3.400000e-02 -5.692666e-27
-3.300000e-02 -1.304055e-26
-3.200000e-02 -1.451606e-26
-3.100000e-02 -4.195453e-27
-3.000000e-02 1.714387e-26
-2.900000e-02 3.829044e-26
-2.800000e-02 4.111319e-26
-2.700000e-02 1.196561e-26
-2.600000e-02 -4.370398e-26
-2.500000e-02 -9.383530e-26
-2.400000e-02 -9.405796e-26
-2.300000e-02 -2.006011e-26
-2.200000e-02 9.896347e-26
-2.100000e-02 1.818534e-25
-2.000000e-02 1.437495e-25
-1.900000e-02 -2.326368e-26
-1.800000e-02 -2.079582e-25
-1.700000e-02 -2.236520e-25
-1.600000e-02 2.340711e-26
-1.500000e-02 3.753206e-25
-1.400000e-02 4.402208e-25
-1.300000e-02 -1.429206e-25
-1.200000e-02 -1.258147e-24
-1.100000e-02 -2.026326e-24
-9.999998e-03 -1.200717e-24
-8.999996e-03 1.835471e-24
-8.000001e-03 5.914446e-24
-6.999999e-03 7.835475e-24
-5.999997e-03 4.101767e-24
-5.000003e-03 -6.079461e-24
-4.000001e-03 -1.833969e-23
-2.999999e-03 -2.382344e-23
-1.999997e-03 -1.384958e-23
-1.000002e-03 1.249966e-23
0.000000e+00 4.380954e-23
1.000002e-03 5.940852e-23
2.000004e-03 4.111197e-23
2.999999e-03 -1.154065e-23
4.000001e-03 -7.566722e-23
4.999995e-03 -1.133195e-22
5.999997e-03 -9.481254e-23
6.999999e-03 -2.088324e-23
8.000001e-03 7.300706e-23
9.000003e-03 1.391072e-22
1.000001e-02 1.515219e-22
1.100001e-02 1.228830e-22
1.199999e-02 8.234908e-23
1.300000e-02 3.428866e-23
1.400000e-02 -6.535191e-23
1.500000e-02 -2.685739e-22
1.600000e-02 -5.517977e-22
1.700000e-02 -7.310191e-22
1.800001e-02 -5.179155e-22
1.900001e-02 2.674121e-22
2.000000e-02 1.418222e-21
2.100000e-02 2.277657e-21
2.200000e-02 2.044434e-21
2.300000e-02 3.337028e-22
2.400000e-02 -2.296629e-21
2.500001e-02 -4.379580e-21
2.600001e-02 -4.355533e-21
2.700000e-02 -1.747847e-21
2.800000e-02 2.159660e-21
2.900000e-02 4.945455e-21
3.000000e-02 4.830972e-21
3.100000e-02 2.331590e-21
3.200001e-02 1.825327e-22
3.300001e-02 9.985976e-22
3.400001e-02 4.064821e-21
3.500000e-02 4.314978e-21
3.600000e-02 -4.206441e-21
3.700000e-02 -2.167460e-20
3.800000e-02 -3.731366e-20
3.900000e-02 -3.267434e-20
4.000001e-02 5.164913e-21
4.100001e-02 6.741906e-20
4.200000e-02 1.170211e-19
4.300000e-02 1.055859e-19
4.400000e-02 8.321372e-21
4.500000e-02 -1.432704e-19
4.600000e-02 -2.597219e-19
4.700001e-02 -2.389811e-19
4.800001e-02 -4.139411e-20
4.900001e-02 2.538525e-19
5.000000e-02 4.665304e-19
5.100000e-02 4.177049e-19
5.200000e-02 6.894814e-20
5.300000e-02 -4.041467e-19
5.400001e-02 -6.842940e-19
5.500001e-02 -5.203380e-19
5.600001e-02 5.495230e-20
5.700000e-02 6.702334e-19
5.800000e-02 8.219550e-19
5.900000e-02 2.637584e-19
6.000000e-02 -7.036166e-19
6.100000e-02 -1.308379e-18
6.200001e-02 -8.222870e-19
6.300001e-02 7.789137e-19
6.400001e-02 2.523262e-18
6.500000e-02 2.880112e-18
6.600000e-02 8.534643e-19
6.700000e-02 -2.956494e-18
6.800000e-02 -6.238919e-18
6.900001e-02 -6.159095e-18
7.000001e-02 -1.433004e-18
7.100001e-02 6.128449e-18
7.200000e-02 1.197989e-17
7.300000e-02 1.137168e-17
7.400000e-02 2.852393e-18
7.500000e-02 -9.719870e-18
7.600001e-02 -1.859099e-17
7.700001e-02 -1.683122e-17
7.800001e-02 -3.624813e-18
7.900001e-02 1.379325e-17
8.000000e-02 2.379177e-17
8.100000e-02 1.807508e-17
8.200000e-02 -1.328614e-18
8.300000e-02 -2.159119e-17
8.400001e-02 -2.676979e-17
8.500001e-02 -9.734609e-18
8.600001e-02 2.016663e-17
8.700001e-02 4.060286e-17
8.800000e-02 3.099531e-17
8.900000e-02 -1.021169e-17
9.000000e-02 -5.920040e-17
9.100001e-02 -7.856615e-17
9.200001e-02 -4.296314e-17
9.300001e-02 3.793666e-17
9.400001e-02 1.171497e-16
9.500000e-02 1.361096e-16
9.600000e-02 6.527621e-17
9.700000e-02 -6.742466e-17
9.800000e-02 -1.836790e-16
9.900001e-02 -1.998921e-16
1.000000e-01 -8.591308e-17
1.010000e-01 1.031789e-16
1.020000e-01 2.506027e-16
1.030000e-01 2.498151e-16
1.040000e-01 8.196200e-17
1.050000e-01 -1.586861e-16
1.060000e-01 -3.140664e-16
1.070000e-01 -2.672323e-16
1.080000e-01 -3.038074e-17
1.090000e-01 2.448551e-16
1.100000e-01 3.608692e-16
1.110000e-01 2.129671e-16
1.120000e-01 -1.188265e-16
1.130000e-01 -4.010598e-16
1.140000e-01 -3.990672e-16
1.150000e-01 -5.434775e-17
1.160000e-01 4.377277e-16
1.170000e-01 7.251604e-16
1.180000e-01 5.315613e-16
1.190000e-01 -1.256297e-16
1.200000e-01 -8.865218e-16
1.210000e-01 -1.241881e-15
1.220000e-01 -8.636620e-16
1.230000e-01 1.357706e-16
1.240000e-01 1.208495e-15
1.250000e-01 1.681502e-15
1.260000e-01 1.191121e-15
1.270000e-01 -3.703270e-17
1.280000e-01 -1.271810e-15
1.290000e-01 -1.717597e-15
1.300000e-01 -1.034688e-15
1.310000e-01 3.904101e-16
1.320000e-01 1.639785e-15
1.330000e-01 1.837468e-15
1.340000e-01 7.507810e-16
1.350000e-01 -1.013523e-15
1.360000e-01 -2.365892e-15
1.370000e-01 -2.436099e-15
1.380000e-01 -1.179991e-15
1.390000e-01 5.776794e-16
1.400000e-01 1.670426e-15
1.410000e-01 1.450325e-15
1.420000e-01 2.924438e-16
1.430000e-01 -6.252527e-16
1.440000e-01 -2.007403e-16
1.450000e-01 1.701968e-15
1.460000e-01 3.991444e-15
1.470000e-01 5.008029e-15
1.480000e-01 3.707537e-15
1.490000e-01 4.996963e-16
1.500000e-01 -3.064889e-15
1.510000e-01 -5.460340e-15
1.520000e-01 -6.435876e-15
1.530000e-01 -7.131048e-15
1.540000e-01 -8.768858e-15
1.550000e-01 -1.097976e-14
1.560000e-01 -1.118264e-14
1.570000e-01 -6.211613e-15
1.580000e-01 4.706853e-15
1.590000e-01 1.777109e-14
1.600000e-01 2.589741e-14
1.610000e-01 2.346266e-14
1.620000e-01 1.159007e-14
1.630000e-01 1.837172e-16
1.640000e-01 2.326612e-15
1.650000e-01 2.392447e-14
1.660000e-01 5.485069e-14
1.670000e-01 7.225591e-14
1.680000e-01 5.547013e-14
1.690000e-01 5.962705e-15
1.700000e-01 -4.580528e-14
1.710000e-01 -5.151430e-14
1.720000e-01 2.093562e-14
1.730000e-01 1.593374e-13
1.740000e-01 3.081096e-13
1.750000e-01 3.990184e-13
1.760000e-01 4.053822e-13
1.770000e-01 3.785157e-13
1.780000e-01 4.114411e-13
1.790000e-01 5.766094e-13
1.800000e-01 8.661086e-13
1.810000e-01 1.184317e-12
1.820000e-01 1.407130e-12
1.830000e-01 1.454070e-12
1.840000e-01 1.381654e-12
1.850000e-01 1.350831e-12
1.860000e-01 1.538831e-12
1.870000e-01 2.074054e-12
1.880000e-01 2.878735e-12
1.890000e-01 3.721394e-12
1.900000e-01 4.451929e-12
1.910000e-01 4.851517e-12
1.920000e-01 4.911117e-12
1.930000e-01 5.137094e-12
1.940000e-01 6.035815e-12
1.950000e-01 7.936417e-12
1.960000e-01 1.056763e-11
1.970000e-01 1.340139e-11
1.980000e-01 1.547561e-11
1.990000e-01 1.655156e-11
2.000000e-01 1.730922e-11
2.010000e-01 1.874686e-11
2.020000e-01 2.157339e-11
2.030000e-01 2.541265e-11
2.040000e-01 2.957020e-11
2.050000e-01 3.343839e-11
2.060000e-01 3.742233e-11
2.070000e-01 4.317132e-11
2.080000e-01 5.083002e-11
2.090000e-01 6.045633e-11
2.100000e-01 7.118216e-11
2.110000e-01 7.941958e-11
2.120000e-01 8.464773e-11
2.130000e-01 9.080180e-11
2.140000e-01 9.892347e-11
2.150000e-01 1.082026e-10
2.160000e-01 1.201437e-10
2.170000e-01 1.316218e-10
2.180000e-01 1.479611e-10
2.190000e-01 1.610596e-10
2.200000e-01 1.739267e-10
2.210000e-01 1.842474e-10
2.220000e-01 1.857718e-10
2.230000e-01 1.882222e-10
2.240000e-01 1.953022e-10
2.250000e-01 2.171970e-10
2.260000e-01 2.608511e-10
2.270000e-01 3.276534e-10
2.280000e-01 3.805667e-10
2.290000e-01 3.844060e-10
2.300000e-01 3.225045e-10
2.310000e-01 2.096770e-10
2.320000e-01 1.496274e-10
2.330000e-01 2.071704e-10
2.340000e-01 3.748986e-10
2.350000e-01 5.518861e-10
2.360000e-01 5.547994e-10
2.370000e-01 3.743794e-10
2.380000e-01 1.717371e-10
2.390000e-01 1.524282e-10
2.400000e-01 3.757120e-10
2.410000e-01 6.101069e-10
2.420000e-01 6.241314e-10
2.430000e-01 3.251927e-10
2.440000e-01 -1.163386e-10
2.450000e-01 -3.486105e-10
2.460000e-01 -2.142156e-10
2.470000e-01 1.535127e-10
2.480000e-01 4.286484e-10
2.490000e-01 3.741542e-10
2.500000e-01 2.122527e-10
2.510000e-01 1.207215e-10
2.520000e-01 2.958571e-10
2.530000e-01 6.784002e-10
2.540000e-01 9.905730e-10
2.550000e-01 9.471900e-10
2.560000e-01 5.519549e-10
2.570000e-01 1.307940e-10
2.580000e-01 -4.221876e-11
2.590000e-01 1.884724e-10
2.600000e-01 5.358303e-10
2.610000e-01 5.720769e-10
2.620000e-01 3.916568e-10
2.630000e-01 1.816070e-10
2.640000e-01 2.956315e-10
2.650000e-01 9.874339e-10
2.660000e-01 2.010718e-09
2.670000e-01 2.683539e-09
2.680000e-01 2.684369e-09
2.690000e-01 2.171078e-09
2.700000e-01 1.858714e-09
2.710000e-01 2.640794e-09
2.720000e-01 4.396949e-09
2.730000e-01 6.256808e-09
2.740000e-01 7.205554e-09
2.750000e-01 6.965412e-09
2.760000e-01 6.458603e-09
2.770000e-01 6.588832e-09
2.780000e-01 7.652393e-09
2.790000e-01 9.123363e-09
2.800000e-01 1.009063e-08
2.810000e-01 1.002086e-08
2.820000e-01 9.217752e-09
2.830000e-01 8.407239e-09
2.840000e-01 8.270801e-09
2.850000e-01 9.215845e-09
2.860000e-01 1.055348e-08
2.870000e-01 1.143186e-08
2.880000e-01 1.129542e-08
2.890000e-01 1.038120e-08
2.900000e-01 9.444766e-09
2.910000e-01 9.056476e-09
2.920000e-01 9.297815e-09
2.930000e-01 9.553969e-09
2.940000e-01 9.121234e-09
2.950000e-01 7.414425e-09
2.960000e-01 4.603911e-09
2.970000e-01 1.637842e-09
2.980000e-01 -7.134116e-10
2.990000e-01 -2.094295e-09
3.000000e-01 -2.993696e-09
3.010000e-01 -4.048653e-09
3.020000e-01 -5.836943e-09
3.030000e-01 -8.477086e-09
3.040000e-01 -1.135056e-08
3.050000e-01 -1.379441e-08
3.060000e-01 -1.549011e-08
3.070000e-01 -1.678025e-08
3.080000e-01 -1.903335e-08
3.090000e-01 -2.255868e-08
3.100000e-01 -2.655175e-08
3.110000e-01 -3.038463e-08
3.120000e-01 -3.360084e-08
3.130000e-01 -3.623002e-08
3.140000e-01 -3.914438e-08
3.150000e-01 -4.231800e-08
3.160000e-01 -4.517681e-08
3.170000e-01 -4.676895e-08
3.180000e-01 -4.684257e-08
3.190000e-01 -4.593841e-08
3.200000e-01 -4.545647e-08
3.210000e-01 -4.666342e-08
3.220000e-01 -4.974445e-08
3.230000e-01 -5.317363e-08
3.240000e-01 -5.499539e-08
3.250000e-01 -5.417272e-08
3.260000e-01 -5.106856e-08
3.270000e-01 -4.733477e-08
3.280000e-01 -4.477135e-08
3.290000e-01 -4.385979e-08
3.300000e-01 -4.358526e-08
3.310000e-01 -4.225888e-08
3.320000e-01 -3.911027e-08
3.330000e-01 -3.473944e-08
3.340000e-01 -3.047973e-08
3.350000e-01 -2.747186e-08
3.360000e-01 -2.544918e-08
3.370000e-01 -2.333761e-08
3.380000e-01 -1.997419e-08
3.390000e-01 -1.527003e-08
3.400000e-01 -1.019180e-08
3.410000e-01 -5.880231e-09
3.420000e-01 -2.820515e-09
3.430000e-01 -3.533913e-10
3.440000e-01 2.658177e-09
3.450000e-01 6.951226e-09
3.460000e-01 1.243317e-08
3.470000e-01 1.846325e-08
3.480000e-01 2.431556e-08
3.490000e-01 2.975862e-08
3.500000e-01 3.483037e-08
3.510000e-01 3.954101e-08
3.520000e-01 4.353406e-08
3.530000e-01 4.636507e-08
3.540000e-01 4.802432e-08
3.550000e-01 4.919584e-08
3.560000e-01 5.084306e-08
3.570000e-01 5.369722e-08
3.580000e-01 5.776018e-08
3.590000e-01 6.225693e-08
3.600000e-01 6.635045e-08
3.610000e-01 6.959674e-08
3.620000e-01 7.211617e-08
3.630000e-01 7.414024e-08
3.640000e-01 7.565134e-08
3.650000e-01 7.629763e-08
3.660000e-01 7.590225e-08
3.670000e-01 7.478928e-08
3.680000e-01 7.393557e-08
3.690000e-01 7.426333e-08
3.700000e-01 7.597629e-08
3.710000e-01 7.831702e-08
3.720000e-01 7.999109e-08
3.730000e-01 8.020960e-08
3.740000e-01 7.918830e-08
3.750000e-01 7.794847e-08
3.760000e-01 7.730309e-08
3.770000e-01 7.702808e-08
3.780000e-01 7.596141e-08
3.790000e-01 7.301048e-08
3.800000e-01 6.815491e-08
3.810000e-01 6.269934e-08
3.820000e-01 5.840350e-08
3.830000e-01 5.619979e-08
3.840000e-01 5.546784e-08
3.850000e-01 5.449283e-08
3.860000e-01 5.176782e-08
3.870000e-01 4.707337e-08
3.880000e-01 4.161826e-08
3.890000e-01 3.698492e-08
3.900000e-01 3.389278e-08
3.910000e-01 3.164972e-08
3.920000e-01 2.873999e-08
3.930000e-01 2.402794e-08
3.940000e-01 1.755015e-08
3.950000e-01 1.044042e-08
3.960000e-01 3.986240e-09
3.970000e-01 -1.226965e-09
3.980000e-01 -5.518179e-09
3.990000e-01 -9.545735e-09
4.000000e-01 -1.357283e-08
4.010000e-01 -1.726589e-08
4.020000e-01 -2.007285e-08
4.030000e-01 -2.189438e-08
4.040000e-01 -2.333675e-08
4.050000e-01 -2.536755e-08
4.060000e-01 -2.862335e-08
4.070000e-01 -3.300901e-08
4.080000e-01 -3.785277e-08
4.090000e-01 -4.242639e-08
4.100000e-01 -4.636784e-08
4.110000e-01 -4.965454e-08
4.120000e-01 -5.226740e-08
4.130000e-01 -5.391578e-08
4.140000e-01 -5.415850e-08
4.150000e-01 -5.286001e-08
4.160000e-01 -5.057518e-08
4.170000e-01 -4.840181e-08
4.180000e-01 -4.740344e-08
4.190000e-01 -4.795113e-08
4.200000e-01 -4.948100e-08
4.210000e-01 -5.087869e-08
4.220001e-01 -5.119919e-08
4.230000e-01 -5.020614e-08
4.240000e-01 -4.839434e-08
4.250000e-01 -4.653173e-08
4.260000e-01 -4.513533e-08
4.270000e-01 -4.417376e-08
4.280000e-01 -4.317267e-08
4.290000e-01 -4.152210e-08
4.300000e-01 -3.880394e-08
4.310000e-01 -3.498629e-08
4.320000e-01 -3.044469e-08
4.330000e-01 -2.586460e-08
4.340000e-01 -2.200425e-08
4.350000e-01 -1.935368e-08
4.360000e-01 -1.785143e-08
4.370000e-01 -1.683772e-08
4.380000e-01 -1.540428e-08
4.390000e-01 -1.293884e-08
4.400000e-01 -9.545762e-09
4.410000e-01 -5.964055e-09
4.420000e-01 -3.001446e-09
4.430000e-01 -8.740524e-10
4.440000e-01 9.719759e-10
4.450000e-01 3.384917e-09
4.460000e-01 6.730266e-09
4.470000e-01 1.045174e-08
4.480000e-01 1.339868e-08
4.490000e-01 1.473370e-08
4.500000e-01 1.468400e-08
4.510000e-01 1.448857e-08
4.520000e-01 1.549199e-08
4.530000e-01 1.808210e-08
4.540000e-01 2.132291e-08
4.550000e-01 2.362853e-08
4.560000e-01 2.396285e-08
4.570000e-01 2.263352e-08
4.580000e-01 2.104353e-08
4.590001e-01 2.060216e-08
4.600000e-01 2.168602e-08
4.610000e-01 2.345877e-08
4.620000e-01 2.467643e-08
4.630000e-01 2.470936e-08
4.640000e-01 2.395526e-08
4.650000e-01 2.329421e-08
4.660000e-01 2.311696e-08
4.670000e-01 2.290822e-08
4.680000e-01 2.177773e-08
4.690000e-01 1.947687e-08
4.700000e-01 1.696860e-08
4.710000e-01 1.590199e-08
4.720000e-01 1.732520e-08
4.730000e-01 2.065953e-08
4.740000e-01 2.388089e-08
4.750000e-01 2.484484e-08
4.760000e-01 2.283287e-08
4.770000e-01 1.905422e-08
4.780000e-01 1.575058e-08
4.790000e-01 1.452750e-08
4.800000e-01 1.522941e-08
4.810000e-01 1.629429e-08
4.820001e-01 1.609065e-08
4.830000e-01 1.431294e-08
4.840000e-01 1.218522e-08
4.850000e-01 1.138343e-08
4.860000e-01 1.257979e-08
4.870000e-01 1.488726e-08
4.880000e-01 1.647807e-08
4.890000e-01 1.602998e-08
4.900000e-01 1.372264e-08
4.910000e-01 1.102455e-08
4.920000e-01 9.554246e-09
4.930000e-01 9.917273e-09
4.940000e-01 1.128771e-08
4.950000e-01 1.213036e-08
4.960001e-01 1.134154e-08
4.970000e-01 8.965675e-09
4.980000e-01 6.007404e-09
4.990000e-01 3.638023e-09
5.000000e-01 2.435308e-09
5.010000e-01 2.093705e-09
5.020000e-01 1.807657e-09
5.030000e-01 8.799425e-10
5.040000e-01 -9.024021e-10
5.050000e-01 -3.312988e-09
5.060000e-01 -6.030981e-09
5.070000e-01 -9.004993e-09
5.080000e-01 -1.251164e-08
5.090000e-01 -1.688809e-08
5.100001e-01 -2.222587e-08
5.110000e-01 -2.830394e-08
5.120000e-01 -3.461487e-08
5.130000e-01 -4.061145e-08
5.140000e-01 -4.602748e-08
5.150000e-01 -5.100462e-08
5.160000e-01 -5.611416e-08
5.170000e-01 -6.204778e-08
5.180000e-01 -6.920270e-08
5.190001e-01 -7.745206e-08
5.200000e-01 -8.624216e-08
5.210000e-01 -9.497856e-08
5.220000e-01 -1.034557e-07
5.230000e-01 -1.118217e-07
5.240000e-01 -1.203378e-07
5.250000e-01 -1.288205e-07
5.260000e-01 -1.366180e-07
5.270000e-01 -1.429451e-07
5.280000e-01 -1.475574e-07
5.290000e-01 -1.511512e-07
5.300000e-01 -1.550080e-07
5.310000e-01 -1.600073e-07
5.320000e-01 -1.659567e-07
5.330001e-01 -1.715412e-07
5.340000e-01 -1.754128e-07
5.350000e-01 -1.772344e-07
5.360000e-01 -1.779708e-07
5.370000e-01 -1.790757e-07
5.380000e-01 -1.811954e-07
5.390000e-01 -1.833559e-07
5.400000e-01 -1.835663e-07
5.410000e-01 -1.802824e-07
5.420001e-01 -1.737187e-07
5.430000e-01 -1.657885e-07
5.440000e-01 -1.587212e-07
5.450000e-01 -1.532835e-07
5.460000e-01 -1.482217e-07
5.470001e-01 -1.413618e-07
5.480000e-01 -1.314528e-07
5.490000e-01 -1.191281e-07
5.500000e-01 -1.063450e-07
5.510000e-01 -9.466474e-08
5.520000e-01 -8.385205e-08
5.530000e-01 -7.214121e-08
5.540000e-01 -5.786649e-08
5.550000e-01 -4.109685e-08
5.560001e-01 -2.374389e-08
5.570000e-01 -8.069623e-09
5.580000e-01 5.221537e-09
5.590000e-01 1.765911e-08
5.600000e-01 3.176642e-08
5.610000e-01 4.890041e-08
5.620000e-01 6.801073e-08
5.630000e-01 8.638622e-08
5.640000e-01 1.018156e-07
5.650001e-01 1.143742e-07
5.660000e-01 1.262444e-07
5.670000e-01 1.397780e-07
5.680000e-01 1.553942e-07
5.690000e-01 1.711007e-07
5.700001e-01 1.840975e-07
5.710000e-01 1.930697e-07
5.720000e-01 1.992183e-07
5.730000e-01 2.052244e-07
5.740000e-01 2.128915e-07
5.750000e-01 2.216985e-07
5.760000e-01 2.293290e-07
5.770000e-01 2.337277e-07
5.780000e-01 2.348837e-07
5.790001e-01 2.347300e-07
5.800000e-01 2.353226e-07
5.810000e-01 2.368560e-07
5.820000e-01 2.374088e-07
5.830000e-01 2.346231e-07
5.840001e-01 2.278852e-07
5.850000e-01 2.189856e-07
5.860000e-01 2.107250e-07
5.870000e-01 2.045366e-07
5.880000e-01 1.992887e-07
5.890000e-01 1.923470e-07
5.900000e-01 1.820405e-07
5.910000e-01 1.693644e-07
5.920000e-01 1.573785e-07
5.930001e-01 1.487257e-07
5.940000e-01 1.433368e-07
5.950000e-01 1.383197e-07
5.960000e-01 1.302480e-07
5.970000e-01 1.179364e-07
5.980000e-01 1.033769e-07
5.990000e-01 9.009938e-08
6.000000e-01 8.031513e-08
6.010000e-01 7.331190e-08
6.020001e-01 6.636723e-08
6.030000e-01 5.732904e-08
6.040000e-01 4.658843e-08
6.050000e-01 3.669781e-08
6.060000e-01 3.002849e-08
6.070001e-01 2.656149e-08
6.080000e-01 2.374704e-08
6.090000e-01 1.861117e-08
6.100000e-01 1.027530e-08
6.110000e-01 7.076011e-10
6.120000e-01 -6.930003e-09
6.130000e-01 -1.089805e-08
6.140000e-01 -1.217014e-08
6.150000e-01 -1.334570e-08
6.160001e-01 -1.621293e-08
6.170000e-01 -2.014706e-08
6.180000e-01 -2.275874e-08
6.190000e-01 -2.219495e-08
6.200000e-01 -1.898347e-08
6.210001e-01 -1.577044e-08
6.220000e-01 -1.511614e-08
6.230000e-01 -1.733157e-08
6.240000e-01 -2.025129e-08
6.250001e-01 -2.116800e-08
6.260000e-01 -1.918986e-08
6.270000e-01 -1.594442e-08
6.280000e-01 -1.400916e-08
6.290000e-01 -1.451696e-08
6.300001e-01 -1.609426e-08
6.310000e-01 -1.612439e-08
6.320000e-01 -1.318780e-08
6.330000e-01 -8.469440e-09
6.340000e-01 -4.820698e-09
6.350001e-01 -4.277859e-09
6.360000e-01 -6.287279e-09
6.370000e-01 -8.262671e-09
6.380000e-01 -8.039160e-09
6.390001e-01 -5.990939e-09
6.400000e-01 -4.844107e-09
6.410000e-01 -7.231450e-09
6.420000e-01 -1.313153e-08
6.430000e-01 -1.957130e-08
6.440001e-01 -2.302383e-08
6.450000e-01 -2.254182e-08
6.460000e-01 -2.086964e-08
6.470000e-01 -2.243256e-08
6.480000e-01 -2.977549e-08
6.490000e-01 -4.143989e-08
6.500000e-01 -5.312755e-08
6.510000e-01 -6.118364e-08
6.520000e-01 -6.546890e-08
6.530001e-01 -6.919764e-08
6.540000e-01 -7.592922e-08
6.550000e-01 -8.637667e-08
6.560000e-01 -9.783840e-08
6.570000e-01 -1.067380e-07
6.580001e-01 -1.119992e-07
6.590000e-01 -1.161955e-07
6.600000e-01 -1.233937e-07
6.610000e-01 -1.355168e-07
6.620001e-01 -1.504662e-07
6.630000e-01 -1.637489e-07
6.640000e-01 -1.722788e-07
6.650000e-01 -1.770433e-07
6.660000e-01 -1.822240e-07
6.670001e-01 -1.914355e-07
6.680000e-01 -2.042980e-07
6.690000e-01 -2.163900e-07
6.700000e-01 -2.227556e-07
6.710000e-01 -2.220390e-07
6.720001e-01 -2.176968e-07
6.730000e-01 -2.151811e-07
6.740000e-01 -2.174181e-07
6.750000e-01 -2.224159e-07
6.760001e-01 -2.250305e-07
6.770000e-01 -2.213896e-07
6.780000e-01 -2.121880e-07
6.790000e-01 -2.020353e-07
6.800000e-01 -1.954490e-07
6.810001e-01 -1.929636e-07
6.820000e-01 -1.907243e-07
6.830000e-01 -1.838965e-07
6.840000e-01 -1.709108e-07
6.850001e-01 -1.548297e-07
6.860000e-01 -1.406376e-07
6.870000e-01 -1.308189e-07
6.880000e-01 -1.231019e-07
6.890000e-01 -1.123903e-07
6.900001e-01 -9.525611e-08
6.910000e-01 -7.311969e-08
6.920000e-01 -5.132993e-08
6.930000e-01 -3.486086e-08
6.940000e-01 -2.428048e-08
6.950001e-01 -1.541657e-08
6.960000e-01 -2.982486e-09
6.970000e-01 1.493715e-08
6.980000e-01 3.535621e-08
6.990001e-01 5.304183e-08
7.000000e-01 6.499040e-08
7.010000e-01 7.284001e-08
7.020000e-01 8.119703e-08
7.030000e-01 9.341445e-08
7.040001e-01 1.085641e-07
7.050000e-01 1.222365e-07
7.060000e-01 1.304363e-07
7.070000e-01 1.331288e-07
7.080001e-01 1.343098e-07
7.090001e-01 1.385366e-07
7.100000e-01 1.469569e-07
7.110000e-01 1.563009e-07
7.120000e-01 1.617228e-07
7.130001e-01 1.609997e-07
7.140000e-01 1.564374e-07
7.150000e-01 1.528404e-07
7.160000e-01 1.533414e-07
7.170000e-01 1.567338e-07
7.180001e-01 1.586060e-07
7.190000e-01 1.552593e-07
7.200000e-01 1.469560e-07
7.210000e-01 1.376810e-07
7.220001e-01 1.316597e-07
7.230000e-01 1.297213e-07
7.240000e-01 1.286942e-07
7.250000e-01 1.243356e-07
7.260000e-01 1.151679e-07
7.270001e-01 1.038294e-07
7.280000e-01 9.474149e-08
7.290000e-01 9.017197e-08
7.300000e-01 8.820228e-08
7.310000e-01 8.441653e-08
7.320001e-01 7.585112e-08
7.330000e-01 6.371528e-08
7.340000e-01 5.245890e-08
7.350000e-01 4.596198e-08
7.360001e-01 4.417517e-08
7.370000e-01 4.316387e-08
7.380000e-01 3.854331e-08
7.390000e-01 2.930067e-08
7.400000e-01 1.865305e-08
7.410001e-01 1.118211e-08
7.420000e-01 8.756978e-09
7.430000e-01 8.852767e-09
7.440000e-01 6.782104e-09
7.450001e-01 -8.129808e-11
7.460001e-01 -9.803802e-09
7.470000e-01 -1.736688e-08
7.480000e-01 -1.891851e-08
7.490000e-01 -1.514539e-08
7.500001e-01 -1.082843e-08
7.510000e-01 -1.091788e-08
7.520000e-01 -1.648544e-08
7.530000e-01 -2.401515e-08
7.540000e-01 -2.861083e-08
7.550001e-01 -2.830075e-08
7.560000e-01 -2.567405e-08
7.570000e-01 -2.542582e-08
7.580000e-01 -2.998102e-08
7.590001e-01 -3.707752e-08
7.600001e-01 -4.150594e-08
7.610000e-01 -3.957527e-08
7.620000e-01 -3.244328e-08
7.630000e-01 -2.536139e-08
7.640001e-01 -2.338797e-08
7.650000e-01 -2.719862e-08
7.660000e-01 -3.259293e-08
7.670000e-01 -3.415066e-08
7.680001e-01 -2.992652e-08
7.690001e-01 -2.315141e-08
7.700000e-01 -1.945150e-08
7.710000e-01 -2.194729e-08
7.720000e-01 -2.843741e-08
7.730001e-01 -3.311832e-08
7.740000e-01 -3.141978e-08
7.750000e-01 -2.387118e-08
7.760000e-01 -1.570364e-08
7.770000e-01 -1.251337e-08
7.780001e-01 -1.564430e-08
7.790000e-01 -2.118405e-08
7.800000e-01 -2.338673e-08
7.810000e-01 -1.958749e-08
7.820001e-01 -1.241638e-08
7.830001e-01 -7.440781e-09
7.840000e-01 -8.260973e-09
7.850000e-01 -1.324181e-08
7.860000e-01 -1.669101e-08
7.870001e-01 -1.353694e-08
7.880000e-01 -3.613155e-09
7.890000e-01 8.010567e-09
7.900000e-01 1.492373e-08
7.910001e-01 1.429069e-08
7.920001e-01 8.811472e-09
7.930000e-01 4.280594e-09
7.940000e-01 4.918573e-09
7.950000e-01 1.035297e-08
7.960001e-01 1.657378e-08
7.970001e-01 1.977775e-08
7.980000e-01 1.967577e-08
7.990000e-01 1.947671e-08
8.000000e-01 2.272293e-08
8.010001e-01 2.984573e-08
8.020000e-01 3.748110e-08
8.030000e-01 4.114201e-08
8.040000e-01 3.895741e-08
8.050001e-01 3.330607e-08
8.060001e-01 2.898383e-08
8.070000e-01 2.947198e-08
8.080000e-01 3.439515e-08
8.090000e-01 4.016802e-08
8.100001e-01 4.312400e-08
8.110000e-01 4.241293e-08
8.120000e-01 4.030379e-08
8.130000e-01 3.983896e-08
8.140000e-01 4.201419e-08
8.150001e-01 4.495383e-08
8.160000e-01 4.571626e-08
8.170000e-01 4.306011e-08
8.180000e-01 3.871464e-08
8.190001e-01 3.604133e-08
8.200001e-01 3.723837e-08
8.210000e-01 4.148016e-08
8.220000e-01 4.556034e-08
8.230000e-01 4.647442e-08
8.240001e-01 4.378042e-08
8.250000e-01 3.981950e-08
8.260000e-01 3.771617e-08
8.270000e-01 3.890056e-08
8.280001e-01 4.218989e-08
8.290001e-01 4.506538e-08
8.300000e-01 4.591201e-08
8.310000e-01 4.527124e-08
8.320000e-01 4.510971e-08
8.330001e-01 4.685102e-08
8.340001e-01 4.995037e-08
8.350000e-01 5.225567e-08
8.360000e-01 5.182153e-08
8.370000e-01 4.860352e-08
8.380001e-01 4.459057e-08
8.390000e-01 4.227741e-08
8.400000e-01 4.275804e-08
8.410000e-01 4.498200e-08
8.420001e-01 4.669293e-08
8.430001e-01 4.618223e-08
8.440000e-01 4.340463e-08
8.450000e-01 3.964934e-08
8.460000e-01 3.621489e-08
8.470001e-01 3.330557e-08
8.480000e-01 3.004091e-08
8.490000e-01 2.541924e-08
8.500000e-01 1.926678e-08
8.510001e-01 1.231351e-08
8.520001e-01 5.412704e-09
8.530000e-01 -1.278142e-09
8.540000e-01 -8.334712e-09
8.550000e-01 -1.628465e-08
8.560001e-01 -2.479181e-08
8.570001e-01 -3.267550e-08
8.580000e-01 -3.887682e-08
8.590000e-01 -4.356626e-08
8.600000e-01 -4.834048e-08
8.610001e-01 -5.516485e-08
8.620000e-01 -6.481009e-08
8.630000e-01 -7.604447e-08
8.640000e-01 -8.631169e-08
8.650001e-01 -9.343562e-08
8.660001e-01 -9.704219e-08
8.670000e-01 -9.860468e-08
8.680000e-01 -1.001303e-07
8.690000e-01 -1.026071e-07
8.700001e-01 -1.054871e-07
8.710001e-01 -1.075651e-07
8.720000e-01 -1.083976e-07
8.730000e-01 -1.089367e-07
8.740000e-01 -1.107401e-07
8.750001e-01 -1.143966e-07
8.760000e-01 -1.185691e-07
8.770000e-01 -1.206225e-07
8.780000e-01 -1.184904e-07
8.790001e-01 -1.123352e-07
