 -0.12000000000000000          0.0000000000000000
 -0.11889999999999999          0.0000000000000000
 -0.11780000000000000          0.0000000000000000
 -0.11670000000000000          0.0000000000000000
 -0.11559999999999999          0.0000000000000000
 -0.11449999999999999          0.0000000000000000
 -0.11340000000000000          0.0000000000000000
 -0.11230000000000000          0.0000000000000000
 -0.11119999999999999          0.0000000000000000
 -0.11009999999999999         -1.0189707438054626E-024
 -0.10900000000000000          5.6043392388414639E-024
 -0.10790000000000000          2.8531180432122500E-023
 -0.10679999999999999         -8.7122006631887522E-023
 -0.10569999999999999         -2.3538223540956700E-022
 -0.10460000000000000         -9.0178918370265844E-023
 -0.10349999999999999          6.4195162914251590E-022
 -0.10239999999999999          5.9151264541270238E-022
 -0.10130000000000000          5.4107361119579093E-022
 -0.10020000000000000          4.6643389960415439E-021
  -9.9099999999999994E-002     6.7007518431898280E-021
  -9.7999999999999990E-002     6.6503124050761331E-021
  -9.6899999999999986E-002    -1.0094943699546261E-020
  -9.5799999999999996E-002    -3.9361311900153395E-020
  -9.4699999999999993E-002    -8.3235643674213682E-020
  -9.3599999999999989E-002    -6.0330715244587710E-020
  -9.2499999999999999E-002     1.4621720136339535E-019
  -9.1399999999999995E-002     4.5293406643804462E-019
  -9.0299999999999991E-002     6.4278726816150842E-019
  -8.9200000000000002E-002     4.6535444182946976E-019
  -8.8099999999999984E-002    -6.4698815660114726E-019
  -8.6999999999999994E-002    -1.9596684193205494E-018
  -8.5899999999999990E-002    -2.6713353272820782E-018
  -8.4799999999999986E-002    -1.4130138072032693E-018
  -8.3699999999999997E-002     1.8486858033294628E-018
  -8.2599999999999993E-002     6.1788538873139049E-018
  -8.1499999999999989E-002     9.1734363019355271E-018
  -8.0399999999999999E-002     6.8256776934670955E-018
  -7.9299999999999995E-002    -1.1315392374000765E-018
  -7.8199999999999992E-002    -1.0691459136938755E-017
  -7.7100000000000002E-002    -1.9717145265040673E-017
  -7.5999999999999984E-002    -2.1063216275848215E-017
  -7.4899999999999994E-002    -1.0121901444623530E-017
  -7.3799999999999991E-002     1.5777968912997796E-017
  -7.2699999999999987E-002     4.8622884089561294E-017
  -7.1599999999999997E-002     7.5324105517928067E-017
  -7.0499999999999993E-002     7.5313623485205795E-017
  -6.9399999999999989E-002     3.6838280130534724E-017
  -6.8300000000000000E-002    -5.0786606592265253E-017
  -6.7199999999999996E-002    -1.6405474412253178E-016
  -6.6099999999999992E-002    -2.5381657254852370E-016
  -6.5000000000000002E-002    -2.2390995676334249E-016
  -6.3899999999999985E-002    -4.8691642650799152E-017
  -6.2799999999999995E-002     2.3764737532992915E-016
  -6.1699999999999991E-002     5.1757556489235917E-016
  -6.0599999999999994E-002     6.3509656882400583E-016
  -5.9499999999999990E-002     4.2352933794003659E-016
  -5.8399999999999994E-002    -1.8123422665407410E-016
  -5.7299999999999990E-002    -9.7832210116665123E-016
  -5.6199999999999986E-002    -1.6300982839693111E-015
  -5.5099999999999996E-002    -1.6878061092701546E-015
  -5.3999999999999992E-002    -8.5654830362551834E-016
  -5.2899999999999989E-002     7.7819770306493635E-016
  -5.1799999999999985E-002     2.6266375227325606E-015
  -5.0699999999999995E-002     3.6373979152846177E-015
  -4.9599999999999991E-002     2.8018452290809286E-015
  -4.8499999999999988E-002    -3.1595567718270762E-016
  -4.7399999999999998E-002    -4.6304411314371935E-015
  -4.6299999999999994E-002    -7.7140501763563706E-015
  -4.5199999999999990E-002    -6.9597215970472644E-015
  -4.4099999999999986E-002    -1.5896104267279108E-015
  -4.2999999999999997E-002     6.4644919259737761E-015
  -4.1899999999999993E-002     1.2662666528935433E-014
  -4.0799999999999989E-002     1.2296172313317442E-014
  -3.9699999999999985E-002     3.9289868897945425E-015
  -3.8599999999999995E-002    -8.7462623135723533E-015
  -3.7499999999999992E-002    -1.8387062570212817E-014
  -3.6399999999999988E-002    -1.7873140576059321E-014
  -3.5299999999999984E-002    -5.8710479376332045E-015
  -3.4199999999999994E-002     1.0781018411993790E-014
  -3.3099999999999991E-002     2.0423932862870600E-014
  -3.1999999999999987E-002     1.4544141851155837E-014
  -3.0899999999999997E-002    -4.3282240110215954E-015
  -2.9799999999999993E-002    -2.2388552939193486E-014
  -2.8699999999999989E-002    -2.3302103383795666E-014
  -2.7599999999999986E-002    -2.1282770061277836E-015
  -2.6499999999999996E-002     2.7866824922921293E-014
  -2.5399999999999992E-002     4.2681129626669784E-014
  -2.4299999999999988E-002     2.4740473748450717E-014
  -2.3199999999999985E-002    -2.2373645159321810E-014
  -2.2099999999999995E-002    -7.3932586398470224E-014
  -2.0999999999999991E-002    -1.0114754492957997E-013
  -1.9899999999999987E-002    -8.7128187423093223E-014
  -1.8799999999999983E-002    -3.1395825067330463E-014
  -1.7699999999999994E-002     5.6065768076329209E-014
  -1.6599999999999990E-002     1.5946036266596686E-013
  -1.5499999999999986E-002     2.4442600721208407E-013
  -1.4399999999999996E-002     2.6401848914579806E-013
  -1.3299999999999992E-002     1.6066019500014794E-013
  -1.2199999999999989E-002    -9.1223747577130060E-014
  -1.1099999999999985E-002    -4.1805437150238545E-013
  -9.9999999999999950E-003    -6.2726804002724568E-013
  -8.8999999999999913E-003    -4.7597196366558348E-013
  -7.7999999999999875E-003     1.0530993937128696E-013
  -6.6999999999999837E-003     8.3648517799905786E-013
  -5.5999999999999939E-003     1.1683096981171537E-012
  -4.4999999999999901E-003     6.0624508885220862E-013
  -3.3999999999999864E-003    -7.5889739371143294E-013
  -2.2999999999999826E-003    -2.1262282299400193E-012
  -1.1999999999999927E-003    -2.3206714327983491E-012
  -9.9999999999988987E-005    -7.6453638342063868E-013
   1.0000000000000148E-003     2.0388857702863250E-012
   2.1000000000000185E-003     4.5403333870375207E-012
   3.2000000000000084E-003     5.2474379008682348E-012
   4.3000000000000121E-003     3.8713537584000868E-012
   5.4000000000000159E-003     1.1210658052915323E-012
   6.5000000000000058E-003    -1.7079982176856912E-012
   7.6000000000000234E-003    -3.5742441992225871E-012
   8.7000000000000133E-003    -3.6198888938437923E-012
   9.8000000000000032E-003    -1.6348622759385090E-012
   1.0900000000000021E-002     2.7484568440594437E-012
   1.2000000000000011E-002     7.7269735748730639E-012
   1.3100000000000001E-002     1.0289691841636195E-011
   1.4200000000000018E-002     7.7057093345045402E-012
   1.5300000000000008E-002    -2.1256676974168442E-012
   1.6400000000000026E-002    -1.4547901078243441E-011
   1.7500000000000016E-002    -2.0247914456206217E-011
   1.8600000000000005E-002    -1.3133692917943751E-011
   1.9700000000000023E-002     4.7640914650759481E-012
   2.0800000000000013E-002     2.1401462199643895E-011
   2.1900000000000003E-002     2.5294618830051796E-011
   2.3000000000000020E-002     1.4903057954374077E-011
   2.4100000000000010E-002    -1.1002982379382242E-013
   2.5200000000000000E-002    -1.1201821588369132E-011
   2.6300000000000018E-002    -2.3974168136819962E-011
   2.7400000000000008E-002    -4.6829845556928262E-011
   2.8500000000000025E-002    -7.3606822026395236E-011
   2.9600000000000015E-002    -8.5538895411296778E-011
   3.0700000000000005E-002    -5.8538104918959277E-011
   3.1800000000000023E-002     8.7960159989020070E-012
   3.2900000000000013E-002     8.0611621544601775E-011
   3.4000000000000002E-002     1.0985314741196461E-010
   3.5100000000000020E-002     6.7390981683956852E-011
   3.6200000000000010E-002    -4.2853585263680216E-011
   3.7300000000000028E-002    -1.8390833300685472E-010
   3.8400000000000017E-002    -2.8238900107169229E-010
   3.9500000000000007E-002    -3.1252711529816679E-010
   4.0600000000000025E-002    -2.8552632480582929E-010
   4.1700000000000015E-002    -2.1931256810603372E-010
   4.2800000000000005E-002    -1.0492289675978483E-010
   4.3900000000000022E-002     9.4667607086762473E-012
   4.5000000000000012E-002     8.9124943536411649E-011
   4.6100000000000002E-002     6.3468320876669537E-011
   4.7200000000000020E-002    -6.0780880328792364E-011
   4.8300000000000010E-002    -2.3656712699882121E-010
   4.9400000000000027E-002    -3.7202005365166713E-010
   5.0500000000000017E-002    -4.6938036790677984E-010
   5.1600000000000007E-002    -4.2557407597954011E-010
   5.2700000000000025E-002    -2.4956409161447368E-010
   5.3800000000000014E-002    -1.5294855659764295E-011
   5.4900000000000004E-002     1.0693736174349766E-010
   5.6000000000000022E-002     9.5769989161276214E-012
   5.7100000000000012E-002    -1.9533888395706356E-010
   5.8200000000000002E-002    -2.9718075222895379E-010
   5.9300000000000019E-002    -1.8839300952588900E-010
   6.0400000000000009E-002     5.4839174867815643E-011
   6.1500000000000027E-002     3.6081204690674440E-010
   6.2600000000000017E-002     5.6819238203331679E-010
   6.3700000000000007E-002     6.1872085233005691E-010
   6.4800000000000024E-002     4.3173087327375015E-010
   6.5900000000000014E-002     7.8926101765297574E-011
   6.7000000000000004E-002    -9.4619430346387645E-011
   6.8100000000000022E-002     5.4501660129435692E-011
   6.9200000000000012E-002     1.5880793902134371E-010
   7.0300000000000029E-002     1.9141052631788114E-010
   7.1400000000000019E-002     8.5087215051515841E-011
   7.2500000000000009E-002     1.4906018086513484E-010
   7.3600000000000027E-002     3.8781089450878881E-010
   7.4700000000000016E-002     5.5933940812380456E-010
   7.5800000000000006E-002     6.3227534319310053E-010
   7.6900000000000024E-002     3.5117425634112465E-010
   7.8000000000000014E-002    -2.7500085542087049E-010
   7.9100000000000004E-002    -9.9976849021743419E-010
   8.0200000000000021E-002    -1.5273510234337095E-009
   8.1300000000000011E-002    -1.6336743069444992E-009
   8.2400000000000029E-002    -1.1439607039420707E-009
   8.3500000000000019E-002     1.3897505368731800E-010
   8.4600000000000009E-002     1.6415033776695509E-009
   8.5700000000000026E-002     2.4785320462683558E-009
   8.6800000000000016E-002     2.0405790390753964E-009
   8.7900000000000006E-002     8.3629281277808332E-010
   8.9000000000000024E-002    -3.2205818567554445E-010
   9.0100000000000013E-002    -5.9419635878299459E-010
   9.1200000000000003E-002    -4.8204756852854302E-010
   9.2300000000000021E-002    -8.6286167100269040E-010
   9.3400000000000011E-002    -2.1601385125080697E-009
   9.4500000000000028E-002    -3.6635634526049898E-009
   9.5600000000000018E-002    -3.9256180528468576E-009
   9.6700000000000008E-002    -2.4533397535719814E-009
   9.7800000000000026E-002     1.2586426345606583E-010
   9.8900000000000016E-002     2.2031425572777152E-009
  0.10000000000000001          2.9807913914936535E-009
  0.10110000000000002          2.6380699846839661E-009
  0.10220000000000001          1.6500154575993520E-009
  0.10330000000000003          7.3366451802669985E-010
  0.10440000000000002          1.7583202949200682E-010
  0.10550000000000001         -1.6688943282883173E-010
  0.10660000000000003         -2.5610957798960499E-011
  0.10770000000000002          5.9966742682604490E-010
  0.10880000000000001          1.9061308087486850E-009
  0.10990000000000003          3.4814831018081804E-009
  0.11100000000000002          4.4115018305035392E-009
  0.11210000000000001          4.0150025526486388E-009
  0.11320000000000002          2.9731701545188116E-009
  0.11430000000000001          1.6445229622519264E-009
  0.11540000000000003          4.2343117900855987E-010
  0.11650000000000002         -2.2403104371626625E-010
  0.11760000000000001         -4.7712289674706199E-010
  0.11870000000000003          2.0193316463412714E-010
  0.11980000000000002          1.3829151157551678E-009
  0.12090000000000001          3.0299709408154740E-009
  0.12200000000000003          4.9996931039686388E-009
  0.12310000000000001          6.8618599691205873E-009
  0.12420000000000003          6.3578053932644707E-009
  0.12530000000000002          3.4516769442660689E-009
  0.12640000000000001         -7.8096984434949945E-010
  0.12750000000000003         -3.2568761021423143E-009
  0.12860000000000002         -2.3627084733135462E-009
  0.12970000000000001          4.6745884940690985E-010
  0.13080000000000003          1.5408856413046124E-009
  0.13190000000000002         -7.4576012032423478E-011
  0.13300000000000001         -2.7297413218718702E-009
  0.13410000000000000         -2.4092035033618231E-009
  0.13520000000000004          2.0585266824468818E-010
  0.13630000000000003          2.3189832276671041E-009
  0.13740000000000002          6.3181793130695496E-010
  0.13850000000000001         -5.7519393692473386E-009
  0.13960000000000000         -1.0952585505208390E-008
  0.14070000000000005         -9.8433066142433745E-009
  0.14180000000000004         -2.6392137364439350E-009
  0.14290000000000003          3.0949536267144140E-009
  0.14400000000000002          2.4743813664684922E-009
  0.14510000000000001         -2.3139681282202673E-009
  0.14620000000000000         -5.3528599330832094E-009
  0.14730000000000004         -2.6151223408987789E-009
  0.14840000000000003          5.8320215323703906E-009
  0.14950000000000002          1.3096055795358552E-008
  0.15060000000000001          1.3010459376516792E-008
  0.15170000000000000          5.1091615382858890E-009
  0.15280000000000005         -4.3696180007657404E-009
  0.15390000000000004         -9.8329904218985575E-009
  0.15500000000000003         -9.8827346306507025E-009
  0.15610000000000002         -7.2077379620338888E-009
  0.15720000000000001         -4.1742227452346015E-009
  0.15830000000000000         -1.1407073063907092E-009
  0.15940000000000004          3.2551785711376624E-009
  0.16050000000000003          1.1236248376178537E-008
  0.16160000000000002          1.9719244903626532E-008
  0.16270000000000001          2.2107428776507732E-008
  0.16380000000000000          1.6106278977190414E-008
  0.16490000000000005          4.5839456674912071E-009
  0.16600000000000004         -5.5043134494781043E-009
  0.16710000000000003         -1.0788424376073635E-008
  0.16820000000000002         -1.1124980936472184E-008
  0.16930000000000001         -9.5972421121359730E-009
  0.17040000000000000         -8.9299474481663310E-009
  0.17150000000000004         -7.7607271720125937E-009
  0.17260000000000003         -3.7233589544882761E-009
  0.17370000000000002          3.8274903246815484E-009
  0.17480000000000001          8.8687102106632665E-009
  0.17590000000000000          5.8074136610741789E-009
  0.17700000000000005         -2.4165496270711628E-009
  0.17810000000000004         -9.8517727309399561E-009
  0.17920000000000003         -1.2124329984430915E-008
  0.18030000000000002         -1.0202221290001035E-008
  0.18140000000000001         -4.8741868319268633E-009
  0.18250000000000000         -3.3489253037366495E-010
  0.18360000000000004          2.9316613581187312E-009
  0.18470000000000003          4.2801415744975202E-009
  0.18580000000000002          3.9346219615765676E-009
  0.18690000000000001          1.5321025559345003E-009
  0.18800000000000000         -3.7071945513389437E-009
  0.18910000000000005         -8.8120470920216576E-009
  0.19020000000000004         -9.2203080725994369E-009
  0.19130000000000003         -3.0497542269358746E-009
  0.19240000000000002          3.5868736869559825E-009
  0.19350000000000001          6.4590577331102850E-009
  0.19460000000000005          3.9534642226612959E-009
  0.19570000000000004         -2.2054857939934891E-011
  0.19680000000000003         -1.1652777631709910E-009
  0.19790000000000002          1.2942480420718994E-010
  0.19900000000000001          2.0336088368821947E-009
  0.20010000000000000          1.9300894216200959E-009
  0.20120000000000005         -1.0415779350125831E-009
  0.20230000000000004         -3.0810975992778822E-009
  0.20340000000000003         -2.0015065160805534E-009
  0.20450000000000002          1.7311214683957132E-009
  0.20560000000000000          5.4996016629615951E-009
  0.20670000000000005          6.3282303841560861E-009
  0.20780000000000004          3.3565636936572218E-009
  0.20890000000000003         -1.2642880076185747E-009
