 -0.12000000000000000          0.0000000000000000     
 -0.11889999999999999          0.0000000000000000     
 -0.11780000000000000          0.0000000000000000     
 -0.11670000000000000          0.0000000000000000     
 -0.11559999999999999          0.0000000000000000     
 -0.11449999999999999          0.0000000000000000     
 -0.11340000000000000          9.7795869438612598E-014
 -0.11230000000000000         -4.2316565290918817E-013
 -0.11119999999999999         -5.0898122522236022E-012
 -0.11009999999999999         -1.3367141594999854E-011
 -0.10900000000000000          3.5864748670899615E-012
 -0.10790000000000000          9.9754517146610766E-011
 -0.10679999999999999          2.2984752989785306E-010
 -0.10569999999999999          6.3384755777384783E-011
 -0.10460000000000000         -8.3515289128754944E-010
 -0.10349999999999999         -2.0564046021576132E-009
 -0.10239999999999999         -1.3804791754168377E-009
 -0.10130000000000000          3.9173291277450062E-009
 -0.10020000000000000          1.2178990260736100E-008
  -9.9099999999999994E-002     1.2904700419369419E-008
  -9.7999999999999990E-002    -8.0276425507008753E-009
  -9.6899999999999986E-002    -4.9082466091476817E-008
  -9.5799999999999996E-002    -7.4074989697692217E-008
  -9.4699999999999993E-002    -2.4427977862728767E-008
  -9.3599999999999989E-002     1.2102175617201283E-007
  -9.2499999999999999E-002     2.7639578092930606E-007
  -9.1399999999999995E-002     2.5633465838836855E-007
  -9.0299999999999991E-002    -8.1747252522745839E-008
  -8.9200000000000002E-002    -6.3240366898753564E-007
  -8.8099999999999984E-002    -9.7550764621701092E-007
  -8.6999999999999994E-002    -6.1571898868351127E-007
  -8.5899999999999990E-002     5.5755322136974428E-007
  -8.4799999999999986E-002     1.9618771602836205E-006
  -8.3699999999999997E-002     2.5404317511856789E-006
  -8.2599999999999993E-002     1.4825500329607166E-006
  -8.1499999999999989E-002    -1.0780070169857936E-006
  -8.0399999999999999E-002    -3.9881483644421678E-006
  -7.9299999999999995E-002    -5.6982189562404528E-006
  -7.8199999999999992E-002    -5.0157741497969255E-006
  -7.7100000000000002E-002    -1.4184888641466387E-006
  -7.5999999999999984E-002     4.9068835323851090E-006
  -7.4899999999999994E-002     1.2567645171657205E-005
  -7.3799999999999991E-002     1.7951782865566202E-005
  -7.2699999999999987E-002     1.5251542208716273E-005
  -7.1599999999999997E-002    -3.8798998502898030E-007
  -7.0499999999999993E-002    -2.6898722353507765E-005
  -6.9399999999999989E-002    -5.1064143917756155E-005
  -6.8300000000000000E-002    -5.2398529078345746E-005
  -6.7199999999999996E-002    -1.6855401554494165E-005
  -6.6099999999999992E-002     4.7406585508724675E-005
  -6.5000000000000002E-002     1.0626919538481161E-004
  -6.3899999999999985E-002     1.1672461550915614E-004
  -6.2799999999999995E-002     5.7349403505213559E-005
  -6.1699999999999991E-002    -5.0069993449142203E-005
  -6.0599999999999994E-002    -1.4823410310782492E-004
  -5.9499999999999990E-002    -1.8042935698758811E-004
  -5.8399999999999994E-002    -1.2896455882582814E-004
  -5.7299999999999990E-002    -2.4470997232128866E-005
  -5.6199999999999986E-002     8.2142032624687999E-005
  -5.5099999999999996E-002     1.5931595407892019E-004
  -5.3999999999999992E-002     2.0777039753738791E-004
  -5.2899999999999989E-002     2.3350963601842523E-004
  -5.1799999999999985E-002     2.1064374595880508E-004
  -5.0699999999999995E-002     8.2480131823103875E-005
  -4.9599999999999991E-002    -1.8139817984774709E-004
  -4.8499999999999988E-002    -5.1342882215976715E-004
  -4.7399999999999998E-002    -7.3561834869906306E-004
  -4.6299999999999994E-002    -6.4672942971810699E-004
  -4.5199999999999990E-002    -1.6784937179181725E-004
  -4.4099999999999986E-002     5.5757485097274184E-004
  -4.2999999999999997E-002     1.1975328670814633E-003
  -4.1899999999999993E-002     1.3974800240248442E-003
  -4.0799999999999989E-002     9.8131073173135519E-004
  -3.9699999999999985E-002     6.3316052546724677E-005
  -3.8599999999999995E-002    -9.9334074184298515E-004
  -3.7499999999999992E-002    -1.7418899806216359E-003
  -3.6399999999999988E-002    -1.8513097893446684E-003
  -3.5299999999999984E-002    -1.2513679685071111E-003
  -3.4199999999999994E-002    -1.7131571075879037E-004
  -3.3099999999999991E-002     9.4410724705085158E-004
  -3.1999999999999987E-002     1.6260027186945081E-003
  -3.0899999999999997E-002     1.6175146447494626E-003
  -2.9799999999999993E-002     1.0368167422711849E-003
  -2.8699999999999989E-002     3.3989248913712800E-004
  -2.7599999999999986E-002     4.8825633712112904E-005
  -2.6499999999999996E-002     3.7982093635946512E-004
  -2.5399999999999992E-002     1.0255891829729080E-003
  -2.4299999999999988E-002     1.2891716323792934E-003
  -2.3199999999999985E-002     5.2800215780735016E-004
  -2.2099999999999995E-002    -1.3862057821825147E-003
  -2.0999999999999991E-002    -3.9401953108608723E-003
  -1.9899999999999987E-002    -6.3122347928583622E-003
  -1.8799999999999983E-002    -7.9514365643262863E-003
  -1.7699999999999994E-002    -8.9941015467047691E-003
  -1.6599999999999990E-002    -1.0217760689556599E-002
  -1.5499999999999986E-002    -1.2563219293951988E-002
  -1.4399999999999996E-002    -1.6546150669455528E-002
  -1.3299999999999992E-002    -2.1934211254119873E-002
  -1.2199999999999989E-002    -2.7875408530235291E-002
  -1.1099999999999985E-002    -3.3398929983377457E-002
  -9.9999999999999950E-003    -3.8040019571781158E-002
  -8.8999999999999913E-003    -4.2298424988985062E-002
  -7.7999999999999875E-003    -4.7704745084047318E-002
  -6.6999999999999837E-003    -5.6390807032585144E-002
  -5.5999999999999939E-003    -7.0269748568534851E-002
  -4.4999999999999901E-003    -9.0194776654243469E-002
  -3.3999999999999864E-003   -0.11560555547475815     
  -2.2999999999999826E-003   -0.14500437676906586     
  -1.1999999999999927E-003   -0.17712028324604034     
  -9.9999999999988987E-005   -0.21210043132305145     
   1.0000000000000148E-003   -0.25195041298866272     
   2.1000000000000185E-003   -0.29989942908287048     
   3.2000000000000084E-003   -0.35910683870315552     
   4.3000000000000121E-003   -0.43158251047134399     
   5.4000000000000159E-003   -0.51801830530166626     
   6.5000000000000058E-003   -0.61850255727767944     
   7.6000000000000234E-003   -0.73355418443679810     
   8.7000000000000133E-003   -0.86474257707595825     
   9.8000000000000032E-003    -1.0147424936294556     
   1.0900000000000021E-002    -1.1870547533035278     
   1.2000000000000011E-002    -1.3856760263442993     
   1.3100000000000001E-002    -1.6148796081542969     
   1.4200000000000018E-002    -1.8788057565689087     
   1.5300000000000008E-002    -2.1809902191162109     
   1.6400000000000026E-002    -2.5239889621734619     
   1.7500000000000016E-002    -2.9095439910888672     
   1.8600000000000005E-002    -3.3393559455871582     
   1.9700000000000023E-002    -3.8157861232757568     
   2.0800000000000013E-002    -4.3424959182739258     
   2.1900000000000003E-002    -4.9240603446960449     
   2.3000000000000020E-002    -5.5652675628662109     
   2.4100000000000010E-002    -6.2702898979187012     
   2.5200000000000000E-002    -7.0423989295959473     
   2.6300000000000018E-002    -7.8830914497375488     
   2.7400000000000008E-002    -8.7917842864990234     
   2.8500000000000025E-002    -9.7654561996459961     
   2.9600000000000015E-002    -10.799572944641113     
   3.0700000000000005E-002    -11.889276504516602     
   3.1800000000000023E-002    -13.030762672424316     
   3.2900000000000013E-002    -14.220712661743164     
   3.4000000000000002E-002    -15.455042839050293     
   3.5100000000000020E-002    -16.725778579711914     
   3.6200000000000010E-002    -18.018419265747070     
   3.7300000000000028E-002    -19.314020156860352     
   3.8400000000000017E-002    -20.591449737548828     
   3.9500000000000007E-002    -21.829759597778320     
   4.0600000000000025E-002    -23.007427215576172     
   4.1700000000000015E-002    -24.102781295776367     
   4.2800000000000005E-002    -25.091100692749023     
   4.3900000000000022E-002    -25.943374633789062     
   4.5000000000000012E-002    -26.628602981567383     
   4.6100000000000002E-002    -27.112285614013672     
   4.7200000000000020E-002    -27.357240676879883     
   4.8300000000000010E-002    -27.328048706054688     
   4.9400000000000027E-002    -26.987581253051758     
   5.0500000000000017E-002    -26.302070617675781     
   5.1600000000000007E-002    -25.240026473999023     
   5.2700000000000025E-002    -23.770959854125977     
   5.3800000000000014E-002    -21.865434646606445     
   5.4900000000000004E-002    -19.495613098144531     
   5.6000000000000022E-002    -16.639198303222656     
   5.7100000000000012E-002    -13.282443046569824     
   5.8200000000000002E-002    -9.4191246032714844     
   5.9300000000000019E-002    -5.0469622611999512     
   6.0400000000000009E-002   -0.17143701016902924     
   6.1500000000000027E-002     5.1876139640808105     
   6.2600000000000017E-002     11.014146804809570     
   6.3700000000000007E-002     17.272798538208008     
   6.4800000000000024E-002     23.920352935791016     
   6.5900000000000014E-002     30.901344299316406     
   6.7000000000000004E-002     38.141262054443359     
   6.8100000000000022E-002     45.569786071777344     
   6.9200000000000012E-002     53.099052429199219     
   7.0300000000000029E-002     60.635097503662109     
   7.1400000000000019E-002     68.079116821289062     
   7.2500000000000009E-002     75.323860168457031     
   7.3600000000000027E-002     82.261260986328125     
   7.4700000000000016E-002     88.777496337890625     
   7.5800000000000006E-002     94.758323669433594     
   7.6900000000000024E-002     100.08312225341797     
   7.8000000000000014E-002     104.63637542724609     
   7.9100000000000004E-002     108.30438232421875     
   8.0200000000000021E-002     110.98941040039062     
   8.1300000000000011E-002     112.60336303710938     
   8.2400000000000029E-002     113.06866455078125     
   8.3500000000000019E-002     112.32161712646484     
   8.4600000000000009E-002     110.31257629394531     
   8.5700000000000026E-002     107.01628112792969     
   8.6800000000000016E-002     102.42523193359375     
   8.7900000000000006E-002     96.548164367675781     
   8.9000000000000024E-002     89.408729553222656     
   9.0100000000000013E-002     81.049972534179688     
   9.1200000000000003E-002     71.540313720703125     
   9.2300000000000021E-002     60.973415374755859     
   9.3400000000000011E-002     49.462009429931641     
   9.4500000000000028E-002     37.136615753173828     
   9.5600000000000018E-002     24.139553070068359     
   9.6700000000000008E-002     10.629509925842285     
   9.7800000000000026E-002    -3.2245328426361084     
   9.8900000000000016E-002    -17.245834350585938     
  0.10000000000000001         -31.252498626708984     
  0.10110000000000002         -45.064910888671875     
  0.10220000000000001         -58.502037048339844     
  0.10330000000000003         -71.385498046875000     
  0.10440000000000002         -83.547248840332031     
  0.10550000000000001         -94.826713562011719     
  0.10660000000000003         -105.07435607910156     
  0.10770000000000002         -114.15435791015625     
  0.10880000000000001         -121.95334625244141     
  0.10990000000000003         -128.38584899902344     
  0.11100000000000002         -133.38351440429688     
  0.11210000000000001         -136.89598083496094     
  0.11320000000000002         -138.90010070800781     
  0.11430000000000001         -139.38964843750000     
  0.11540000000000003         -138.38327026367188     
  0.11650000000000002         -135.93115234375000     
  0.11760000000000001         -132.09222412109375     
  0.11870000000000003         -126.95018768310547     
  0.11980000000000002         -120.60607147216797     
  0.12090000000000001         -113.16500854492188     
  0.12200000000000003         -104.75022125244141     
  0.12310000000000001         -95.496078491210938     
  0.12420000000000003         -85.546775817871094     
  0.12530000000000002         -75.048759460449219     
  0.12640000000000001         -64.147491455078125     
  0.12750000000000003         -52.986957550048828     
  0.12860000000000002         -41.714305877685547     
  0.12970000000000001         -30.466663360595703     
  0.13080000000000003         -19.367998123168945     
  0.13190000000000002         -8.5339546203613281     
  0.13300000000000001          1.9226071834564209     
  0.13410000000000000          11.903168678283691     
  0.13520000000000004          21.323316574096680     
  0.13630000000000003          30.111581802368164     
  0.13740000000000002          38.208793640136719     
  0.13850000000000001          45.570629119873047     
  0.13960000000000000          52.160675048828125     
  0.14070000000000005          57.952644348144531     
  0.14180000000000004          62.930332183837891     
  0.14290000000000003          67.090423583984375     
  0.14400000000000002          70.444168090820312     
  0.14510000000000001          73.012527465820312     
  0.14620000000000000          74.819992065429688     
  0.14730000000000004          75.891632080078125     
  0.14840000000000003          76.254150390625000     
  0.14950000000000002          75.936286926269531     
  0.15060000000000001          74.976097106933594     
  0.15170000000000000          73.418106079101562     
  0.15280000000000005          71.309799194335938     
  0.15390000000000004          68.691825866699219     
  0.15500000000000003          65.599296569824219     
  0.15610000000000002          62.067874908447266     
  0.15720000000000001          58.139228820800781     
  0.15830000000000000          53.862102508544922     
  0.15940000000000004          49.286045074462891     
  0.16050000000000003          44.455535888671875     
  0.16160000000000002          39.403137207031250     
  0.16270000000000001          34.159580230712891     
  0.16380000000000000          28.761062622070312     
  0.16490000000000005          23.253479003906250     
  0.16600000000000004          17.685775756835938     
  0.16710000000000003          12.103998184204102     
  0.16820000000000002          6.5457177162170410     
  0.16930000000000001          1.0464590787887573     
  0.17040000000000000         -4.3537774085998535     
  0.17150000000000004         -9.6063098907470703     
  0.17260000000000003         -14.661568641662598     
  0.17370000000000002         -19.477598190307617     
  0.17480000000000001         -24.020530700683594     
  0.17590000000000000         -28.258958816528320     
  0.17700000000000005         -32.156589508056641     
  0.17810000000000004         -35.675491333007812     
  0.17920000000000003         -38.779815673828125     
  0.18030000000000002         -41.447460174560547     
  0.18140000000000001         -43.664913177490234     
  0.18250000000000000         -45.419105529785156     
  0.18360000000000004         -46.689533233642578     
  0.18470000000000003         -47.459369659423828     
  0.18580000000000002         -47.725963592529297     
  0.18690000000000001         -47.502986907958984     
  0.18800000000000000         -46.815681457519531     
  0.18910000000000005         -45.684570312500000     
  0.19020000000000004         -44.120414733886719     
  0.19130000000000003         -42.139030456542969     
  0.19240000000000002         -39.766059875488281     
  0.19350000000000001         -37.053024291992188     
  0.19460000000000005         -34.059070587158203     
  0.19570000000000004         -30.832122802734375     
  0.19680000000000003         -27.403293609619141     
  0.19790000000000002         -23.792745590209961     
  0.19900000000000001         -20.040182113647461     
  0.20010000000000000         -16.208486557006836     
  0.20120000000000005         -12.371983528137207     
  0.20230000000000004         -8.5888433456420898     
  0.20340000000000003         -4.8901329040527344     
  0.20450000000000002         -1.2939850091934204     
  0.20560000000000000          2.1765182018280029     
  0.20670000000000005          5.4746513366699219     
  0.20780000000000004          8.5487394332885742     
  0.20890000000000003          11.363139152526855     
