 -0.12000000000000000          0.0000000000000000     
 -0.11889999999999999          0.0000000000000000     
 -0.11780000000000000          0.0000000000000000     
 -0.11670000000000000          0.0000000000000000     
 -0.11559999999999999          0.0000000000000000     
 -0.11449999999999999          0.0000000000000000     
 -0.11340000000000000          3.1364573892620634E-016
 -0.11230000000000000         -2.2966237456033918E-015
 -0.11119999999999999         -3.1050432136494471E-014
 -0.11009999999999999         -1.1831638099812913E-013
 -0.10900000000000000         -1.4952020741323957E-013
 -0.10790000000000000          3.7294993482372973E-013
 -0.10679999999999999          1.9716017013449161E-012
 -0.10569999999999999          3.5098762004442952E-012
 -0.10460000000000000          6.0405846991073986E-013
 -0.10349999999999999         -1.1300415464488012E-011
 -0.10239999999999999         -2.6855710363871133E-011
 -0.10130000000000000         -2.3405968135881139E-011
 -0.10020000000000000          2.3633241197362764E-011
  -9.9099999999999994E-002     9.8557023653356168E-011
  -9.7999999999999990E-002     1.1917378195391848E-010
  -9.6899999999999986E-002    -4.5737719167604496E-012
  -9.5799999999999996E-002    -2.2853602343886337E-010
  -9.4699999999999993E-002    -3.0033170395071807E-010
  -9.3599999999999989E-002     4.3096304302991939E-011
  -9.2499999999999999E-002     6.4412009059822140E-010
  -9.1399999999999995E-002     7.2668127071295885E-010
  -9.0299999999999991E-002    -5.0159532083426939E-010
  -8.9200000000000002E-002    -2.5875332987368438E-009
  -8.8099999999999984E-002    -3.2033800057007511E-009
  -8.6999999999999994E-002     3.0959590446855145E-010
  -8.5899999999999990E-002     7.4752133372157914E-009
  -8.4799999999999986E-002     1.2458506226664667E-008
  -8.3699999999999997E-002     7.0894001780175131E-009
  -8.2599999999999993E-002    -1.0767728930716203E-008
  -8.1499999999999989E-002    -3.0210955515030946E-008
  -8.0399999999999999E-002    -3.1202361583382299E-008
  -7.9299999999999995E-002    -1.6333494556874939E-009
  -7.8199999999999992E-002     4.4626411010995071E-008
  -7.7100000000000002E-002     6.8956708787482057E-008
  -7.5999999999999984E-002     3.7286142173797998E-008
  -7.4899999999999994E-002    -4.1367329117747431E-008
  -7.3799999999999991E-002    -1.0550173357160020E-007
  -7.2699999999999987E-002    -8.4363719565772044E-008
  -7.1599999999999997E-002     3.0720688215524206E-008
  -7.0499999999999993E-002     1.5273101894308638E-007
  -6.9399999999999989E-002     1.5441234779700608E-007
  -6.8300000000000000E-002    -1.2337125099293189E-008
  -6.7199999999999996E-002    -2.3659852388391300E-007
  -6.6099999999999992E-002    -3.0684824992022186E-007
  -6.5000000000000002E-002    -9.4274383855008637E-008
  -6.3899999999999985E-002     2.8828137033087842E-007
  -6.2799999999999995E-002     5.2358615221237415E-007
  -6.1699999999999991E-002     3.4497674050726346E-007
  -6.0599999999999994E-002    -1.8688116654175246E-007
  -5.9499999999999990E-002    -6.5825219053294859E-007
  -5.8399999999999994E-002    -6.1841075194024597E-007
  -5.7299999999999990E-002    -6.9125576374062803E-009
  -5.6199999999999986E-002     7.0493467774213059E-007
  -5.5099999999999996E-002     8.6013039890531218E-007
  -5.3999999999999992E-002     2.1059861410321901E-007
  -5.2899999999999989E-002    -7.7227412020874908E-007
  -5.1799999999999985E-002    -1.2248962093508453E-006
  -5.0699999999999995E-002    -6.4700856228228076E-007
  -4.9599999999999991E-002     5.7813923604044248E-007
  -4.8499999999999988E-002     1.4353179267345695E-006
  -4.7399999999999998E-002     1.1602793392739841E-006
  -4.6299999999999994E-002    -2.2503968466480728E-008
  -4.5199999999999990E-002    -1.0399876373412553E-006
  -4.4099999999999986E-002    -9.4622242841069237E-007
  -4.2999999999999997E-002     1.3812581300953752E-007
  -4.1899999999999993E-002     1.0555996823313762E-006
  -4.0799999999999989E-002     6.8305462264106609E-007
  -3.9699999999999985E-002    -9.1305912519601407E-007
  -3.8599999999999995E-002    -2.3782272364769597E-006
  -3.7499999999999992E-002    -2.2329738840198843E-006
  -3.6399999999999988E-002    -2.7146131742483703E-007
  -3.5299999999999984E-002     2.1486962396011222E-006
  -3.4199999999999994E-002     3.2739853850216605E-006
  -3.3099999999999991E-002     2.5120141344814328E-006
  -3.1999999999999987E-002     8.7152824335134937E-007
  -3.0899999999999997E-002    -1.6397531510392582E-007
  -2.9799999999999993E-002    -2.0038528703025804E-007
  -2.8699999999999989E-002    -2.9899885589657060E-007
  -2.7599999999999986E-002    -1.6823908026708523E-006
  -2.6499999999999996E-002    -4.0761597119853832E-006
  -2.5399999999999992E-002    -5.5142400015029125E-006
  -2.4299999999999988E-002    -4.0552167774876580E-006
  -2.3199999999999985E-002     1.6095555110950954E-007
  -2.2099999999999995E-002     4.6598970584454946E-006
  -2.0999999999999991E-002     6.6881298153020907E-006
  -1.9899999999999987E-002     5.7251636462751776E-006
  -1.8799999999999983E-002     3.9394976738549303E-006
  -1.7699999999999994E-002     3.9819565245124977E-006
  -1.6599999999999990E-002     6.2358035393117461E-006
  -1.5499999999999986E-002     8.3989752965862863E-006
  -1.4399999999999996E-002     8.0661257015890442E-006
  -1.3299999999999992E-002     5.8392047321831342E-006
  -1.2199999999999989E-002     5.6443859648425132E-006
  -1.1099999999999985E-002     1.1505362635944039E-005
  -9.9999999999999950E-003     2.3669692382100038E-005
  -8.8999999999999913E-003     3.7998037441866472E-005
  -7.7999999999999875E-003     4.9590857088332996E-005
  -6.6999999999999837E-003     5.7414232287555933E-005
  -5.5999999999999939E-003     6.5428394009359181E-005
  -4.4999999999999901E-003     7.8950804891064763E-005
  -3.3999999999999864E-003     9.9723838502541184E-005
  -2.2999999999999826E-003     1.2465562031138688E-004
  -1.1999999999999927E-003     1.4971575001254678E-004
  -9.9999999999988987E-005     1.7526658484712243E-004
   1.0000000000000148E-003     2.0743347704410553E-004
   2.1000000000000185E-003     2.5387867935933173E-004
   3.2000000000000084E-003     3.1796246184967458E-004
   4.3000000000000121E-003     3.9707100950181484E-004
   5.4000000000000159E-003     4.8685292131267488E-004
   6.5000000000000058E-003     5.8716320199891925E-004
   7.6000000000000234E-003     7.0374982897192240E-004
   8.7000000000000133E-003     8.4409385453909636E-004
   9.8000000000000032E-003     1.0119559010490775E-003
   1.0900000000000021E-002     1.2066694907844067E-003
   1.2000000000000011E-002     1.4282763004302979E-003
   1.3100000000000001E-002     1.6832191031426191E-003
   1.4200000000000018E-002     1.9843031186610460E-003
   1.5300000000000008E-002     2.3444145917892456E-003
   1.6400000000000026E-002     2.7702283114194870E-003
   1.7500000000000016E-002     3.2626336906105280E-003
   1.8600000000000005E-002     3.8238465785980225E-003
   1.9700000000000023E-002     4.4639492407441139E-003
   2.0800000000000013E-002     5.1997764967381954E-003
   2.1900000000000003E-002     6.0469456948339939E-003
   2.3000000000000020E-002     7.0134638808667660E-003
   2.4100000000000010E-002     8.1024328246712685E-003
   2.5200000000000000E-002     9.3220164999365807E-003
   2.6300000000000018E-002     1.0692518204450607E-002
   2.7400000000000008E-002     1.2242319062352180E-002
   2.8500000000000025E-002     1.3995413668453693E-002
   2.9600000000000015E-002     1.5962660312652588E-002
   3.0700000000000005E-002     1.8146103248000145E-002
   3.1800000000000023E-002     2.0552923902869225E-002
   3.2900000000000013E-002     2.3205215111374855E-002
   3.4000000000000002E-002     2.6134921237826347E-002
   3.5100000000000020E-002     2.9367949813604355E-002
   3.6200000000000010E-002     3.2912962138652802E-002
   3.7300000000000028E-002     3.6766469478607178E-002
   3.8400000000000017E-002     4.0929630398750305E-002
   3.9500000000000007E-002     4.5419570058584213E-002
   4.0600000000000025E-002     5.0262715667486191E-002
   4.1700000000000015E-002     5.5475655943155289E-002
   4.2800000000000005E-002     6.1052385717630386E-002
   4.3900000000000022E-002     6.6971123218536377E-002
   4.5000000000000012E-002     7.3214121162891388E-002
   4.6100000000000002E-002     7.9779960215091705E-002
   4.7200000000000020E-002     8.6674191057682037E-002
   4.8300000000000010E-002     9.3886464834213257E-002
   4.9400000000000027E-002    0.10137725621461868     
   5.0500000000000017E-002    0.10908801108598709     
   5.1600000000000007E-002    0.11696564406156540     
   5.2700000000000025E-002    0.12497644871473312     
   5.3800000000000014E-002    0.13309335708618164     
   5.4900000000000004E-002    0.14126814901828766     
   5.6000000000000022E-002    0.14941616356372833     
   5.7100000000000012E-002    0.15743024647235870     
   5.8200000000000002E-002    0.16521145403385162     
   5.9300000000000019E-002    0.17268615961074829     
   6.0400000000000009E-002    0.17979170382022858     
   6.1500000000000027E-002    0.18644420802593231     
   6.2600000000000017E-002    0.19252203404903412     
   6.3700000000000007E-002    0.19788381457328796     
   6.4800000000000024E-002    0.20240390300750732     
   6.5900000000000014E-002    0.20598998665809631     
   6.7000000000000004E-002    0.20856444537639618     
   6.8100000000000022E-002    0.21002881228923798     
   6.9200000000000012E-002    0.21024815738201141     
   7.0300000000000029E-002    0.20907348394393921     
   7.1400000000000019E-002    0.20638425648212433     
   7.2500000000000009E-002    0.20210827887058258     
   7.3600000000000027E-002    0.19619852304458618     
   7.4700000000000016E-002    0.18859076499938965     
   7.5800000000000006E-002    0.17918370664119720     
   7.6900000000000024E-002    0.16786327958106995     
   7.8000000000000014E-002    0.15454991161823273     
   7.9100000000000004E-002    0.13921922445297241     
   8.0200000000000021E-002    0.12187588214874268     
   8.1300000000000011E-002    0.10250759869813919     
   8.2400000000000029E-002     8.1064499914646149E-002
   8.3500000000000019E-002     5.7486820966005325E-002
   8.4600000000000009E-002     3.1751923263072968E-002
   8.5700000000000026E-002     3.8930112496018410E-003
   8.6800000000000016E-002    -2.6033964008092880E-002
   8.7900000000000006E-002    -5.8003306388854980E-002
   8.9000000000000024E-002    -9.2037893831729889E-002
   9.0100000000000013E-002   -0.12817628681659698     
   9.1200000000000003E-002   -0.16642107069492340     
   9.2300000000000021E-002   -0.20672225952148438     
   9.3400000000000011E-002   -0.24901381134986877     
   9.4500000000000028E-002   -0.29326933622360229     
   9.5600000000000018E-002   -0.33952102065086365     
   9.6700000000000008E-002   -0.38782146573066711     
   9.7800000000000026E-002   -0.43818494677543640     
   9.8900000000000016E-002   -0.49056652188301086     
  0.10000000000000001        -0.54489970207214355     
  0.10110000000000002        -0.60115283727645874     
  0.10220000000000001        -0.65934413671493530     
  0.10330000000000003        -0.71949577331542969     
  0.10440000000000002        -0.78156971931457520     
  0.10550000000000001        -0.84544706344604492     
  0.10660000000000003        -0.91096603870391846     
  0.10770000000000002        -0.97797429561614990     
  0.10880000000000001         -1.0463351011276245     
  0.10990000000000003         -1.1158716678619385     
  0.11100000000000002         -1.1862993240356445     
  0.11210000000000001         -1.2572078704833984     
  0.11320000000000002         -1.3281067609786987     
  0.11430000000000001         -1.3984810113906860     
  0.11540000000000003         -1.4677966833114624     
  0.11650000000000002         -1.5354456901550293     
  0.11760000000000001         -1.6006803512573242     
  0.11870000000000003         -1.6626031398773193     
  0.11980000000000002         -1.7202217578887939     
  0.12090000000000001         -1.7725120782852173     
  0.12200000000000003         -1.8184317350387573     
  0.12310000000000001         -1.8568776845932007     
  0.12420000000000003         -1.8866380453109741     
  0.12530000000000002         -1.9063993692398071     
  0.12640000000000001         -1.9148159027099609     
  0.12750000000000003         -1.9105899333953857     
  0.12860000000000002         -1.8925014734268188     
  0.12970000000000001         -1.8593683242797852     
  0.13080000000000003         -1.8100126981735229     
  0.13190000000000002         -1.7432879209518433     
  0.13300000000000001         -1.6581650972366333     
  0.13410000000000000         -1.5538253784179688     
  0.13520000000000004         -1.4296793937683105     
  0.13630000000000003         -1.2853422164916992     
  0.13740000000000002         -1.1206054687500000     
  0.13850000000000001        -0.93545901775360107     
  0.13960000000000000        -0.73017138242721558     
  0.14070000000000005        -0.50534892082214355     
  0.14180000000000004        -0.26195675134658813     
  0.14290000000000003         -1.2850463390350342E-003
  0.14400000000000002         0.27510982751846313     
  0.14510000000000001         0.56540840864181519     
  0.14620000000000000         0.86748135089874268     
  0.14730000000000004          1.1788461208343506     
  0.14840000000000003          1.4966932535171509     
  0.14950000000000002          1.8179782629013062     
  0.15060000000000001          2.1394991874694824     
  0.15170000000000000          2.4579198360443115     
  0.15280000000000005          2.7697677612304688     
  0.15390000000000004          3.0714368820190430     
  0.15500000000000003          3.3592450618743896     
  0.15610000000000002          3.6295461654663086     
  0.15720000000000001          3.8788323402404785     
  0.15830000000000000          4.1037802696228027     
  0.15940000000000004          4.3012585639953613     
  0.16050000000000003          4.4683485031127930     
  0.16160000000000002          4.6024069786071777     
  0.16270000000000001          4.7011628150939941     
  0.16380000000000000          4.7627935409545898     
  0.16490000000000005          4.7859492301940918     
  0.16600000000000004          4.7697381973266602     
  0.16710000000000003          4.7137274742126465     
  0.16820000000000002          4.6179776191711426     
  0.16930000000000001          4.4830918312072754     
  0.17040000000000000          4.3102288246154785     
  0.17150000000000004          4.1010627746582031     
  0.17260000000000003          3.8577303886413574     
  0.17370000000000002          3.5827934741973877     
  0.17480000000000001          3.2792148590087891     
  0.17590000000000000          2.9503471851348877     
  0.17700000000000005          2.5998814105987549     
  0.17810000000000004          2.2317659854888916     
  0.17920000000000003          1.8501231670379639     
  0.18030000000000002          1.4591850042343140     
  0.18140000000000001          1.0632565021514893     
  0.18250000000000000         0.66666048765182495     
  0.18360000000000004         0.27366065979003906     
  0.18470000000000003        -0.11163346469402313     
  0.18580000000000002        -0.48534208536148071     
  0.18690000000000001        -0.84384095668792725     
  0.18800000000000000         -1.1837759017944336     
  0.18910000000000005         -1.5020935535430908     
  0.19020000000000004         -1.7961210012435913     
  0.19130000000000003         -2.0636413097381592     
  0.19240000000000002         -2.3029086589813232     
  0.19350000000000001         -2.5126092433929443     
  0.19460000000000005         -2.6918165683746338     
  0.19570000000000004         -2.8399949073791504     
  0.19680000000000003         -2.9570455551147461     
  0.19790000000000002         -3.0433378219604492     
  0.19900000000000001         -3.0996623039245605     
  0.20010000000000000         -3.1271443367004395     
  0.20120000000000005         -3.1271598339080811     
  0.20230000000000004         -3.1013054847717285     
  0.20340000000000003         -3.0514287948608398     
  0.20450000000000002         -2.9796326160430908     
  0.20560000000000000         -2.8882150650024414     
  0.20670000000000005         -2.7795555591583252     
  0.20780000000000004         -2.6560196876525879     
  0.20890000000000003         -2.5199408531188965     
