 -0.12000000000000000          0.0000000000000000     
 -0.11889999999999999          0.0000000000000000     
 -0.11780000000000000          0.0000000000000000     
 -0.11670000000000000        -0.72457569837570190     
 -0.11559999999999999         -2.3218743801116943     
 -0.11449999999999999         -1.7061475515365601     
 -0.11340000000000000          5.7213196754455566     
 -0.11230000000000000          18.141199111938477     
 -0.11119999999999999          22.656120300292969     
 -0.11009999999999999          5.5417194366455078     
 -0.10900000000000000         -27.635589599609375     
 -0.10790000000000000         -46.081268310546875     
 -0.10679999999999999         -19.083368301391602     
 -0.10569999999999999          45.534194946289062     
 -0.10460000000000000          93.923187255859375     
 -0.10349999999999999          71.615150451660156     
 -0.10239999999999999         -14.764934539794922     
 -0.10130000000000000         -87.821525573730469     
 -0.10020000000000000         -67.389770507812500     
  -9.9099999999999994E-002     43.084751129150391     
  -9.7999999999999990E-002     146.11189270019531     
  -9.6899999999999986E-002     142.02101135253906     
  -9.5799999999999996E-002     37.242694854736328     
  -9.4699999999999993E-002    -50.495677947998047     
  -9.3599999999999989E-002    -11.223957061767578     
  -9.2499999999999999E-002     131.56230163574219     
  -9.1399999999999995E-002     231.40664672851562     
  -9.0299999999999991E-002     173.35733032226562     
  -8.9200000000000002E-002     15.856286048889160     
  -8.8099999999999984E-002    -45.489830017089844     
  -8.6999999999999994E-002     121.40535736083984     
  -8.5899999999999990E-002     423.17816162109375     
  -8.4799999999999986E-002     606.72729492187500     
  -8.3699999999999997E-002     511.88156127929688     
  -8.2599999999999993E-002     256.18368530273438     
  -8.1499999999999989E-002     140.38917541503906     
  -8.0399999999999999E-002     346.86773681640625     
  -7.9299999999999995E-002     738.72741699218750     
  -7.8199999999999992E-002     988.36407470703125     
  -7.7100000000000002E-002     924.53094482421875     
  -7.5999999999999984E-002     735.91821289062500     
  -7.4899999999999994E-002     792.98950195312500     
  -7.3799999999999991E-002     1248.5681152343750     
  -7.2699999999999987E-002     1838.1019287109375     
  -7.1599999999999997E-002     2122.3466796875000     
  -7.0499999999999993E-002     1952.5042724609375     
  -6.9399999999999989E-002     1671.4384765625000     
  -6.8300000000000000E-002     1804.5517578125000     
  -6.7199999999999996E-002     2523.7946777343750     
  -6.6099999999999992E-002     3438.8286132812500     
  -6.5000000000000002E-002     3965.2001953125000     
  -6.3899999999999985E-002     3922.8850097656250     
  -6.2799999999999995E-002     3747.9396972656250     
  -6.1699999999999991E-002     4068.7800292968750     
  -6.0599999999999994E-002     5056.6166992187500     
  -5.9499999999999990E-002     6222.9858398437500     
  -5.8399999999999994E-002     6902.7851562500000     
  -5.7299999999999990E-002     6948.3764648437500     
  -5.6199999999999986E-002     6912.0083007812500     
  -5.5099999999999996E-002     7499.1708984375000     
  -5.3999999999999992E-002     8833.4628906250000     
  -5.2899999999999989E-002     10299.400390625000     
  -5.1799999999999985E-002     11153.996093750000     
  -5.0699999999999995E-002     11297.839843750000     
  -4.9599999999999991E-002     11402.413085937500     
  -4.8499999999999988E-002     12235.400390625000     
  -4.7399999999999998E-002     13859.366210937500     
  -4.6299999999999994E-002     15537.573242187500     
  -4.5199999999999990E-002     16465.738281250000     
  -4.4099999999999986E-002     16595.427734375000     
  -4.2999999999999997E-002     16695.750000000000     
  -4.1899999999999993E-002     17575.117187500000     
  -4.0799999999999989E-002     19250.847656250000     
  -3.9699999999999985E-002     20922.013671875000     
  -3.8599999999999995E-002     21780.931640625000     
  -3.7499999999999992E-002     21828.554687500000     
  -3.6399999999999988E-002     21856.238281250000     
  -3.5299999999999984E-002     22611.917968750000     
  -3.4199999999999994E-002     24017.529296875000     
  -3.3099999999999991E-002     25248.796875000000     
  -3.1999999999999987E-002     25586.273437500000     
  -3.0899999999999997E-002     25152.917968750000     
  -2.9799999999999993E-002     24766.412109375000     
  -2.8699999999999989E-002     25071.978515625000     
  -2.7599999999999986E-002     25862.382812500000     
  -2.6499999999999996E-002     26288.000000000000     
  -2.5399999999999992E-002     25737.296875000000     
  -2.4299999999999988E-002     24446.679687500000     
  -2.3199999999999985E-002     23217.343750000000     
  -2.2099999999999995E-002     22549.685546875000     
  -2.0999999999999991E-002     22117.242187500000     
  -1.9899999999999987E-002     21126.880859375000     
  -1.8799999999999983E-002     19159.753906250000     
  -1.7699999999999994E-002     16592.070312500000     
  -1.6599999999999990E-002     14144.318359375000     
  -1.5499999999999986E-002     12075.128906250000     
  -1.4399999999999996E-002     9882.1171875000000     
  -1.3299999999999992E-002     6849.4794921875000     
  -1.2199999999999989E-002     2844.8786621093750     
  -1.1099999999999985E-002    -1532.4443359375000     
  -9.9999999999999950E-003    -5586.3808593750000     
  -8.8999999999999913E-003    -9295.5800781250000     
  -7.7999999999999875E-003    -13362.578125000000     
  -6.6999999999999837E-003    -18460.691406250000     
  -5.5999999999999939E-003    -24490.927734375000     
  -4.4999999999999901E-003    -30643.882812500000     
  -3.3999999999999864E-003    -36224.250000000000     
  -2.2999999999999826E-003    -41360.875000000000     
  -1.1999999999999927E-003    -46847.460937500000     
  -9.9999999999988987E-005    -53241.640625000000     
   1.0000000000000148E-003    -60192.789062500000     
   2.1000000000000185E-003    -66743.242187500000     
   3.2000000000000084E-003    -72253.265625000000     
   4.3000000000000121E-003    -77042.382812500000     
   5.4000000000000159E-003    -81963.148437500000     
   6.5000000000000058E-003    -87457.671875000000     
   7.6000000000000234E-003    -92982.601562500000     
   8.7000000000000133E-003    -97461.781250000000     
   9.8000000000000032E-003    -100287.89843750000     
   1.0900000000000021E-002    -101891.59375000000     
   1.2000000000000011E-002    -103163.94531250000     
   1.3100000000000001E-002    -104455.98437500000     
   1.4200000000000018E-002    -105152.85937500000     
   1.5300000000000008E-002    -104298.32812500000     
   1.6400000000000026E-002    -101468.76562500000     
   1.7500000000000016E-002    -97186.734375000000     
   1.8600000000000005E-002    -92336.039062500000     
   1.9700000000000023E-002    -87124.734375000000     
   2.0800000000000013E-002    -80988.234375000000     
   2.1900000000000003E-002    -73185.515625000000     
   2.3000000000000020E-002    -63684.292968750000     
   2.4100000000000010E-002    -53127.175781250000     
   2.5200000000000000E-002    -42312.769531250000     
   2.6300000000000018E-002    -31374.498046875000     
   2.7400000000000008E-002    -19723.507812500000     
   2.8500000000000025E-002    -6999.3530273437500     
   2.9600000000000015E-002     6496.4272460937500     
   3.0700000000000005E-002     19847.691406250000     
   3.1800000000000023E-002     32385.517578125000     
   3.2900000000000013E-002     44353.476562500000     
   3.4000000000000002E-002     56342.242187500000     
   3.5100000000000020E-002     68472.835937500000     
   3.6200000000000010E-002     80117.242187500000     
   3.7300000000000028E-002     90143.101562500000     
   3.8400000000000017E-002     98210.507812500000     
   3.9500000000000007E-002     104898.06250000000     
   4.0600000000000025E-002     111011.45312500000     
   4.1700000000000015E-002     116493.64062500000     
   4.2800000000000005E-002     120488.41406250000     
   4.3900000000000022E-002     121961.06250000000     
   4.5000000000000012E-002     120884.11718750000     
   4.6100000000000002E-002     118311.35156250000     
   4.7200000000000020E-002     115311.09375000000     
   4.8300000000000010E-002     111852.41406250000     
   4.9400000000000027E-002     106848.21875000000     
   5.0500000000000017E-002     99346.726562500000     
   5.1600000000000007E-002     89660.015625000000     
   5.2700000000000025E-002     79195.578125000000     
   5.3800000000000014E-002     69217.375000000000     
   5.4900000000000004E-002     59694.328125000000     
   5.6000000000000022E-002     49472.097656250000     
   5.7100000000000012E-002     37677.136718750000     
   5.8200000000000002E-002     24886.212890625000     
   5.9300000000000019E-002     12603.477539062500     
   6.0400000000000009E-002     1905.3735351562500     
   6.1500000000000027E-002    -7420.2109375000000     
   6.2600000000000017E-002    -16549.912109375000     
   6.3700000000000007E-002    -26119.191406250000     
   6.4800000000000024E-002    -35491.558593750000     
   6.5900000000000014E-002    -43304.046875000000     
   6.7000000000000004E-002    -48780.171875000000     
   6.8100000000000022E-002    -52645.382812500000     
   6.9200000000000012E-002    -55984.867187500000     
   7.0300000000000029E-002    -59426.402343750000     
   7.1400000000000019E-002    -62035.238281250000     
   7.2500000000000009E-002    -62712.382812500000     
   7.3600000000000027E-002    -61184.488281250000     
   7.4700000000000016E-002    -58589.980468750000     
   7.5800000000000006E-002    -56061.429687500000     
   7.6900000000000024E-002    -53808.597656250000     
   7.8000000000000014E-002    -50841.964843750000     
   7.9100000000000004E-002    -46308.261718750000     
   8.0200000000000021E-002    -40275.605468750000     
   8.1300000000000011E-002    -34160.937500000000     
   8.2400000000000029E-002    -28988.162109375000     
   8.3500000000000019E-002    -24621.132812500000     
   8.4600000000000009E-002    -19926.080078125000     
   8.5700000000000026E-002    -14135.596679687500     
   8.6800000000000016E-002    -7707.0278320312500     
   8.7900000000000006E-002    -2077.4877929687500     
   8.9000000000000024E-002     1880.6058349609375     
   9.0100000000000013E-002     4672.6269531250000     
   9.1200000000000003E-002     7695.8642578125000     
   9.2300000000000021E-002     11624.954101562500     
   9.3400000000000011E-002     15695.059570312500     
   9.4500000000000028E-002     18492.662109375000     
   9.5600000000000018E-002     19435.310546875000     
   9.6700000000000008E-002     19406.990234375000     
   9.7800000000000026E-002     19836.773437500000     
   9.8900000000000016E-002     21187.867187500000     
  0.10000000000000001          22487.509765625000     
  0.10110000000000002          22369.337890625000     
  0.10220000000000001          20585.332031250000     
  0.10330000000000003          18344.314453125000     
  0.10440000000000002          17090.294921875000     
  0.10550000000000001          17052.871093750000     
  0.10660000000000003          16965.380859375000     
  0.10770000000000002          15449.057617187500     
  0.10880000000000001          12519.906250000000     
  0.10990000000000003          9619.5390625000000     
  0.11100000000000002          8148.8046875000000     
  0.11210000000000001          8013.8193359375000     
  0.11320000000000002          7750.4262695312500     
  0.11430000000000001          6070.5000000000000     
  0.11540000000000003          3277.2878417968750     
  0.11650000000000002          907.54687500000000     
  0.11760000000000001          206.34399414062500     
  0.11870000000000003          829.80316162109375     
  0.11980000000000002          1130.0307617187500     
  0.12090000000000001         -52.354518890380859     
  0.12200000000000003         -2224.2485351562500     
  0.12310000000000001         -3749.7998046875000     
  0.12420000000000003         -3574.3208007812500     
  0.12530000000000002         -2299.6848144531250     
  0.12640000000000001         -1576.6875000000000     
  0.12750000000000003         -2355.3259277343750     
  0.12860000000000002         -3933.1232910156250     
  0.12970000000000001         -4707.7114257812500     
  0.13080000000000003         -3880.9030761718750     
  0.13190000000000002         -2309.1135253906250     
  0.13300000000000001         -1546.1796875000000     
  0.13410000000000000         -2256.9350585937500     
  0.13520000000000004         -3480.8720703125000     
  0.13630000000000003         -3734.8662109375000     
  0.13740000000000002         -2566.9833984375000     
  0.13850000000000001         -1037.9505615234375     
  0.13960000000000000         -578.99230957031250     
  0.14070000000000005         -1443.1795654296875     
  0.14180000000000004         -2448.8122558593750     
  0.14290000000000003         -2276.9338378906250     
  0.14400000000000002         -907.40942382812500     
  0.14510000000000001          350.92425537109375     
  0.14620000000000000          262.24374389648438     
  0.14730000000000004         -976.85516357421875     
  0.14840000000000003         -1908.9554443359375     
  0.14950000000000002         -1369.6297607421875     
  0.15060000000000001          238.61647033691406     
  0.15170000000000000          1331.8728027343750     
  0.15280000000000005          810.51446533203125     
  0.15390000000000004         -738.58215332031250     
  0.15500000000000003         -1629.0568847656250     
  0.15610000000000002         -837.06585693359375     
  0.15720000000000001          890.05175781250000     
  0.15830000000000000          1772.1092529296875     
  0.15940000000000004          864.53131103515625     
  0.16050000000000003         -922.39447021484375     
  0.16160000000000002         -1736.2785644531250     
  0.16270000000000001         -697.22467041015625     
  0.16380000000000000          1174.2124023437500     
  0.16490000000000005          1978.1022949218750     
  0.16600000000000004          898.68603515625000     
  0.16710000000000003         -962.96478271484375     
  0.16820000000000002         -1715.8493652343750     
  0.16930000000000001         -620.52404785156250     
  0.17040000000000000          1163.9044189453125     
  0.17150000000000004          1797.8425292968750     
  0.17260000000000003          653.73419189453125     
  0.17370000000000002         -1057.7694091796875     
  0.17480000000000001         -1577.8027343750000     
  0.17590000000000000         -412.89089965820312     
  0.17700000000000005          1184.9954833984375     
  0.17810000000000004          1555.0734863281250     
  0.17920000000000003          358.19055175781250     
  0.18030000000000002         -1118.5804443359375     
  0.18140000000000001         -1336.2851562500000     
  0.18250000000000000         -118.97784423828125     
  0.18360000000000004          1201.0167236328125     
  0.18470000000000003          1218.1318359375000     
  0.18580000000000002         -68.669906616210938     
  0.18690000000000001         -1275.4593505859375     
  0.18800000000000000         -1128.4222412109375     
  0.18910000000000005          191.18446350097656     
  0.19020000000000004          1253.2103271484375     
  0.19130000000000003          918.27044677734375     
  0.19240000000000002         -450.61492919921875     
  0.19350000000000001         -1381.4793701171875     
  0.19460000000000005         -863.68920898437500     
  0.19570000000000004          564.67309570312500     
  0.19680000000000003          1385.5520019531250     
  0.19790000000000002          710.65228271484375     
  0.19900000000000001         -759.66717529296875     
  0.20010000000000000         -1462.1894531250000     
  0.20120000000000005         -623.48638916015625     
  0.20230000000000004          909.44616699218750     
  0.20340000000000003          1536.4293212890625     
  0.20450000000000002          583.13336181640625     
  0.20560000000000000         -982.46765136718750     
  0.20670000000000005         -1537.1148681640625     
  0.20780000000000004         -482.93731689453125     
  0.20890000000000003          1120.4279785156250     
