 -0.12000000000000000          0.0000000000000000
 -0.11889999999999999          0.0000000000000000
 -0.11780000000000000          0.0000000000000000
 -0.11670000000000000          0.0000000000000000
 -0.11559999999999999          1.7095492266504908E-017
 -0.11449999999999999          4.2738731493442882E-017
 -0.11340000000000000          3.4190987841732265E-017
 -0.11230000000000000          2.5643244190021649E-017
 -0.11119999999999999          7.6929722643897597E-017
 -0.11009999999999999         -8.5477337255432655E-018
 -0.10900000000000000         -4.3593503542508228E-016
 -0.10790000000000000         -1.2052321692198296E-015
 -0.10679999999999999         -8.8041774501870372E-016
 -0.10569999999999999         -4.1883936945064874E-016
 -0.10460000000000000          6.5817673432902782E-016
 -0.10349999999999999          3.5131239941205454E-015
 -0.10239999999999999          2.5386805626984900E-015
 -0.10130000000000000         -6.5048352582185512E-015
 -0.10020000000000000         -1.3907184933281865E-014
  -9.9099999999999994E-002    -1.2283114453402570E-014
  -9.7999999999999990E-002    -7.3767099877499256E-015
  -9.6899999999999986E-002    -1.3761930641289014E-015
  -9.5799999999999996E-002     1.2830160517991393E-014
  -9.4699999999999993E-002     2.0950517999585548E-014
  -9.3599999999999989E-002     2.8122002068611124E-015
  -9.2499999999999999E-002    -2.5173121237249269E-014
  -9.1399999999999995E-002    -2.3617433421267708E-014
  -9.0299999999999991E-002    -3.4618482193837959E-015
  -8.9200000000000002E-002     9.0349574000179837E-015
  -8.8099999999999984E-002    -4.7269139489647220E-015
  -8.6999999999999994E-002    -7.5382584831425181E-014
  -8.5899999999999990E-002    -1.3072069739595432E-013
  -8.4799999999999986E-002    -1.9753851874561301E-014
  -8.3699999999999997E-002     1.8421248142337643E-013
  -8.2599999999999993E-002     1.2559205520186467E-013
  -8.1499999999999989E-002    -3.3686632449443296E-014
  -8.0399999999999999E-002     1.5277392523792288E-013
  -7.9299999999999995E-002     3.2610513681780029E-013
  -7.8199999999999992E-002     1.9308514476960165E-013
  -7.7100000000000002E-002     2.8764032713839149E-013
  -7.5999999999999984E-002     9.2487476011093861E-013
  -7.4899999999999994E-002     1.4920860770886724E-012
  -7.3799999999999991E-002     1.3415604347907784E-012
  -7.2699999999999987E-002     1.4068764599486916E-013
  -7.1599999999999997E-002    -1.5328413451726197E-012
  -7.0499999999999993E-002    -2.1560231898420934E-012
  -6.9399999999999989E-002    -9.5860342233522466E-013
  -6.8300000000000000E-002    -7.6287852987869109E-014
  -6.7199999999999996E-002     5.2593519817012435E-013
  -6.6099999999999992E-002    -5.1738550509855541E-013
  -6.5000000000000002E-002    -8.9548637602354653E-013
  -6.3899999999999985E-002    -1.4836566220380321E-012
  -6.2799999999999995E-002     2.0595378701082634E-012
  -6.1699999999999991E-002     4.4823619642364587E-012
  -6.0599999999999994E-002     6.3450013472465816E-012
  -5.9499999999999990E-002     8.9778939491025334E-012
  -5.8399999999999994E-002     7.5494454437885494E-012
  -5.7299999999999990E-002     5.9809505438546129E-012
  -5.6199999999999986E-002     1.0854583724906330E-011
  -5.5099999999999996E-002     6.2050698780569125E-012
  -5.3999999999999992E-002    -5.7268491164552682E-012
  -5.2899999999999989E-002    -3.6424967209125469E-011
  -5.1799999999999985E-002    -8.4208723327705570E-011
  -5.0699999999999995E-002    -8.9138321723858382E-011
  -4.9599999999999991E-002    -3.0486915075789156E-011
  -4.8499999999999988E-002     5.0291801972912609E-011
  -4.7399999999999998E-002     8.6815887812008441E-011
  -4.6299999999999994E-002     8.3566834008230728E-011
  -4.5199999999999990E-002     2.6540013242648541E-011
  -4.4099999999999986E-002    -2.7685884834705021E-011
  -4.2999999999999997E-002     1.7240976007970588E-011
  -4.1899999999999993E-002     1.7924652040424149E-010
  -4.0799999999999989E-002     2.5610394360775501E-010
  -3.9699999999999985E-002     1.1560952889455578E-010
  -3.8599999999999995E-002    -1.6269041669403350E-010
  -3.7499999999999992E-002    -3.8161077076104277E-010
  -3.6399999999999988E-002    -2.4985524760268163E-010
  -3.5299999999999984E-002    -7.5525662113218317E-011
  -3.4199999999999994E-002    -6.9251611389820056E-011
  -3.3099999999999991E-002     8.7152042527183227E-011
  -3.1999999999999987E-002     4.2617603890349187E-010
  -3.0899999999999997E-002     7.1702410675555939E-010
  -2.9799999999999993E-002     7.0985373135101781E-010
  -2.8699999999999989E-002     2.8702598631191734E-010
  -2.7599999999999986E-002     7.0346319047676076E-011
  -2.6499999999999996E-002    -1.1832407276202161E-010
  -2.5399999999999992E-002    -3.1595742688850237E-010
  -2.4299999999999988E-002    -6.4322339121680727E-011
  -2.3199999999999985E-002     2.8142391195196126E-010
  -2.2099999999999995E-002     1.3756837335954231E-010
  -2.0999999999999991E-002    -2.9758345787556095E-010
  -1.9899999999999987E-002    -8.6281648492558816E-011
  -1.8799999999999983E-002    -3.4749594868266342E-010
  -1.7699999999999994E-002    -6.3615929191129794E-010
  -1.6599999999999990E-002    -8.3855411503463984E-010
  -1.5499999999999986E-002    -1.8498616527473644E-010
  -1.4399999999999996E-002     1.1678558120564730E-010
  -1.3299999999999992E-002    -2.5814628212827984E-010
  -1.2199999999999989E-002    -1.9954482510797789E-009
  -1.1099999999999985E-002    -3.3518243736097020E-009
  -9.9999999999999950E-003    -2.6467197322688207E-009
  -8.8999999999999913E-003     8.1897721937451706E-010
  -7.7999999999999875E-003     4.3653414216748843E-009
  -6.6999999999999837E-003     5.3393356402864356E-009
  -5.5999999999999939E-003     3.9381449212783082E-009
  -4.4999999999999901E-003     2.1425836660426967E-009
  -3.3999999999999864E-003     1.7990220424479730E-009
  -2.2999999999999826E-003     3.0329414535401611E-009
  -1.1999999999999927E-003     2.5459723218546060E-009
  -9.9999999999988987E-005    -4.8647774697485602E-010
   1.0000000000000148E-003    -4.1642613801684547E-009
   2.1000000000000185E-003    -5.9956750675382864E-009
   3.2000000000000084E-003    -4.5466448383990610E-009
   4.3000000000000121E-003     8.8194029856936140E-010
   5.4000000000000159E-003     5.2349697909903625E-009
   6.5000000000000058E-003     3.8158520787590078E-009
   7.6000000000000234E-003    -1.7620798153927808E-009
   8.7000000000000133E-003    -8.3797155880915852E-009
   9.8000000000000032E-003    -1.1698982227414945E-008
   1.0900000000000021E-002    -8.7441751617234331E-009
   1.2000000000000011E-002    -2.4909985185672667E-009
   1.3100000000000001E-002     2.9734383844015611E-009
   1.4200000000000018E-002     4.7451349516336450E-009
   1.5300000000000008E-002     4.9393502621342122E-009
   1.6400000000000026E-002     5.5996398629076793E-009
   1.7500000000000016E-002     6.4750405037727887E-009
   1.8600000000000005E-002     4.7511821144041733E-009
   1.9700000000000023E-002    -7.0126793261238163E-010
   2.0800000000000013E-002    -8.7350509048178537E-009
   2.1900000000000003E-002    -1.4438464646104876E-008
   2.3000000000000020E-002    -1.1833213520162644E-008
   2.4100000000000010E-002    -1.6632220045664781E-009
   2.5200000000000000E-002     7.8435107297991635E-009
   2.6300000000000018E-002     1.1509754038740994E-008
   2.7400000000000008E-002     8.9198497477127603E-009
   2.8500000000000025E-002     6.1686122876380978E-009
   2.9600000000000015E-002     5.4609303745678517E-009
   3.0700000000000005E-002     3.9645073890426374E-009
   3.1800000000000023E-002    -1.7624330883592165E-009
   3.2900000000000013E-002    -1.2293520867956431E-008
   3.4000000000000002E-002    -2.1892461177230871E-008
   3.5100000000000020E-002    -2.3819106687028579E-008
   3.6200000000000010E-002    -1.4309012641433583E-008
   3.7300000000000028E-002     1.5827101851328962E-009
   3.8400000000000017E-002     1.3459026781958983E-008
   3.9500000000000007E-002     1.6228975496801468E-008
   4.0600000000000025E-002     1.3406035392904414E-008
   4.1700000000000015E-002     1.1802057997556403E-008
   4.2800000000000005E-002     1.0126376182029162E-008
   4.3900000000000022E-002     3.0012141660762381E-009
   4.5000000000000012E-002    -9.9319468205294470E-009
   4.6100000000000002E-002    -1.5766440597531073E-008
   4.7200000000000020E-002    -1.3785232511054346E-008
   4.8300000000000010E-002    -5.7809148579224257E-009
   4.9400000000000027E-002     4.7330326324868111E-009
   5.0500000000000017E-002     1.2880758681887983E-008
   5.1600000000000007E-002     1.6080928588735333E-008
   5.2700000000000025E-002     1.7560211063027964E-008
   5.3800000000000014E-002     2.0545270373872881E-008
   5.4900000000000004E-002     2.1486773249534963E-008
   5.6000000000000022E-002     1.5329611358083639E-008
   5.7100000000000012E-002     1.4643037893335986E-009
   5.8200000000000002E-002    -1.5412558340699434E-008
   5.9300000000000019E-002    -2.6158755161986846E-008
   6.0400000000000009E-002    -2.1865103505547268E-008
   6.1500000000000027E-002    -7.8197484043585064E-009
   6.2600000000000017E-002     5.3113828890616333E-009
   6.3700000000000007E-002     8.3502200709517638E-009
   6.4800000000000024E-002     4.0707988091526204E-009
   6.5900000000000014E-002     1.3520531361166377E-009
   6.7000000000000004E-002     6.4445284664316205E-009
   6.8100000000000022E-002     1.3813595600709050E-008
   6.9200000000000012E-002     1.2130071169735857E-008
   7.0300000000000029E-002     3.1840041714303879E-010
   7.1400000000000019E-002    -1.0489419111081588E-008
   7.2500000000000009E-002    -9.3944247936406100E-009
   7.3600000000000027E-002     1.7749388625531992E-009
   7.4700000000000016E-002     1.1474376115927498E-008
   7.5800000000000006E-002     1.0023889274179965E-008
   7.6900000000000024E-002    -5.6881743759618075E-010
   7.8000000000000014E-002    -1.1950263889559665E-008
   7.9100000000000004E-002    -1.7774674176962435E-008
   8.0200000000000021E-002    -1.8543975244256217E-008
   8.1300000000000011E-002    -2.0102017828094176E-008
   8.2400000000000029E-002    -2.1552503781663290E-008
   8.3500000000000019E-002    -1.6979878836309581E-008
   8.4600000000000009E-002    -1.5082926019260867E-009
   8.5700000000000026E-002     2.1671439753845334E-008
   8.6800000000000016E-002     3.8326138707134305E-008
   8.7900000000000006E-002     3.5943504173019392E-008
   8.9000000000000024E-002     1.4953762672575976E-008
   9.0100000000000013E-002    -8.1153874731398901E-009
   9.1200000000000003E-002    -1.7130613372273729E-008
   9.2300000000000021E-002    -9.6181391739946775E-009
   9.3400000000000011E-002     1.0672247530152390E-009
   9.4500000000000028E-002     1.6782197853615344E-009
   9.5600000000000018E-002    -8.9682643533706141E-009
   9.6700000000000008E-002    -1.6172972294725696E-008
   9.7800000000000026E-002    -8.0868662877264796E-009
   9.8900000000000016E-002     1.2332275645121626E-008
  0.10000000000000001          2.8556751630048893E-008
  0.10110000000000002          2.5376413859135027E-008
  0.10220000000000001          4.4852628278135853E-009
  0.10330000000000003         -1.7131887020127579E-008
  0.10440000000000002         -2.2714296221693075E-008
  0.10550000000000001         -1.1531486876492636E-008
  0.10660000000000003          1.6186926243833000E-009
  0.10770000000000002          2.9220776909255619E-009
  0.10880000000000001         -6.7396004332920256E-009
  0.10990000000000003         -1.4538103165762095E-008
  0.11100000000000002         -1.0201736344583878E-008
  0.11210000000000001          2.6707298594885742E-009
  0.11320000000000002          1.1742901762090696E-008
  0.11430000000000001          1.0144667328404466E-008
  0.11540000000000003          4.2576555614459721E-009
  0.11650000000000002          5.4558650930403019E-009
  0.11760000000000001          1.5827664512357842E-008
  0.11870000000000003          2.3815317717890139E-008
  0.11980000000000002          1.6718306738994215E-008
  0.12090000000000001         -3.8993328566050423E-009
  0.12200000000000003         -2.0246119447620003E-008
  0.12310000000000001         -1.5942243081212837E-008
  0.12420000000000003          6.5698895213017749E-009
  0.12530000000000002          2.6738208092069726E-008
  0.12640000000000001          2.5632937550312818E-008
  0.12750000000000003          5.4634474722092818E-009
  0.12860000000000002         -1.1640707953120000E-008
  0.12970000000000001         -6.4181273629060343E-009
  0.13080000000000003          1.6719173601131843E-008
  0.13190000000000002          3.2475472977466779E-008
  0.13300000000000001          1.8909442900394424E-008
  0.13410000000000000         -1.8417397384951073E-008
  0.13520000000000004         -4.8923425310931634E-008
  0.13630000000000003         -4.5435186279974005E-008
  0.13740000000000002         -1.0879075418301909E-008
  0.13850000000000001          2.3910073920774266E-008
  0.13960000000000000          2.9630095710331261E-008
  0.14070000000000005          6.1039751031444212E-009
  0.14180000000000004         -1.8195201789694693E-008
  0.14290000000000003         -1.5556196331090177E-008
  0.14400000000000002          1.3158305556260075E-008
  0.14510000000000001          3.9182797451076112E-008
  0.14620000000000000          3.4357896083747619E-008
  0.14730000000000004         -5.3213966566545423E-010
  0.14840000000000003         -3.6244525603024158E-008
  0.14950000000000002         -4.3080486733515500E-008
  0.15060000000000001         -1.8137146895469414E-008
  0.15170000000000000          1.3325625936033703E-008
  0.15280000000000005          2.3610038368815367E-008
  0.15390000000000004          8.4105131747946871E-009
  0.15500000000000003         -1.2020022310821332E-008
  0.15610000000000002         -1.5726794089232499E-008
  0.15720000000000001         -6.8305094913512221E-010
  0.15830000000000000          1.5311886869540103E-008
  0.15940000000000004          1.4462058217645790E-008
  0.16050000000000003         -2.6404221031839370E-009
  0.16160000000000002         -1.9362540015777086E-008
  0.16270000000000001         -2.1395480942487666E-008
  0.16380000000000000         -1.0755355717151360E-008
  0.16490000000000005         -1.6574195349505771E-009
  0.16600000000000004         -3.7861531687610750E-009
  0.16710000000000003         -1.2033789076326684E-008
  0.16820000000000002         -1.3619704475331673E-008
  0.16930000000000001         -3.9464596035543309E-009
  0.17040000000000000          7.3345174378403044E-009
  0.17150000000000004          7.1501853327049503E-009
  0.17260000000000003         -5.4879012445496755E-009
  0.17370000000000002         -1.6688273873910475E-008
  0.17480000000000001         -1.1688373824370046E-008
  0.17590000000000000          8.5844131803014534E-009
  0.17700000000000005          2.6742222658526771E-008
  0.17810000000000004          2.5650670920640550E-008
  0.17920000000000003          5.9732974122539417E-009
  0.18030000000000002         -1.3810512733414271E-008
  0.18140000000000001         -1.5440964062918283E-008
  0.18250000000000000          1.0306875353194300E-009
  0.18360000000000004          1.7749378855569375E-008
  0.18470000000000003          1.7560285670015219E-008
  0.18580000000000002          1.4344854193382162E-009
  0.18690000000000001         -1.3105011298364388E-008
  0.18800000000000000         -1.0361257629654119E-008
  0.18910000000000005          7.0506636085099217E-009
  0.19020000000000004          2.0649265408678730E-008
  0.19130000000000003          1.4872184372904940E-008
  0.19240000000000002         -7.1117511879492668E-009
  0.19350000000000001         -2.6637875905066721E-008
  0.19460000000000005         -2.8218469338980867E-008
  0.19570000000000004         -1.3995823167078925E-008
  0.19680000000000003          1.6520279588760900E-010
  0.19790000000000002          2.0392678656833141E-009
  0.19900000000000001         -4.7055355167913149E-009
  0.20010000000000000         -5.7909290696045446E-009
  0.20120000000000005          6.8302163924727211E-009
  0.20230000000000004          2.5035006956386496E-008
  0.20340000000000003          3.2006123973360445E-008
  0.20450000000000002          1.9467957912411293E-008
  0.20560000000000000         -3.6616261134270189E-009
  0.20670000000000005         -1.9580436827482117E-008
  0.20780000000000004         -1.8399880730157747E-008
  0.20890000000000003         -6.0437703730542580E-009
