 -0.12000000000000000          0.0000000000000000     
 -0.11889999999999999          0.0000000000000000     
 -0.11780000000000000          0.0000000000000000     
 -0.11670000000000000          0.0000000000000000     
 -0.11559999999999999          0.0000000000000000     
 -0.11449999999999999          0.0000000000000000     
 -0.11340000000000000          0.0000000000000000     
 -0.11230000000000000          0.0000000000000000     
 -0.11119999999999999          0.0000000000000000     
 -0.11009999999999999          0.0000000000000000     
 -0.10900000000000000          1.2739946215152890E-015
 -0.10790000000000000          6.9301093252112540E-015
 -0.10679999999999999         -1.5556696894764889E-014
 -0.10569999999999999         -2.7182685898193004E-013
 -0.10460000000000000         -1.1209476272547314E-012
 -0.10349999999999999         -1.7291914428119171E-012
 -0.10239999999999999          3.5571270321638204E-012
 -0.10130000000000000          2.6088936566637244E-011
 -0.10020000000000000          6.4138895583543132E-011
  -9.9099999999999994E-002     5.0921378225154967E-011
  -9.7999999999999990E-002    -1.8446554006512628E-010
  -9.6899999999999986E-002    -7.8463618935487034E-010
  -9.5799999999999996E-002    -1.3941607868162009E-009
  -9.4699999999999993E-002    -5.7503990458229737E-010
  -9.3599999999999989E-002     3.8465572949064608E-009
  -9.2499999999999999E-002     1.2032741913969858E-008
  -9.1399999999999995E-002     1.7198010127117414E-008
  -9.0299999999999991E-002     3.3154161638293544E-009
  -8.9200000000000002E-002    -4.5308738094718137E-008
  -8.8099999999999984E-002    -1.1733126825674844E-007
  -8.6999999999999994E-002    -1.4461589614711556E-007
  -8.5899999999999990E-002    -1.0784649617789910E-008
  -8.4799999999999986E-002     3.5605589232545753E-007
  -8.3699999999999997E-002     8.1742888369262801E-007
  -8.2599999999999993E-002     9.1410521463330952E-007
  -8.1499999999999989E-002     3.0671348127953024E-008
  -8.0399999999999999E-002    -2.0368645436974475E-006
  -7.9299999999999995E-002    -4.3444802031444851E-006
  -7.8199999999999992E-002    -4.5950705498398747E-006
  -7.7100000000000002E-002    -2.6674172204366187E-007
  -7.5999999999999984E-002     8.8689457697910257E-006
  -7.4899999999999994E-002     1.8292015738552436E-005
  -7.3799999999999991E-002     1.9025688743568026E-005
  -7.2699999999999987E-002     2.7077708182332572E-006
  -7.1599999999999997E-002    -2.9840402930858545E-005
  -7.0499999999999993E-002    -6.2305327446665615E-005
  -6.9399999999999989E-002    -6.6446329583413899E-005
  -6.8300000000000000E-002    -1.8813376300386153E-005
  -6.7199999999999996E-002     7.6184769568499178E-005
  -6.6099999999999992E-002     1.7320179904345423E-004
  -6.5000000000000002E-002     1.9916138262487948E-004
  -6.3899999999999985E-002     9.4980758149176836E-005
  -6.2799999999999995E-002    -1.3380983727984130E-004
  -6.1699999999999991E-002    -3.9154005935415626E-004
  -6.0599999999999994E-002    -5.1916041411459446E-004
  -5.9499999999999990E-002    -3.7252143374644220E-004
  -5.8399999999999994E-002     8.1606565800029784E-005
  -5.7299999999999990E-002     7.0269452407956123E-004
  -5.6199999999999986E-002     1.1894140625372529E-003
  -5.5099999999999996E-002     1.1841766536235809E-003
  -5.3999999999999992E-002     4.5167689677327871E-004
  -5.2899999999999989E-002    -9.2309335013851523E-004
  -5.1799999999999985E-002    -2.4141597095876932E-003
  -5.0699999999999995E-002    -3.1370851211249828E-003
  -4.9599999999999991E-002    -2.2239354439079762E-003
  -4.8499999999999988E-002     5.7305634254589677E-004
  -4.7399999999999998E-002     4.3510394170880318E-003
  -4.6299999999999994E-002     7.0619792677462101E-003
  -4.5199999999999990E-002     6.3787805847823620E-003
  -4.4099999999999986E-002     1.2294541811570525E-003
  -4.2999999999999997E-002    -6.8498300388455391E-003
  -4.1899999999999993E-002    -1.3673238456249237E-002
  -4.0799999999999989E-002    -1.4276488684117794E-002
  -3.9699999999999985E-002    -6.0548321343958378E-003
  -3.8599999999999995E-002     8.6809433996677399E-003
  -3.7499999999999992E-002     2.2736443206667900E-002
  -3.6399999999999988E-002     2.7330761775374413E-002
  -3.5299999999999984E-002     1.7185501754283905E-002
  -3.4199999999999994E-002    -5.5640018545091152E-003
  -3.3099999999999991E-002    -3.1231256201863289E-002
  -3.1999999999999987E-002    -4.6656329184770584E-002
  -3.0899999999999997E-002    -4.1467245668172836E-002
  -2.9799999999999993E-002    -1.3413450680673122E-002
  -2.8699999999999989E-002     2.9494395479559898E-002
  -2.7599999999999986E-002     7.0583544671535492E-002
  -2.6499999999999996E-002     8.9331343770027161E-002
  -2.5399999999999992E-002     6.8796001374721527E-002
  -2.4299999999999988E-002     4.7472179867327213E-003
  -2.3199999999999985E-002    -8.6346812546253204E-002
  -2.2099999999999995E-002   -0.16606847941875458     
  -2.0999999999999991E-002   -0.18539993464946747     
  -1.9899999999999987E-002   -0.10915693640708923     
  -1.8799999999999983E-002     5.6089155375957489E-002
  -1.7699999999999994E-002    0.24846623837947845     
  -1.6599999999999990E-002    0.36757305264472961     
  -1.5499999999999986E-002    0.32225003838539124     
  -1.4399999999999996E-002     8.8413774967193604E-002
  -1.3299999999999992E-002   -0.25746375322341919     
  -1.2199999999999989E-002   -0.55675524473190308     
  -1.1099999999999985E-002   -0.63941395282745361     
  -9.9999999999999950E-003   -0.41513326764106750     
  -8.8999999999999913E-003     6.3961595296859741E-002
  -7.7999999999999875E-003    0.60725146532058716     
  -6.6999999999999837E-003    0.96096760034561157     
  -5.5999999999999939E-003    0.92283266782760620     
  -4.4999999999999901E-003    0.44384136795997620     
  -3.3999999999999864E-003   -0.32942646741867065     
  -2.2999999999999826E-003    -1.0933774709701538     
  -1.1999999999999927E-003    -1.4970541000366211     
  -9.9999999999988987E-005    -1.2871084213256836     
   1.0000000000000148E-003   -0.43669033050537109     
   2.1000000000000185E-003    0.79626411199569702     
   3.2000000000000084E-003     1.9222608804702759     
   4.3000000000000121E-003     2.3911828994750977     
   5.4000000000000159E-003     1.8350310325622559     
   6.5000000000000058E-003    0.28616601228713989     
   7.6000000000000234E-003    -1.7438052892684937     
   8.7000000000000133E-003    -3.4016783237457275     
   9.8000000000000032E-003    -3.8318834304809570     
   1.0900000000000021E-002    -2.5919978618621826     
   1.2000000000000011E-002     5.1384579390287399E-002
   1.3100000000000001E-002     3.1232004165649414     
   1.4200000000000018E-002     5.2945575714111328     
   1.5300000000000008E-002     5.4740109443664551     
   1.6400000000000026E-002     3.3716170787811279     
   1.7500000000000016E-002   -0.25964912772178650     
   1.8600000000000005E-002    -3.8782999515533447     
   1.9700000000000023E-002    -5.8414449691772461     
   2.0800000000000013E-002    -5.2230315208435059     
   2.1900000000000003E-002    -2.3529791831970215     
   2.3000000000000020E-002     1.2332222461700439     
   2.4100000000000010E-002     3.4666340351104736     
   2.5200000000000000E-002     2.7496638298034668     
   2.6300000000000018E-002    -1.1881413459777832     
   2.7400000000000008E-002    -7.0187683105468750     
   2.8500000000000025E-002    -12.297510147094727     
   2.9600000000000015E-002    -14.515324592590332     
   3.0700000000000005E-002    -12.277893066406250     
   3.1800000000000023E-002    -6.1085171699523926     
   3.2900000000000013E-002     1.4794501066207886     
   3.4000000000000002E-002     6.7260017395019531     
   3.5100000000000020E-002     5.9848556518554688     
   3.6200000000000010E-002    -2.7174220085144043     
   3.7300000000000028E-002    -18.455524444580078     
   3.8400000000000017E-002    -37.016819000244141     
   3.9500000000000007E-002    -51.659107208251953     
   4.0600000000000025E-002    -54.950527191162109     
   4.1700000000000015E-002    -41.166358947753906     
   4.2800000000000005E-002    -8.3523931503295898     
   4.3900000000000022E-002     40.897186279296875     
   4.5000000000000012E-002     100.51623535156250     
   4.6100000000000002E-002     163.70962524414062     
   4.7200000000000020E-002     226.37722778320312     
   4.8300000000000010E-002     289.75750732421875     
   4.9400000000000027E-002     360.99703979492188     
   5.0500000000000017E-002     451.25308227539062     
   5.1600000000000007E-002     572.10052490234375     
   5.2700000000000025E-002     732.03179931640625     
   5.3800000000000014E-002     934.92510986328125     
   5.4900000000000004E-002     1181.6024169921875     
   5.6000000000000022E-002     1473.9958496093750     
   5.7100000000000012E-002     1820.0213623046875     
   5.8200000000000002E-002     2236.7980957031250     
   5.9300000000000019E-002     2750.4555664062500     
   6.0400000000000009E-002     3392.7416992187500     
   6.1500000000000027E-002     4196.1450195312500     
   6.2600000000000017E-002     5190.5371093750000     
   6.3700000000000007E-002     6403.1508789062500     
   6.4800000000000024E-002     7862.3012695312500     
   6.5900000000000014E-002     9603.0205078125000     
   6.7000000000000004E-002     11672.017578125000     
   6.8100000000000022E-002     14129.831054687500     
   6.9200000000000012E-002     17049.462890625000     
   7.0300000000000029E-002     20513.638671875000     
   7.1400000000000019E-002     24612.234375000000     
   7.2500000000000009E-002     29441.792968750000     
   7.3600000000000027E-002     35108.105468750000     
   7.4700000000000016E-002     41729.101562500000     
   7.5800000000000006E-002     49437.886718750000     
   7.6900000000000024E-002     58382.941406250000     
   7.8000000000000014E-002     68726.890625000000     
   7.9100000000000004E-002     80644.890625000000     
   8.0200000000000021E-002     94324.617187500000     
   8.1300000000000011E-002     109967.35156250000     
   8.2400000000000029E-002     127791.35937500000     
   8.3500000000000019E-002     148031.12500000000     
   8.4600000000000009E-002     170936.84375000000     
   8.5700000000000026E-002     196767.54687500000     
   8.6800000000000016E-002     225783.93750000000     
   8.7900000000000006E-002     258243.43750000000     
   8.9000000000000024E-002     294396.40625000000     
   9.0100000000000013E-002     334488.71875000000     
   9.1200000000000003E-002     378761.65625000000     
   9.2300000000000021E-002     427449.56250000000     
   9.3400000000000011E-002     480771.78125000000     
   9.4500000000000028E-002     538921.62500000000     
   9.5600000000000018E-002     602055.31250000000     
   9.6700000000000008E-002     670272.31250000000     
   9.7800000000000026E-002     743607.87500000000     
   9.8900000000000016E-002     822033.18750000000     
  0.10000000000000001          905438.31250000000     
  0.10110000000000002          993635.00000000000     
  0.10220000000000001          1086341.8750000000     
  0.10330000000000003          1183175.0000000000     
  0.10440000000000002          1283638.3750000000     
  0.10550000000000001          1387110.3750000000     
  0.10660000000000003          1492838.1250000000     
  0.10770000000000002          1599925.7500000000     
  0.10880000000000001          1707339.8750000000     
  0.10990000000000003          1813880.8750000000     
  0.11100000000000002          1918221.3750000000     
  0.11210000000000001          2018875.8750000000     
  0.11320000000000002          2114235.5000000000     
  0.11430000000000001          2202551.2500000000     
  0.11540000000000003          2282010.0000000000     
  0.11650000000000002          2350677.5000000000     
  0.11760000000000001          2406551.2500000000     
  0.11870000000000003          2447565.0000000000     
  0.11980000000000002          2471595.5000000000     
  0.12090000000000001          2476507.5000000000     
  0.12200000000000003          2460224.7500000000     
  0.12310000000000001          2420737.2500000000     
  0.12420000000000003          2356189.0000000000     
  0.12530000000000002          2264906.5000000000     
  0.12640000000000001          2145431.5000000000     
  0.12750000000000003          1996498.0000000000     
  0.12860000000000002          1817170.0000000000     
  0.12970000000000001          1606733.6250000000     
  0.13080000000000003          1364872.1250000000     
  0.13190000000000002          1091708.3750000000     
  0.13300000000000001          787801.18750000000     
  0.13410000000000000          454180.84375000000     
  0.13520000000000004          92351.609375000000     
  0.13630000000000003         -295670.78125000000     
  0.13740000000000002         -707423.62500000000     
  0.13850000000000001         -1139947.5000000000     
  0.13960000000000000         -1589888.0000000000     
  0.14070000000000005         -2053368.7500000000     
  0.14180000000000004         -2526124.2500000000     
  0.14290000000000003         -3003497.7500000000     
  0.14400000000000002         -3480480.2500000000     
  0.14510000000000001         -3951845.2500000000     
  0.14620000000000000         -4412175.0000000000     
  0.14730000000000004         -4855956.5000000000     
  0.14840000000000003         -5277649.5000000000     
  0.14950000000000002         -5671789.0000000000     
  0.15060000000000001         -6033067.5000000000     
  0.15170000000000000         -6356398.5000000000     
  0.15280000000000005         -6637021.5000000000     
  0.15390000000000004         -6870574.5000000000     
  0.15500000000000003         -7053189.0000000000     
  0.15610000000000002         -7181570.0000000000     
  0.15720000000000001         -7253037.5000000000     
  0.15830000000000000         -7265606.5000000000     
  0.15940000000000004         -7218022.0000000000     
  0.16050000000000003         -7109824.0000000000     
  0.16160000000000002         -6941324.0000000000     
  0.16270000000000001         -6713664.0000000000     
  0.16380000000000000         -6428767.5000000000     
  0.16490000000000005         -6089272.0000000000     
  0.16600000000000004         -5698599.5000000000     
  0.16710000000000003         -5260804.5000000000     
  0.16820000000000002         -4780549.0000000000     
  0.16930000000000001         -4263050.0000000000     
  0.17040000000000000         -3714018.0000000000     
  0.17150000000000004         -3139535.0000000000     
  0.17260000000000003         -2545971.2500000000     
  0.17370000000000002         -1939868.5000000000     
  0.17480000000000001         -1327822.3750000000     
  0.17590000000000000         -716402.68750000000     
  0.17700000000000005         -112031.37500000000     
  0.17810000000000004          479023.34375000000     
  0.17920000000000003          1050864.2500000000     
  0.18030000000000002          1597960.7500000000     
  0.18140000000000001          2115278.0000000000     
  0.18250000000000000          2598310.5000000000     
  0.18360000000000004          3043121.0000000000     
  0.18470000000000003          3446430.7500000000     
  0.18580000000000002          3805560.0000000000     
  0.18690000000000001          4118524.2500000000     
  0.18800000000000000          4383995.0000000000     
  0.18910000000000005          4601324.0000000000     
  0.19020000000000004          4770521.0000000000     
  0.19130000000000003          4892217.0000000000     
  0.19240000000000002          4967617.5000000000     
  0.19350000000000001          4998424.5000000000     
  0.19460000000000005          4986800.0000000000     
  0.19570000000000004          4935326.5000000000     
  0.19680000000000003          4846950.0000000000     
  0.19790000000000002          4724917.0000000000     
  0.19900000000000001          4572689.5000000000     
  0.20010000000000000          4393892.0000000000     
  0.20120000000000005          4192223.0000000000     
  0.20230000000000004          3971407.5000000000     
  0.20340000000000003          3735130.2500000000     
  0.20450000000000002          3487001.0000000000     
  0.20560000000000000          3230499.7500000000     
  0.20670000000000005          2968946.5000000000     
  0.20780000000000004          2705457.5000000000     
  0.20890000000000003          2442911.2500000000     
