 -0.12000000000000000          0.0000000000000000
 -0.11889999999999999          0.0000000000000000
 -0.11780000000000000          0.0000000000000000
 -0.11670000000000000          0.0000000000000000
 -0.11559999999999999          0.0000000000000000
 -0.11449999999999999          0.0000000000000000
 -0.11340000000000000          0.0000000000000000
 -0.11230000000000000          0.0000000000000000
 -0.11119999999999999          0.0000000000000000
 -0.11009999999999999          0.0000000000000000
 -0.10900000000000000          0.0000000000000000
 -0.10790000000000000         -8.7024385859171720E-030
 -0.10679999999999999          1.9979711595163633E-029
 -0.10569999999999999          4.1707423689389856E-028
 -0.10460000000000000          6.1652262711791712E-028
 -0.10349999999999999         -5.4797675817073379E-027
 -0.10239999999999999         -2.0429924345645630E-026
 -0.10130000000000000          2.1645639119276896E-026
 -0.10020000000000000          2.8549492457530621E-025
  -9.9099999999999994E-002     5.5793923015747546E-025
  -9.7999999999999990E-002    -9.0744651940597356E-025
  -9.6899999999999986E-002    -6.5431878456939571E-024
  -9.5799999999999996E-002    -1.0840977787984931E-023
  -9.4699999999999993E-002     1.2211823981476365E-023
  -9.3599999999999989E-002     8.9962126771736627E-023
  -9.2499999999999999E-002     1.5285321047070415E-022
  -9.1399999999999995E-002    -7.3175804108244914E-023
  -9.0299999999999991E-002    -8.5954910272895830E-022
  -8.9200000000000002E-002    -1.6358627524229847E-021
  -8.8099999999999984E-002    -1.6104313914515973E-022
  -8.6999999999999994E-002     5.9816006955187990E-021
  -8.5899999999999990E-002     1.3594059054519783E-020
  -8.4799999999999986E-002     7.9254307063722320E-021
  -8.3699999999999997E-002    -2.9609644115848806E-020
  -8.2599999999999993E-002    -8.8176975084361118E-020
  -8.1499999999999989E-002    -8.9006075014429210E-020
  -8.0399999999999999E-002     8.7725508953317625E-020
  -7.9299999999999995E-002     4.4281692376348511E-019
  -7.8199999999999992E-002     6.3949607160052478E-019
  -7.7100000000000002E-002     3.8782078676213137E-020
  -7.5999999999999984E-002    -1.6602898353513760E-018
  -7.4899999999999994E-002    -3.3587668772715689E-018
  -7.3799999999999991E-002    -2.2606343628852120E-018
  -7.2699999999999987E-002     4.0603864359227223E-018
  -7.1599999999999997E-002     1.3295782701641534E-017
  -7.0499999999999993E-002     1.5548371699093902E-017
  -6.9399999999999989E-002    -1.6986377217541813E-018
  -6.8300000000000000E-002    -3.8577357885256010E-017
  -6.7199999999999996E-002    -6.7775526563010054E-017
  -6.6099999999999992E-002    -4.0787865723405968E-017
  -6.5000000000000002E-002     6.9840778176873250E-017
  -6.3899999999999985E-002     2.1171330436270120E-016
  -6.2799999999999995E-002     2.3858332026686555E-016
  -6.1699999999999991E-002     3.1213693501913001E-018
  -6.0599999999999994E-002    -4.6156604065076060E-016
  -5.9499999999999990E-002    -8.1833647685294951E-016
  -5.8399999999999994E-002    -5.6201398379975356E-016
  -5.7299999999999990E-002     5.3223781108844952E-016
  -5.6199999999999986E-002     1.9277472498212484E-015
  -5.5099999999999996E-002     2.3455121579783050E-015
  -5.3999999999999992E-002     6.3002395320069585E-016
  -5.2899999999999989E-002    -2.9136277436136050E-015
  -5.1799999999999985E-002    -5.8721533156293713E-015
  -5.0699999999999995E-002    -4.9171499256215126E-015
  -4.9599999999999991E-002     1.3093541177775381E-015
  -4.8499999999999988E-002     9.6876081443386837E-015
  -4.7399999999999998E-002     1.3341381324076095E-014
  -4.6299999999999994E-002     6.5688141978235103E-015
  -4.5199999999999990E-002    -8.9629265652164253E-015
  -4.4099999999999986E-002    -2.2518303140119794E-014
  -4.2999999999999997E-002    -2.0943814580840978E-014
  -4.1899999999999993E-002    -6.0998992993223713E-016
  -4.0799999999999989E-002     2.5336522363104096E-014
  -3.9699999999999985E-002     3.3917689484927113E-014
  -3.8599999999999995E-002     1.2190816661272058E-014
  -3.7499999999999992E-002    -2.5476247224017270E-014
  -3.6399999999999988E-002    -4.2239344346436253E-014
  -3.5299999999999984E-002    -1.0137312335596095E-014
  -3.4199999999999994E-002     5.4178754852699657E-014
  -3.3099999999999991E-002     8.6275943529147414E-014
  -3.1999999999999987E-002     2.2287818698908321E-014
  -3.0899999999999997E-002    -1.2845245158342455E-013
  -2.9799999999999993E-002    -2.5208996131884098E-013
  -2.8699999999999989E-002    -1.9319174894821128E-013
  -2.7599999999999986E-002     1.0744112847668741E-013
  -2.6499999999999996E-002     5.0319335287082878E-013
  -2.5399999999999992E-002     6.7972732477328268E-013
  -2.4299999999999988E-002     3.6712982914161030E-013
  -2.3199999999999985E-002    -4.0072971525285939E-013
  -2.2099999999999995E-002    -1.1957651665714386E-012
  -2.0999999999999991E-002    -1.4111513606945847E-012
  -1.9899999999999987E-002    -6.9261154971023142E-013
  -1.8799999999999983E-002     7.1638756125175229E-013
  -1.7699999999999994E-002     2.0199814043664333E-012
  -1.6599999999999990E-002     2.3499804532867152E-012
  -1.5499999999999986E-002     1.3724561851585770E-012
  -1.4399999999999996E-002    -4.4080697750824294E-013
  -1.3299999999999992E-002    -2.1201428199862926E-012
  -1.2199999999999989E-002    -2.8699382280394925E-012
  -1.1099999999999985E-002    -2.5607233347657576E-012
  -9.9999999999999950E-003    -1.6191585832520117E-012
  -8.8999999999999913E-003    -4.2576765680799045E-013
  -7.7999999999999875E-003     1.1614797665315812E-012
  -6.6999999999999837E-003     3.5557260261165347E-012
  -5.5999999999999939E-003     6.5072608759764172E-012
  -4.4999999999999901E-003     8.3328196773257979E-012
  -3.3999999999999864E-003     6.3567488946258965E-012
  -2.2999999999999826E-003    -1.1702327475104912E-012
  -1.1999999999999927E-003    -1.2753345254856718E-011
  -9.9999999999988987E-005    -2.2866040658153786E-011
   1.0000000000000148E-003    -2.4069525886294407E-011
   2.1000000000000185E-003    -1.1522579765332885E-011
   3.2000000000000084E-003     1.2679621241851180E-011
   4.3000000000000121E-003     3.8510927086177205E-011
   5.4000000000000159E-003     5.1935390016355498E-011
   6.5000000000000058E-003     4.2265066446667277E-011
   7.6000000000000234E-003     8.9387958840392301E-012
   8.7000000000000133E-003    -3.6470590436543660E-011
   9.8000000000000032E-003    -7.4667265426153762E-011
   1.0900000000000021E-002    -8.7357371336693745E-011
   1.2000000000000011E-002    -6.5667089821364044E-011
   1.3100000000000001E-002    -1.4010627727434333E-011
   1.4200000000000018E-002     5.1901156983280572E-011
   1.5300000000000008E-002     1.1086930679082840E-010
   1.6400000000000026E-002     1.4239617818212480E-010
   1.7500000000000016E-002     1.3117185115874008E-010
   1.8600000000000005E-002     7.0389728767938919E-011
   1.9700000000000023E-002    -3.4345887245379458E-011
   2.0800000000000013E-002    -1.6052037477010117E-010
   2.1900000000000003E-002    -2.6726743040939027E-010
   2.3000000000000020E-002    -3.0273727968932462E-010
   2.4100000000000010E-002    -2.2330509663603948E-010
   2.5200000000000000E-002    -1.9997691003137419E-011
   2.6300000000000018E-002     2.6086729998375802E-010
   2.7400000000000008E-002     5.1853998872530838E-010
   2.8500000000000025E-002     6.2870197936604200E-010
   2.9600000000000015E-002     4.9747095332008939E-010
   3.0700000000000005E-002     1.1600850835513654E-010
   3.1800000000000023E-002    -4.1296388531009143E-010
   3.2900000000000013E-002    -8.9654894619428660E-010
   3.4000000000000002E-002    -1.1196419347214714E-009
   3.5100000000000020E-002    -9.3499497033633361E-010
   3.6200000000000010E-002    -3.3758978945641616E-010
   3.7300000000000028E-002     5.1092663433394137E-010
   3.8400000000000017E-002     1.3230587736501320E-009
   3.9500000000000007E-002     1.7810101171633619E-009
   4.0600000000000025E-002     1.6543564296256363E-009
   4.1700000000000015E-002     8.9705992634137033E-010
   4.2800000000000005E-002    -3.1389718602170547E-010
   4.3900000000000022E-002    -1.6172048145079998E-009
   4.5000000000000012E-002    -2.5751885068814317E-009
   4.6100000000000002E-002    -2.8166766696813283E-009
   4.7200000000000020E-002    -2.1652355464141237E-009
   4.8300000000000010E-002    -7.0722483425100791E-010
   4.9400000000000027E-002     1.2223677625655682E-009
   5.0500000000000017E-002     3.1257174626375672E-009
   5.1600000000000007E-002     4.4642933794136752E-009
   5.2700000000000025E-002     4.7789794344055281E-009
   5.3800000000000014E-002     3.7879703818077815E-009
   5.4900000000000004E-002     1.4648793289495643E-009
   5.6000000000000022E-002    -1.8955446101642792E-009
   5.7100000000000012E-002    -5.6390665470473778E-009
   5.8200000000000002E-002    -8.7900282608188718E-009
   5.9300000000000019E-002    -1.0225629232252231E-008
   6.0400000000000009E-002    -9.0034877331390817E-009
   6.1500000000000027E-002    -4.7666288693903880E-009
   6.2600000000000017E-002     1.9451691368743695E-009
   6.3700000000000007E-002     9.6749186440092672E-009
   6.4800000000000024E-002     1.6424200666165234E-008
   6.5900000000000014E-002     2.0337958872573836E-008
   6.7000000000000004E-002     2.0409482104355448E-008
   6.8100000000000022E-002     1.6831505078584996E-008
   6.9200000000000012E-002     1.0732472688346206E-008
   7.0300000000000029E-002     3.3251461584171693E-009
   7.1400000000000019E-002    -5.1805919554226421E-009
   7.2500000000000009E-002    -1.6373221001231286E-008
   7.3600000000000027E-002    -3.3714595559786176E-008
   7.4700000000000016E-002    -6.1815228491468588E-008
   7.5800000000000006E-002    -1.0525547367024046E-007
   7.6900000000000024E-002    -1.6755902265686018E-007
   7.8000000000000014E-002    -2.5086410460062325E-007
   7.9100000000000004E-002    -3.5647653362502751E-007
   8.0200000000000021E-002    -4.8603249069856247E-007
   8.1300000000000011E-002    -6.4271205246768659E-007
   8.2400000000000029E-002    -8.3199495293229120E-007
   8.3500000000000019E-002    -1.0617983434713096E-006
   8.4600000000000009E-002    -1.3422578604149749E-006
   8.5700000000000026E-002    -1.6856400861797738E-006
   8.6800000000000016E-002    -2.1067610305181006E-006
   8.7900000000000006E-002    -2.6239113140036352E-006
   8.9000000000000024E-002    -3.2599093628959963E-006
   9.0100000000000013E-002    -4.0427726162306499E-006
   9.1200000000000003E-002    -5.0057274165737908E-006
   9.2300000000000021E-002    -6.1867481235822197E-006
   9.3400000000000011E-002    -7.6282253758108709E-006
   9.4500000000000028E-002    -9.3774760898668319E-006
   9.5600000000000018E-002    -1.1488485142763238E-005
   9.6700000000000008E-002    -1.4024713891558349E-005
   9.7800000000000026E-002    -1.7062309780158103E-005
   9.8900000000000016E-002    -2.0692878024419770E-005
  0.10000000000000001         -2.5025239665410481E-005
  0.10110000000000002         -3.0186176445567980E-005
  0.10220000000000001         -3.6320718209026381E-005
  0.10330000000000003         -4.3592692236416042E-005
  0.10440000000000002         -5.2186183893354610E-005
  0.10550000000000001         -6.2308048654813319E-005
  0.10660000000000003         -7.4191193562000990E-005
  0.10770000000000002         -8.8098087871912867E-005
  0.10880000000000001         -1.0432388080516830E-004
  0.10990000000000003         -1.2319894449319690E-004
  0.11100000000000002         -1.4509109314531088E-004
  0.11210000000000001         -1.7040730745065957E-004
  0.11320000000000002         -1.9959524797741324E-004
  0.11430000000000001         -2.3314451391343027E-004
  0.11540000000000003         -2.7158748707734048E-004
  0.11650000000000002         -3.1549952109344304E-004
  0.11760000000000001         -3.6549885408021510E-004
  0.11870000000000003         -4.2224588105455041E-004
  0.11980000000000002         -4.8644220805726945E-004
  0.12090000000000001         -5.5882893502712250E-004
  0.12200000000000003         -6.4018432749435306E-004
  0.12310000000000001         -7.3131854878738523E-004
  0.12420000000000003         -8.3306740270927548E-004
  0.12530000000000002         -9.4628322403877974E-004
  0.12640000000000001         -1.0718228295445442E-003
  0.12750000000000003         -1.2105358764529228E-003
  0.12860000000000002         -1.3632515911012888E-003
  0.12970000000000001         -1.5307660214602947E-003
  0.13080000000000003         -1.7138271359726787E-003
  0.13190000000000002         -1.9131210865452886E-003
  0.13300000000000001         -2.1292518358677626E-003
  0.13410000000000000         -2.3627204354852438E-003
  0.13520000000000004         -2.6139013934880495E-003
  0.13630000000000003         -2.8830163646489382E-003
  0.13740000000000002         -3.1701081898063421E-003
  0.13850000000000001         -3.4750159829854965E-003
  0.13960000000000000         -3.7973530124872923E-003
  0.14070000000000005         -4.1364845819771290E-003
  0.14180000000000004         -4.4915080070495605E-003
  0.14290000000000003         -4.8612309619784355E-003
  0.14400000000000002         -5.2441554144024849E-003
  0.14510000000000001         -5.6384578347206116E-003
  0.14620000000000000         -6.0419733636081219E-003
  0.14730000000000004         -6.4521888270974159E-003
  0.14840000000000003         -6.8662394769489765E-003
  0.14950000000000002         -7.2809075936675072E-003
  0.15060000000000001         -7.6926350593566895E-003
  0.15170000000000000         -8.0975349992513657E-003
  0.15280000000000005         -8.4914183244109154E-003
  0.15390000000000004         -8.8698193430900574E-003
  0.15500000000000003         -9.2280339449644089E-003
  0.15610000000000002         -9.5611531287431717E-003
  0.15720000000000001         -9.8641160875558853E-003
  0.15830000000000000         -1.0131762363016605E-002
  0.15940000000000004         -1.0358892381191254E-002
  0.16050000000000003         -1.0540339164435863E-002
  0.16160000000000002         -1.0671043768525124E-002
  0.16270000000000001         -1.0746133513748646E-002
  0.16380000000000000         -1.0761006735265255E-002
  0.16490000000000005         -1.0711413808166981E-002
  0.16600000000000004         -1.0593532584607601E-002
  0.16710000000000003         -1.0404047556221485E-002
  0.16820000000000002         -1.0140224359929562E-002
  0.16930000000000001         -9.7999749705195427E-003
  0.17040000000000000         -9.3819340690970421E-003
  0.17150000000000004         -8.8855167850852013E-003
  0.17260000000000003         -8.3109783008694649E-003
  0.17370000000000002         -7.6594511047005653E-003
  0.17480000000000001         -6.9329715333878994E-003
  0.17590000000000000         -6.1344914138317108E-003
  0.17700000000000005         -5.2678734064102173E-003
  0.17810000000000004         -4.3378714472055435E-003
  0.17920000000000003         -3.3501030411571264E-003
  0.18030000000000002         -2.3110052570700645E-003
  0.18140000000000001         -1.2277823407202959E-003
  0.18250000000000000         -1.0833632404683158E-004
  0.18360000000000004          1.0388173395767808E-003
  0.18470000000000003          2.2046468220651150E-003
  0.18580000000000002          3.3797135110944510E-003
  0.18690000000000001          4.5542912557721138E-003
  0.18800000000000000          5.7184915058314800E-003
  0.18910000000000005          6.8623935803771019E-003
  0.19020000000000004          7.9761743545532227E-003
  0.19130000000000003          9.0502379462122917E-003
  0.19240000000000002          1.0075344704091549E-002
  0.19350000000000001          1.1042731814086437E-002
  0.19460000000000005          1.1944229714572430E-002
  0.19570000000000004          1.2772369198501110E-002
  0.19680000000000003          1.3520474545657635E-002
  0.19790000000000002          1.4182755723595619E-002
  0.19900000000000001          1.4754376374185085E-002
  0.20010000000000000          1.5231512486934662E-002
  0.20120000000000005          1.5611395239830017E-002
  0.20230000000000004          1.5892336145043373E-002
  0.20340000000000003          1.6073727980256081E-002
  0.20450000000000002          1.6156034544110298E-002
  0.20560000000000000          1.6140764579176903E-002
  0.20670000000000005          1.6030417755246162E-002
  0.20780000000000004          1.5828434377908707E-002
  0.20890000000000003          1.5539130195975304E-002
