 -0.12000000000000000          0.0000000000000000     
 -0.11889999999999999          0.0000000000000000     
 -0.11780000000000000          1.2198246679417935E-007
 -0.11670000000000000          4.1510745063533250E-007
 -0.11559999999999999          2.7996441076538758E-007
 -0.11449999999999999         -1.1773344112953055E-006
 -0.11340000000000000         -3.5096468309347983E-006
 -0.11230000000000000         -4.1408252400287893E-006
 -0.11119999999999999         -6.4803157329151873E-007
 -0.11009999999999999          5.4666261348756962E-006
 -0.10900000000000000          8.4625198724097572E-006
 -0.10790000000000000          3.8461053009086754E-006
 -0.10679999999999999         -5.2941400099371094E-006
 -0.10569999999999999         -9.3745138656231575E-006
 -0.10460000000000000         -2.2928011276235338E-006
 -0.10349999999999999          9.4616134447278455E-006
 -0.10239999999999999          1.0521434887778014E-005
 -0.10130000000000000         -7.3002179306058679E-006
 -0.10020000000000000         -3.2537049264647067E-005
  -9.9099999999999994E-002    -4.1121762478724122E-005
  -9.7999999999999990E-002    -1.9649414753075689E-005
  -9.6899999999999986E-002     1.8153472410631366E-005
  -9.5799999999999996E-002     4.1551615140633658E-005
  -9.4699999999999993E-002     3.2540585380047560E-005
  -9.3599999999999989E-002     4.9090294851339422E-006
  -9.2499999999999999E-002    -9.9162480182712898E-006
  -9.1399999999999995E-002     1.9461931515252218E-006
  -9.0299999999999991E-002     1.8479237041901797E-005
  -8.9200000000000002E-002     3.8276430132100359E-006
  -8.8099999999999984E-002    -4.9079710152000189E-005
  -8.6999999999999994E-002    -1.0190870671067387E-004
  -8.5899999999999990E-002    -1.0386889334768057E-004
  -8.4799999999999986E-002    -4.4600190449273214E-005
  -8.3699999999999997E-002     2.9486753192031756E-005
  -8.2599999999999993E-002     5.8492536481935531E-005
  -8.1499999999999989E-002     3.1396055419463664E-005
  -8.0399999999999999E-002     9.4034476205706596E-007
  -7.9299999999999995E-002     2.9609509510919452E-005
  -7.8199999999999992E-002     1.1933314090128988E-004
  -7.7100000000000002E-002     2.0133817452006042E-004
  -7.5999999999999984E-002     2.0426607807166874E-004
  -7.4899999999999994E-002     1.3420105096884072E-004
  -7.3799999999999991E-002     8.0142934166360646E-005
  -7.2699999999999987E-002     1.3117030903231353E-004
  -7.1599999999999997E-002     2.8620506054721773E-004
  -7.0499999999999993E-002     4.5249387039802969E-004
  -6.9399999999999989E-002     5.4117577383294702E-004
  -6.8300000000000000E-002     5.6440115440636873E-004
  -6.7199999999999996E-002     6.2986538978293538E-004
  -6.6099999999999992E-002     8.3197240019217134E-004
  -6.5000000000000002E-002     1.1505748843774199E-003
  -6.3899999999999985E-002     1.4680215390399098E-003
  -6.2799999999999995E-002     1.6952167497947812E-003
  -6.1699999999999991E-002     1.8787661101669073E-003
  -6.0599999999999994E-002     2.1721501834690571E-003
  -5.9499999999999990E-002     2.6914980262517929E-003
  -5.8399999999999994E-002     3.4016496501863003E-003
  -5.7299999999999990E-002     4.1557918302714825E-003
  -5.6199999999999986E-002     4.8566441982984543E-003
  -5.5099999999999996E-002     5.5763935670256615E-003
  -5.3999999999999992E-002     6.5066968090832233E-003
  -5.2899999999999989E-002     7.7819675207138062E-003
  -5.1799999999999985E-002     9.3543194234371185E-003
  -5.0699999999999995E-002     1.1052587069571018E-002
  -4.9599999999999991E-002     1.2771187350153923E-002
  -4.8499999999999988E-002     1.4597475528717041E-002
  -4.7399999999999998E-002     1.6744088381528854E-002
  -4.6299999999999994E-002     1.9351795315742493E-002
  -4.5199999999999990E-002     2.2364376112818718E-002
  -4.4099999999999986E-002     2.5606058537960052E-002
  -4.2999999999999997E-002     2.8983142226934433E-002
  -4.1899999999999993E-002     3.2600130885839462E-002
  -4.0799999999999989E-002     3.6665666848421097E-002
  -3.9699999999999985E-002     4.1280761361122131E-002
  -3.8599999999999995E-002     4.6326845884323120E-002
  -3.7499999999999992E-002     5.1570832729339600E-002
  -3.6399999999999988E-002     5.6880541145801544E-002
  -3.5299999999999984E-002     6.2327731400728226E-002
  -3.4199999999999994E-002     6.8070337176322937E-002
  -3.3099999999999991E-002     7.4132718145847321E-002
  -3.1999999999999987E-002     8.0307729542255402E-002
  -3.0899999999999997E-002     8.6277909576892853E-002
  -2.9799999999999993E-002     9.1825678944587708E-002
  -2.8699999999999989E-002     9.6911385655403137E-002
  -2.7599999999999986E-002    0.10153806954622269     
  -2.6499999999999996E-002    0.10554431378841400     
  -2.5399999999999992E-002    0.10854039341211319     
  -2.4299999999999988E-002    0.11005043238401413     
  -2.3199999999999985E-002    0.10970623791217804     
  -2.2099999999999995E-002    0.10728842020034790     
  -2.0999999999999991E-002    0.10257507115602493     
  -1.9899999999999987E-002     9.5161519944667816E-002
  -1.8799999999999983E-002     8.4445573389530182E-002
  -1.7699999999999994E-002     6.9794990122318268E-002
  -1.6599999999999990E-002     5.0719805061817169E-002
  -1.5499999999999986E-002     2.6870150119066238E-002
  -1.4399999999999996E-002    -2.1309265866875648E-003
  -1.3299999999999992E-002    -3.6833275109529495E-002
  -1.2199999999999989E-002    -7.7918462455272675E-002
  -1.1099999999999985E-002   -0.12600567936897278     
  -9.9999999999999950E-003   -0.18150328099727631     
  -8.8999999999999913E-003   -0.24465125799179077     
  -7.7999999999999875E-003   -0.31569373607635498     
  -6.6999999999999837E-003   -0.39497846364974976     
  -5.5999999999999939E-003   -0.48285424709320068     
  -4.4999999999999901E-003   -0.57945603132247925     
  -3.3999999999999864E-003   -0.68459153175354004     
  -2.2999999999999826E-003   -0.79783737659454346     
  -1.1999999999999927E-003   -0.91872954368591309     
  -9.9999999999988987E-005    -1.0468289852142334     
   1.0000000000000148E-003    -1.1815736293792725     
   2.1000000000000185E-003    -1.3220577239990234     
   3.2000000000000084E-003    -1.4669592380523682     
   4.3000000000000121E-003    -1.6146860122680664     
   5.4000000000000159E-003    -1.7635859251022339     
   6.5000000000000058E-003    -1.9119969606399536     
   7.6000000000000234E-003    -2.0580875873565674     
   8.7000000000000133E-003    -2.1996614933013916     
   9.8000000000000032E-003    -2.3341434001922607     
   1.0900000000000021E-002    -2.4587824344635010     
   1.2000000000000011E-002    -2.5708801746368408     
   1.3100000000000001E-002    -2.6678390502929688     
   1.4200000000000018E-002    -2.7470200061798096     
   1.5300000000000008E-002    -2.8056037425994873     
   1.6400000000000026E-002    -2.8406486511230469     
   1.7500000000000016E-002    -2.8493275642395020     
   1.8600000000000005E-002    -2.8291506767272949     
   1.9700000000000023E-002    -2.7779889106750488     
   2.0800000000000013E-002    -2.6939494609832764     
   2.1900000000000003E-002    -2.5752916336059570     
   2.3000000000000020E-002    -2.4205186367034912     
   2.4100000000000010E-002    -2.2286117076873779     
   2.5200000000000000E-002    -1.9991993904113770     
   2.6300000000000018E-002    -1.7325350046157837     
   2.7400000000000008E-002    -1.4293590784072876     
   2.8500000000000025E-002    -1.0908437967300415     
   2.9600000000000015E-002   -0.71870499849319458     
   3.0700000000000005E-002   -0.31536549329757690     
   3.1800000000000023E-002    0.11600449681282043     
   3.2900000000000013E-002    0.57163166999816895     
   3.4000000000000002E-002     1.0473252534866333     
   3.5100000000000020E-002     1.5385122299194336     
   3.6200000000000010E-002     2.0401489734649658     
   3.7300000000000028E-002     2.5466558933258057     
   3.8400000000000017E-002     3.0520088672637939     
   3.9500000000000007E-002     3.5499978065490723     
   4.0600000000000025E-002     4.0344519615173340     
   4.1700000000000015E-002     4.4992690086364746     
   4.2800000000000005E-002     4.9383273124694824     
   4.3900000000000022E-002     5.3454737663269043     
   4.5000000000000012E-002     5.7147130966186523     
   4.6100000000000002E-002     6.0405268669128418     
   4.7200000000000020E-002     6.3180952072143555     
   4.8300000000000010E-002     6.5432729721069336     
   4.9400000000000027E-002     6.7124366760253906     
   5.0500000000000017E-002     6.8224534988403320     
   5.1600000000000007E-002     6.8708801269531250     
   5.2700000000000025E-002     6.8562545776367188     
   5.3800000000000014E-002     6.7782230377197266     
   5.4900000000000004E-002     6.6373982429504395     
   5.6000000000000022E-002     6.4351086616516113     
   5.7100000000000012E-002     6.1732978820800781     
   5.8200000000000002E-002     5.8546628952026367     
   5.9300000000000019E-002     5.4828648567199707     
   6.0400000000000009E-002     5.0625410079956055     
   6.1500000000000027E-002     4.5990228652954102     
   6.2600000000000017E-002     4.0979971885681152     
   6.3700000000000007E-002     3.5653860569000244     
   6.4800000000000024E-002     3.0074515342712402     
   6.5900000000000014E-002     2.4309191703796387     
   6.7000000000000004E-002     1.8428664207458496     
   6.8100000000000022E-002     1.2503814697265625     
   6.9200000000000012E-002    0.66025227308273315     
   7.0300000000000029E-002     7.8876227140426636E-002
   7.1400000000000019E-002   -0.48761856555938721     
   7.2500000000000009E-002    -1.0332522392272949     
   7.3600000000000027E-002    -1.5523359775543213     
   7.4700000000000016E-002    -2.0398039817810059     
   7.5800000000000006E-002    -2.4914312362670898     
   7.6900000000000024E-002    -2.9037947654724121     
   7.8000000000000014E-002    -3.2740445137023926     
   7.9100000000000004E-002    -3.5997681617736816     
   8.0200000000000021E-002    -3.8791351318359375     
   8.1300000000000011E-002    -4.1111536026000977     
   8.2400000000000029E-002    -4.2957720756530762     
   8.3500000000000019E-002    -4.4336872100830078     
   8.4600000000000009E-002    -4.5260171890258789     
   8.5700000000000026E-002    -4.5741648674011230     
   8.6800000000000016E-002    -4.5799641609191895     
   8.7900000000000006E-002    -4.5458979606628418     
   8.9000000000000024E-002    -4.4750871658325195     
   9.0100000000000013E-002    -4.3709883689880371     
   9.1200000000000003E-002    -4.2370438575744629     
   9.2300000000000021E-002    -4.0765833854675293     
   9.3400000000000011E-002    -3.8930153846740723     
   9.4500000000000028E-002    -3.6900417804718018     
   9.5600000000000018E-002    -3.4715950489044189     
   9.6700000000000008E-002    -3.2414982318878174     
   9.7800000000000026E-002    -3.0031526088714600     
   9.8900000000000016E-002    -2.7595353126525879     
  0.10000000000000001         -2.5134699344635010     
  0.10110000000000002         -2.2678465843200684     
  0.10220000000000001         -2.0255255699157715     
  0.10330000000000003         -1.7890009880065918     
  0.10440000000000002         -1.5601615905761719     
  0.10550000000000001         -1.3403928279876709     
  0.10660000000000003         -1.1309168338775635     
  0.10770000000000002        -0.93301111459732056     
  0.10880000000000001        -0.74788063764572144     
  0.10990000000000003        -0.57632344961166382     
  0.11100000000000002        -0.41855958104133606     
  0.11210000000000001        -0.27442556619644165     
  0.11320000000000002        -0.14375588297843933     
  0.11430000000000001         -2.6561994105577469E-002
  0.11540000000000003          7.7157452702522278E-002
  0.11650000000000002         0.16774998605251312     
  0.11760000000000001         0.24602082371711731     
  0.11870000000000003         0.31297457218170166     
  0.11980000000000002         0.36943280696868896     
  0.12090000000000001         0.41591060161590576     
  0.12200000000000003         0.45286774635314941     
  0.12310000000000001         0.48104906082153320     
  0.12420000000000003         0.50154519081115723     
  0.12530000000000002         0.51549565792083740     
  0.12640000000000001         0.52373325824737549     
  0.12750000000000003         0.52673351764678955     
  0.12860000000000002         0.52490806579589844     
  0.12970000000000001         0.51892685890197754     
  0.13080000000000003         0.50972229242324829     
  0.13190000000000002         0.49816957116127014     
  0.13300000000000001         0.48477599024772644     
  0.13410000000000000         0.46970590949058533     
  0.13520000000000004         0.45311367511749268     
  0.13630000000000003         0.43542790412902832     
  0.13740000000000002         0.41728755831718445     
  0.13850000000000001         0.39920529723167419     
  0.13960000000000000         0.38132050633430481     
  0.14070000000000005         0.36350628733634949     
  0.14180000000000004         0.34571787714958191     
  0.14290000000000003         0.32821071147918701     
  0.14400000000000002         0.31139838695526123     
  0.14510000000000001         0.29550489783287048     
  0.14620000000000000         0.28038957715034485     
  0.14730000000000004         0.26574000716209412     
  0.14840000000000003         0.25143200159072876     
  0.14950000000000002         0.23767469823360443     
  0.15060000000000001         0.22478406131267548     
  0.15170000000000000         0.21282717585563660     
  0.15280000000000005         0.20152044296264648     
  0.15390000000000004         0.19050149619579315     
  0.15500000000000003         0.17969322204589844     
  0.15610000000000002         0.16937288641929626     
  0.15720000000000001         0.15986461937427521     
  0.15830000000000000         0.15117341279983521     
  0.15940000000000004         0.14294955134391785     
  0.16050000000000003         0.13482828438282013     
  0.16160000000000002         0.12679463624954224     
  0.16270000000000001         0.11918979883193970     
  0.16380000000000000         0.11234560608863831     
  0.16490000000000005         0.10622423887252808     
  0.16600000000000004         0.10043908655643463     
  0.16710000000000003          9.4639167189598083E-002
  0.16820000000000002          8.8861085474491119E-002
  0.16930000000000001          8.3482377231121063E-002
  0.17040000000000000          7.8823201358318329E-002
  0.17150000000000004          7.4807435274124146E-002
  0.17260000000000003          7.1030944585800171E-002
  0.17370000000000002          6.7163944244384766E-002
  0.17480000000000001          6.3270233571529388E-002
  0.17590000000000000          5.9716165065765381E-002
  0.17700000000000005          5.6769751012325287E-002
  0.17810000000000004          5.4308030754327774E-002
  0.17920000000000003          5.1933486014604568E-002
  0.18030000000000002          4.9371898174285889E-002
  0.18140000000000001          4.6736422926187515E-002
  0.18250000000000000          4.4388424605131149E-002
  0.18360000000000004          4.2548555880784988E-002
  0.18470000000000003          4.1067868471145630E-002
  0.18580000000000002          3.9591215550899506E-002
  0.18690000000000001          3.7932332605123520E-002
  0.18800000000000000          3.6262787878513336E-002
  0.18910000000000005          3.4920729696750641E-002
  0.19020000000000004          3.4047346562147141E-002
  0.19130000000000003          3.3436022698879242E-002
  0.19240000000000002          3.2750427722930908E-002
  0.19350000000000001          3.1875886023044586E-002
  0.19460000000000005          3.1031036749482155E-002
  0.19570000000000004          3.0524913221597672E-002
  0.19680000000000003          3.0420185998082161E-002
  0.19790000000000002          3.0459795147180557E-002
  0.19900000000000001          3.0332585796713829E-002
  0.20010000000000000          2.9993856325745583E-002
  0.20120000000000005          2.9699360951781273E-002
  0.20230000000000004          2.9716096818447113E-002
  0.20340000000000003          3.0015738680958748E-002
  0.20450000000000002          3.0275801196694374E-002
  0.20560000000000000          3.0190980061888695E-002
  0.20670000000000005          2.9769575223326683E-002
  0.20780000000000004          2.9304701834917068E-002
  0.20890000000000003          2.9051311314105988E-002
