 -0.12000000000000000          0.0000000000000000     
 -0.11889999999999999          0.0000000000000000     
 -0.11780000000000000          0.0000000000000000     
 -0.11670000000000000          0.0000000000000000     
 -0.11559999999999999          0.0000000000000000     
 -0.11449999999999999          0.0000000000000000     
 -0.11340000000000000          0.0000000000000000     
 -0.11230000000000000          2.3158426773682406E-022
 -0.11119999999999999          1.3316095268649639E-021
 -0.11009999999999999          6.0211906582348379E-021
 -0.10900000000000000          7.0633202921908787E-021
 -0.10790000000000000          4.2843092812973817E-021
 -0.10679999999999999          4.1337795350363499E-020
 -0.10569999999999999          6.3569889899860010E-020
 -0.10460000000000000         -4.0179862046237168E-020
 -0.10349999999999999         -1.1962485427443342E-018
 -0.10239999999999999         -8.4053513334996660E-019
 -0.10130000000000000          2.5980280998557912E-018
 -0.10020000000000000          5.5623065459413801E-018
  -9.9099999999999994E-002    -1.0776773718136862E-018
  -9.7999999999999990E-002    -2.0049061411994926E-017
  -9.6899999999999986E-002    -2.3843337227414439E-017
  -9.5799999999999996E-002    -9.6148000244591214E-018
  -9.4699999999999993E-002     4.6350777765555737E-017
  -9.3599999999999989E-002     9.5676368329093080E-017
  -9.2499999999999999E-002     1.0326492326865456E-016
  -9.1399999999999995E-002     1.2223630400011334E-016
  -9.0299999999999991E-002    -1.8151942529439258E-017
  -8.9200000000000002E-002    -3.5204828046080539E-016
  -8.8099999999999984E-002    -5.0381932631247571E-016
  -8.6999999999999994E-002    -5.3417354607072161E-016
  -8.5899999999999990E-002    -3.8240250021905130E-016
  -8.4799999999999986E-002    -1.6992300161599937E-016
  -8.3699999999999997E-002     8.0141180565474293E-016
  -8.2599999999999993E-002     2.2584138775945135E-015
  -8.1499999999999989E-002     1.7423924064021291E-015
  -8.0399999999999999E-002    -2.3063140142782178E-016
  -7.9299999999999995E-002    -2.1733010424390860E-015
  -7.8199999999999992E-002    -2.9018021048787509E-015
  -7.7100000000000002E-002    -4.7346494773555219E-016
  -7.5999999999999984E-002     2.5503622058323109E-016
  -7.4899999999999994E-002     2.6833732718473113E-015
  -7.3799999999999991E-002     9.4827168036284992E-015
  -7.2699999999999987E-002     6.5687121303533661E-015
  -7.1599999999999997E-002    -5.2087228065054395E-015
  -7.0499999999999993E-002    -1.5043488102352981E-014
  -6.9399999999999989E-002    -1.5043488102352981E-014
  -6.8300000000000000E-002     3.4118732754957921E-015
  -6.7199999999999996E-002     3.9351260151896522E-014
  -6.6099999999999992E-002     5.4649786486535984E-014
  -6.5000000000000002E-002     1.1668221049738678E-014
  -6.3899999999999985E-002    -7.3809244848822841E-014
  -6.2799999999999995E-002    -1.2626131965041282E-013
  -6.1699999999999991E-002    -6.4581559501217245E-014
  -6.0599999999999994E-002     8.8403669963859483E-014
  -5.9499999999999990E-002     2.1079186031218444E-013
  -5.8399999999999994E-002     1.7970913927974064E-013
  -5.7299999999999990E-002    -2.4271173449958577E-014
  -5.6199999999999986E-002    -3.0304426502925086E-013
  -5.5099999999999996E-002    -4.3223180568562058E-013
  -5.3999999999999992E-002    -2.2630883983205258E-013
  -5.2899999999999989E-002     3.1375330935765056E-013
  -5.1799999999999985E-002     8.1253374254602884E-013
  -5.0699999999999995E-002     6.2749447565096927E-013
  -4.9599999999999991E-002    -5.7307533284783885E-013
  -4.8499999999999988E-002    -2.0961283923870422E-012
  -4.7399999999999998E-002    -2.0300774949966183E-012
  -4.6299999999999994E-002     8.4118833860308273E-013
  -4.5199999999999990E-002     4.9441067559441443E-012
  -4.4099999999999986E-002     6.2029565511823037E-012
  -4.2999999999999997E-002     1.4473010463700309E-012
  -4.1899999999999993E-002    -7.6288524109013878E-012
  -4.0799999999999989E-002    -1.3907560866832647E-011
  -3.9699999999999985E-002    -9.3539438347778336E-012
  -3.8599999999999995E-002     6.3739092129311281E-012
  -3.7499999999999992E-002     2.1884183701303961E-011
  -3.6399999999999988E-002     2.2179470066108209E-011
  -3.5299999999999984E-002     2.5351951440932829E-012
  -3.4199999999999994E-002    -2.3978360963461398E-011
  -3.3099999999999991E-002    -3.5059351255473103E-011
  -3.1999999999999987E-002    -1.6192144847160250E-011
  -3.0899999999999997E-002     2.3189655057320735E-011
  -2.9799999999999993E-002     4.8801813284926610E-011
  -2.8699999999999989E-002     2.7634486712835304E-011
  -2.7599999999999986E-002    -2.7249816986207875E-011
  -2.6499999999999996E-002    -6.4199395799491299E-011
  -2.5399999999999992E-002    -3.5700428724361188E-011
  -2.4299999999999988E-002     4.5466252290848885E-011
  -2.3199999999999985E-002     1.0694591739968118E-010
  -2.2099999999999995E-002     6.4937624721927989E-011
  -2.0999999999999991E-002    -7.7669870535146401E-011
  -1.9899999999999987E-002    -2.0150339730129474E-010
  -1.8799999999999983E-002    -1.4878710763444047E-010
  -1.7699999999999994E-002     1.1181038039875801E-010
  -1.6599999999999990E-002     3.1621033569351198E-010
  -1.5499999999999986E-002     2.0580455395435848E-010
  -1.4399999999999996E-002    -1.1845030511992150E-010
  -1.3299999999999992E-002    -3.3627794993051907E-010
  -1.2199999999999989E-002    -1.6320939044689453E-010
  -1.1099999999999985E-002     2.6846735945440514E-010
  -9.9999999999999950E-003     5.8078647446890841E-010
  -8.8999999999999913E-003     2.6448879197893405E-010
  -7.7999999999999875E-003    -5.7101456896191394E-010
  -6.6999999999999837E-003    -1.2155456641238516E-009
  -5.5999999999999939E-003    -1.0882308387749617E-009
  -4.4999999999999901E-003     2.7642466093880103E-010
  -3.3999999999999864E-003     1.8519452638088296E-009
  -2.2999999999999826E-003     1.7803306606722913E-009
  -1.1999999999999927E-003     6.1580851529186020E-011
  -9.9999999999988987E-005    -1.6332974972499414E-009
   1.0000000000000148E-003    -1.9197559097960948E-009
   2.1000000000000185E-003     3.2416735962215171E-010
   3.2000000000000084E-003     3.9685534858335814E-009
   4.3000000000000121E-003     3.0136924067392101E-009
   5.4000000000000159E-003    -4.5297094963814288E-009
   6.5000000000000058E-003    -9.8451025110080082E-009
   7.6000000000000234E-003    -3.4793625758311464E-009
   8.7000000000000133E-003     7.5970252311208242E-009
   9.8000000000000032E-003     8.1062836443379638E-009
   1.0900000000000021E-002    -1.9515851157336783E-009
   1.2000000000000011E-002    -8.0626954002127604E-009
   1.3100000000000001E-002     3.7139242792250116E-009
   1.4200000000000018E-002     1.7591236911584929E-008
   1.5300000000000008E-002     1.1862072213375541E-008
   1.6400000000000026E-002    -1.0545331718958550E-008
   1.7500000000000016E-002    -2.5950422255505146E-008
   1.8600000000000005E-002    -1.2200423782360303E-008
   1.9700000000000023E-002     2.5484757415483728E-008
   2.0800000000000013E-002     4.9165311821752766E-008
   2.1900000000000003E-002     3.4651428393317474E-008
   2.3000000000000020E-002    -1.9075416801683787E-008
   2.4100000000000010E-002    -7.7894853234283801E-008
   2.5200000000000000E-002    -7.6367072665561864E-008
   2.6300000000000018E-002    -7.1078254393341922E-009
   2.7400000000000008E-002     6.5716236008483975E-008
   2.8500000000000025E-002     6.9281050230074470E-008
   2.9600000000000015E-002     8.6792049103223690E-009
   3.0700000000000005E-002    -2.4931903652714027E-008
   3.1800000000000023E-002     2.3956978623118630E-008
   3.2900000000000013E-002     6.7753269661352533E-008
   3.4000000000000002E-002     3.7197718683046332E-008
   3.5100000000000020E-002    -2.2894866447131790E-008
   3.6200000000000010E-002    -1.1965411772507650E-007
   3.7300000000000028E-002    -1.3493188077973173E-007
   3.8400000000000017E-002     1.2753289979627880E-008
   3.9500000000000007E-002     1.2275327776478662E-007
   4.0600000000000025E-002     9.0160689580898179E-008
   4.1700000000000015E-002     7.3864399041667639E-008
   4.2800000000000005E-002     9.8308845508654485E-008
   4.3900000000000022E-002    -5.5800271070438612E-009
   4.5000000000000012E-002    -2.6428369892528281E-007
   4.6100000000000002E-002    -4.9854293138196226E-007
   4.7200000000000020E-002    -4.0687632463232148E-007
   4.8300000000000010E-002    -4.2246753650942992E-008
   4.9400000000000027E-002     3.2238284575214493E-007
   5.0500000000000017E-002     3.4479023724998115E-007
   5.1600000000000007E-002    -4.8357861714976025E-008
   5.2700000000000025E-002    -3.9261709616766893E-007
   5.3800000000000014E-002    -5.8543065506455605E-008
   5.4900000000000004E-002     8.8053087665684870E-007
   5.6000000000000022E-002     1.2777529718732694E-006
   5.7100000000000012E-002     6.3201230204867898E-007
   5.8200000000000002E-002    -4.1706164211063879E-007
   5.9300000000000019E-002    -1.0709504749684129E-006
   6.0400000000000009E-002    -9.9965427580173127E-007
   6.1500000000000027E-002    -3.7988581880199490E-007
   6.2600000000000017E-002     4.8101685479196021E-007
   6.3700000000000007E-002     1.0151023843718576E-006
   6.4800000000000024E-002     7.8860932717361720E-007
   6.5900000000000014E-002    -2.2379799702321179E-007
   6.7000000000000004E-002    -1.1078719808210735E-006
   6.8100000000000022E-002    -6.0268689594522584E-007
   6.9200000000000012E-002     4.1583146526136261E-007
   7.0300000000000029E-002     4.3212776290602051E-007
   7.1400000000000019E-002    -7.4120538329225383E-007
   7.2500000000000009E-002    -1.5926866581139620E-006
   7.3600000000000027E-002    -5.4157567319634836E-007
   7.4700000000000016E-002     1.7684239992377115E-006
   7.5800000000000006E-002     3.0762016649532598E-006
   7.6900000000000024E-002     1.6584242530370830E-006
   7.8000000000000014E-002    -1.7312047475570580E-006
   7.9100000000000004E-002    -4.1675007196317893E-006
   8.0200000000000021E-002    -3.6134267702436773E-006
   8.1300000000000011E-002    -2.5639019440859556E-007
   8.2400000000000029E-002     3.5406462757237023E-006
   8.3500000000000019E-002     4.5591646085085813E-006
   8.4600000000000009E-002     2.2695353436574806E-006
   8.5700000000000026E-002    -6.5564938722673105E-007
   8.6800000000000016E-002    -1.3808345329380245E-006
   8.7900000000000006E-002     2.8138742891314905E-007
   8.9000000000000024E-002     1.7562019820616115E-006
   9.0100000000000013E-002     2.5694282612676034E-007
   9.1200000000000003E-002    -3.9800934246159159E-006
   9.2300000000000021E-002    -7.2393522714264691E-006
   9.3400000000000011E-002    -5.6423150454065762E-006
   9.4500000000000028E-002     2.8138788366049994E-007
   9.5600000000000018E-002     6.2376830101129599E-006
   9.6700000000000008E-002     7.7369422797346488E-006
   9.7800000000000026E-002     4.2169431253569201E-006
   9.8900000000000016E-002    -1.2601924481714377E-007
  0.10000000000000001         -1.4704635304951807E-006
  0.10110000000000002         -1.4638965240010293E-007
  0.10220000000000001          5.7879543646777165E-007
  0.10330000000000003         -1.3726858014706522E-006
  0.10440000000000002         -4.0412041926174425E-006
  0.10550000000000001         -4.6523155106115155E-006
  0.10660000000000003         -2.4370383471250534E-006
  0.10770000000000002          1.7602759498913656E-006
  0.10880000000000001          4.8708311624068301E-006
  0.10990000000000003          4.6039795051910914E-006
  0.11100000000000002          1.5912021353869932E-006
  0.11210000000000001         -1.1425012189647532E-006
  0.11320000000000002         -1.4195381936588092E-006
  0.11430000000000001         -4.5398275005936739E-007
  0.11540000000000003         -8.9398264435658348E-007
  0.11650000000000002         -3.6073156479687896E-006
  0.11760000000000001         -5.2043528739886824E-006
  0.11870000000000003         -2.4584273887739982E-006
  0.11980000000000002          3.1067570489540230E-006
  0.12090000000000001          7.0178675741772167E-006
  0.12200000000000003          5.9015715123678092E-006
  0.12310000000000001          9.5564655566704459E-007
  0.12420000000000003         -3.4036120268865488E-006
  0.12530000000000002         -3.8110194964247057E-006
  0.12640000000000001         -8.4509406406141352E-007
  0.12750000000000003          1.4689796898892382E-006
  0.12860000000000002          8.5786871295567835E-007
  0.12970000000000001         -1.3910198504163418E-006
  0.13080000000000003         -2.2628714759775903E-006
  0.13190000000000002          3.4905951906694099E-008
  0.13300000000000001          3.4408312785672024E-006
  0.13410000000000000          3.9623128031962551E-006
  0.13520000000000004          1.2453551789803896E-007
  0.13630000000000003         -4.7073153837118298E-006
  0.13740000000000002         -5.7176857808372006E-006
  0.13850000000000001         -1.3665751339431154E-006
  0.13960000000000000          4.8993497330229729E-006
  0.14070000000000005          7.7674976637354121E-006
  0.14180000000000004          5.0786093197530136E-006
  0.14290000000000003         -7.1019712777342647E-008
  0.14400000000000002         -2.6865750442084391E-006
  0.14510000000000001         -1.3258346598377102E-006
  0.14620000000000000          1.0941648724838160E-006
  0.14730000000000004          7.1120189204521012E-007
  0.14840000000000003         -2.9065754461043980E-006
  0.14950000000000002         -6.2310195971804205E-006
  0.15060000000000001         -5.6484273045498412E-006
  0.15170000000000000         -1.4725021628692048E-006
  0.15280000000000005          2.3815712211217033E-006
  0.15390000000000004          2.6137934128200868E-006
  0.15500000000000003         -1.4842839846096467E-007
  0.15610000000000002         -2.1121318241057452E-006
  0.15720000000000001         -5.4972463203739608E-007
  0.15830000000000000          3.2289785849570762E-006
  0.15940000000000004          5.0215712690260261E-006
  0.16050000000000003          2.2440717657445930E-006
  0.16160000000000002         -3.2406496757175773E-006
  0.16270000000000001         -6.7778364609694108E-006
  0.16380000000000000         -5.1231259021733422E-006
  0.16490000000000005          2.3580855668114964E-007
  0.16600000000000004          4.6846971599734388E-006
  0.16710000000000003          5.1165488912374713E-006
  0.16820000000000002          2.5315493985544890E-006
  0.16930000000000001          4.2117929410778743E-007
  0.17040000000000000          9.6710505204100627E-007
  0.17150000000000004          2.7556231998460134E-006
  0.17260000000000003          2.7800674615718890E-006
  0.17370000000000002         -1.8993227968167048E-007
  0.17480000000000001         -4.1906723708962090E-006
  0.17590000000000000         -5.8569680732034612E-006
  0.17700000000000005         -3.9136348277679645E-006
  0.17810000000000004          5.8586920204106718E-008
  0.17920000000000003          3.2852531148819253E-006
  0.18030000000000002          4.1245120883104391E-006
  0.18140000000000001          2.9511788852687459E-006
  0.18250000000000000          1.0526605365157593E-006
  0.18360000000000004         -8.9474667674949160E-007
  0.18470000000000003         -2.6465982045920100E-006
  0.18580000000000002         -3.5021535040868912E-006
  0.18690000000000001         -2.5977092263929080E-006
  0.18800000000000000          2.3784593849995872E-007
  0.18910000000000005          3.3748826808732701E-006
  0.19020000000000004          4.2385863707750104E-006
  0.19130000000000003          1.8837720290321158E-006
  0.19240000000000002         -2.0517829852906289E-006
  0.19350000000000001         -4.2191900320176501E-006
  0.19460000000000005         -2.6303014237782918E-006
  0.19570000000000004          1.2237720738994540E-006
  0.19680000000000003          3.7904383134446107E-006
  0.19790000000000002          2.6700681701186113E-006
  0.19900000000000001         -8.9474622200214071E-007
  0.20010000000000000         -3.3310420803900342E-006
  0.20120000000000005         -2.4917828795878449E-006
  0.20230000000000004          3.6006861137138912E-007
  0.20340000000000003          1.8878461105487077E-006
  0.20450000000000002          1.7846332411863841E-008
  0.20560000000000000         -3.6977085073885974E-006
  0.20670000000000005         -5.5514119594590738E-006
  0.20780000000000004         -3.2821528748172568E-006
  0.20890000000000003          1.7289578408963280E-006
