 -0.12000000000000000          0.0000000000000000     
 -0.11889999999999999          0.0000000000000000     
 -0.11780000000000000          0.0000000000000000     
 -0.11670000000000000          7.7706785640450568E-015
 -0.11559999999999999          2.7197374127124752E-014
 -0.11449999999999999          1.5541355434024219E-014
 -0.11340000000000000         -7.7706802581109513E-015
 -0.11230000000000000         -3.8853394514291179E-014
 -0.11119999999999999         -3.8853394514291179E-014
 -0.11009999999999999          2.0980832631141422E-013
 -0.10900000000000000          3.6522190436857893E-013
 -0.10790000000000000         -3.1859784992496754E-013
 -0.10679999999999999         -1.1889139846232855E-012
 -0.10569999999999999         -1.0645832089137275E-012
 -0.10460000000000000          5.5171795951269864E-013
 -0.10349999999999999          1.5463648157104659E-012
 -0.10239999999999999          3.0305619125314820E-013
 -0.10130000000000000         -6.9936352715960215E-014
 -0.10020000000000000          3.0383352084273341E-012
  -9.9099999999999994E-002     6.5195990966993023E-012
  -9.7999999999999990E-002     3.5356587449464350E-012
  -9.6899999999999986E-002    -5.7891556132227961E-012
  -9.5799999999999996E-002    -1.6854601048166273E-011
  -9.4699999999999993E-002    -1.8595232992302257E-011
  -9.3599999999999989E-002     3.7843218142485924E-012
  -9.2499999999999999E-002     4.2575547254397605E-011
  -9.1399999999999995E-002     5.7246585943859785E-011
  -9.0299999999999991E-002     1.6714726824851311E-011
  -8.9200000000000002E-002    -4.7688658577627052E-011
  -8.8099999999999984E-002    -8.7225872358320800E-011
  -8.6999999999999994E-002    -1.1072440186943311E-010
  -8.5899999999999990E-002    -1.2651442393707413E-010
  -8.4799999999999986E-002    -3.9482826730274923E-011
  -8.3699999999999997E-002     1.4875409237724568E-010
  -8.2599999999999993E-002     2.6537644304269747E-010
  -8.1499999999999989E-002     8.8826626609694870E-011
  -8.0399999999999999E-002    -2.0981610893144875E-010
  -7.9299999999999995E-002    -2.0384824384045430E-010
  -7.8199999999999992E-002    -1.9349383206801463E-012
  -7.7100000000000002E-002     1.5422461918657149E-010
  -7.5999999999999984E-002     4.8544201991518321E-010
  -7.4899999999999994E-002     9.0866425495050862E-010
  -7.3799999999999991E-002     2.7955010528657454E-010
  -7.2699999999999987E-002    -9.6176921982049635E-010
  -7.1599999999999997E-002    -1.8668977475044812E-009
  -7.0499999999999993E-002    -1.7913046601591986E-009
  -6.9399999999999989E-002    -2.8739866042570839E-010
  -6.8300000000000000E-002     1.9008243867801866E-009
  -6.7199999999999996E-002     3.3331160054217435E-009
  -6.6099999999999992E-002     3.0387004024134967E-009
  -6.5000000000000002E-002     3.2530356186555309E-010
  -6.3899999999999985E-002    -3.7328558022409197E-009
  -6.2799999999999995E-002    -6.4860383730547255E-009
  -6.1699999999999991E-002    -4.6399737385627304E-009
  -6.0599999999999994E-002     2.7761131171644138E-009
  -5.9499999999999990E-002     1.6271481939611476E-008
  -5.8399999999999994E-002     2.1968817875972491E-008
  -5.7299999999999990E-002     7.7095601014320891E-009
  -5.6199999999999986E-002    -1.3042751767500249E-008
  -5.5099999999999996E-002    -2.7811267955257790E-008
  -5.3999999999999992E-002    -3.5832098177479565E-008
  -5.2899999999999989E-002    -4.0861031891381572E-008
  -5.1799999999999985E-002    -3.5895755701176313E-008
  -5.0699999999999995E-002     1.3375071716836828E-008
  -4.9599999999999991E-002     7.9196823321581178E-008
  -4.8499999999999988E-002     8.1488487069236726E-008
  -4.7399999999999998E-002     3.2854234888191058E-008
  -4.6299999999999994E-002    -6.3587233256612308E-009
  -4.5199999999999990E-002     4.3357193391102555E-009
  -4.4099999999999986E-002     3.8456086315363791E-008
  -4.2999999999999997E-002    -2.0108714693378715E-008
  -4.1899999999999993E-002    -1.5786332596690045E-007
  -4.0799999999999989E-002    -1.7517812977985159E-007
  -3.9699999999999985E-002    -1.8326296924442431E-008
  -3.8599999999999995E-002     1.6959035065156058E-007
  -3.7499999999999992E-002     1.6602552932454273E-007
  -3.6399999999999988E-002    -3.2585553810804413E-008
  -3.5299999999999984E-002    -2.0318736915214686E-007
  -3.4199999999999994E-002    -1.9707624687725911E-007
  -3.3099999999999991E-002     6.3664472804703109E-008
  -3.1999999999999987E-002     4.2574777125992114E-007
  -3.0899999999999997E-002     3.6107189771428239E-007
  -2.9799999999999993E-002    -2.5615025833758409E-007
  -2.8699999999999989E-002    -8.1124278494826285E-007
  -2.7599999999999986E-002    -6.3809466155362315E-007
  -2.6499999999999996E-002     4.4917371155861474E-007
  -2.5399999999999992E-002     1.5354235074482858E-006
  -2.4299999999999988E-002     1.5344049870691379E-006
  -2.3199999999999985E-002     1.7264596863242332E-007
  -2.2099999999999995E-002    -1.5068908396642655E-006
  -2.0999999999999991E-002    -1.7582103737368016E-006
  -1.9899999999999987E-002    -2.2355777673510602E-007
  -1.8799999999999983E-002     1.4091272078076145E-006
  -1.7699999999999994E-002     1.0363495448473259E-006
  -1.6599999999999990E-002    -1.0363353339926107E-006
  -1.5499999999999986E-002    -2.8426777589629637E-006
  -1.4399999999999996E-002    -2.6603629521559924E-006
  -1.3299999999999992E-002    -1.9453000277280807E-007
  -1.2199999999999989E-002     2.7041733119403943E-006
  -1.1099999999999985E-002     4.1402845454285853E-006
  -9.9999999999999950E-003     2.7612109079200309E-006
  -8.8999999999999913E-003     2.2713709313393338E-007
  -7.7999999999999875E-003    -6.0804802615166409E-007
  -6.6999999999999837E-003    -2.3323326558966073E-007
  -5.5999999999999939E-003    -1.3952956123830518E-007
  -4.4999999999999901E-003    -1.1743442200895515E-006
  -3.3999999999999864E-003    -2.5595290935598314E-006
  -2.2999999999999826E-003    -2.7306402898830129E-006
  -1.1999999999999927E-003    -1.7691588709567441E-006
  -9.9999999999988987E-005     3.0861872346577002E-007
   1.0000000000000148E-003     2.8263962121855002E-006
   2.1000000000000185E-003     4.0404697756457608E-006
   3.2000000000000084E-003     2.3619513740413822E-006
   4.3000000000000121E-003    -1.3210110410000198E-006
   5.4000000000000159E-003    -3.4721217616606737E-006
   6.5000000000000058E-003    -2.2498995804198785E-006
   7.6000000000000234E-003     3.5750747429119656E-007
   8.7000000000000133E-003     1.5308405636460520E-006
   9.8000000000000032E-003     5.6935914471978322E-007
   1.0900000000000021E-002    -1.1743443337763892E-006
   1.2000000000000011E-002    -1.1580480077100219E-006
   1.3100000000000001E-002     8.6269244548020652E-007
   1.4200000000000018E-002     2.2478773189504864E-006
   1.5300000000000008E-002     2.7602573027252220E-007
   1.6400000000000026E-002    -3.3580477065697778E-006
   1.7500000000000016E-002    -4.5476772356778383E-006
   1.8600000000000005E-002    -2.0298998606449459E-006
   1.9700000000000023E-002     2.9812106276949635E-006
   2.0800000000000013E-002     7.0960250013740733E-006
   2.1900000000000003E-002     7.2875063779065385E-006
   2.3000000000000020E-002     3.1726922316011041E-006
   2.4100000000000010E-002    -2.8324923277978087E-006
   2.5200000000000000E-002    -6.2964732023829129E-006
   2.6300000000000018E-002    -4.9387881517759524E-006
   2.7400000000000008E-002    -6.1008518059679773E-007
   2.8500000000000025E-002     1.5002848385847756E-006
   2.9600000000000015E-002    -1.2293444342503790E-006
   3.0700000000000005E-002    -5.3930475587549154E-006
   3.1800000000000023E-002    -5.6700846471358091E-006
   3.2900000000000013E-002    -3.5749280868913047E-007
   3.4000000000000002E-002     6.7965802372782491E-006
   3.5100000000000020E-002     1.1310653462714981E-005
   3.6200000000000010E-002     9.4039869509288110E-006
   3.7300000000000028E-002     1.3047288121015299E-006
   3.8400000000000017E-002    -6.9411962613230571E-006
   3.9500000000000007E-002    -9.1248994067427702E-006
   4.0600000000000025E-002    -3.7471222640306223E-006
   4.1700000000000015E-002     3.6839876429439755E-006
   4.2800000000000005E-002     6.0958391259191558E-006
   4.3900000000000022E-002     2.8365802791086026E-006
   4.5000000000000012E-002    -1.7915672287927009E-006
   4.6100000000000002E-002    -3.3234189231734490E-006
   4.7200000000000020E-002    -1.6286044228763785E-006
   4.8300000000000010E-002     1.0439878224133281E-006
   4.9400000000000027E-002     2.1521359485632274E-006
   5.0500000000000017E-002    -3.5749326343648136E-007
   5.1600000000000007E-002    -4.6597151595051400E-006
   5.2700000000000025E-002    -5.0182334234705195E-006
   5.3800000000000014E-002    -4.0638224163558334E-007
   5.4900000000000004E-002     4.6454688344965689E-006
   5.6000000000000022E-002     5.9165795391891152E-006
   5.7100000000000012E-002     3.3617197914281860E-008
   5.8200000000000002E-002    -7.8537887020502239E-006
   5.9300000000000019E-002    -1.0534528882999439E-005
   6.0400000000000009E-002    -5.1811966841341928E-006
   6.1500000000000027E-002     4.9388013394491281E-006
   6.2600000000000017E-002     1.0882874448725488E-005
   6.3700000000000007E-002     7.5930602179141715E-006
   6.4800000000000024E-002    -1.6973549463727977E-006
   6.5900000000000014E-002    -6.8790668592555448E-006
   6.7000000000000004E-002    -2.6909192456514575E-006
   6.8100000000000022E-002     5.7179686336894520E-006
   6.9200000000000012E-002     9.1727833932964131E-006
   7.0300000000000029E-002     3.0127848731353879E-006
   7.1400000000000019E-002    -7.7672139013884589E-006
   7.2500000000000009E-002    -1.3210175893618725E-005
   7.3600000000000027E-002    -7.2620287028257735E-006
   7.4700000000000016E-002     6.0194506659172475E-006
   7.5800000000000006E-002     1.5585374057991430E-005
   7.6900000000000024E-002     1.2961669199285097E-005
   7.8000000000000014E-002     5.5004420573823154E-008
   7.9100000000000004E-002    -1.1433881809352897E-005
   8.0200000000000021E-002    -1.1515362530190032E-005
   8.1300000000000011E-002    -1.9983262973255478E-006
   8.2400000000000029E-002     6.7527835199143738E-006
   8.3500000000000019E-002     6.1335240388871171E-006
   8.4600000000000009E-002    -3.3835115118563408E-006
   8.5700000000000026E-002    -1.2362769666651729E-005
   8.6800000000000016E-002    -1.1336102943459991E-005
   8.7900000000000006E-002    -4.3388217818574049E-007
   8.9000000000000024E-002     1.0566116543486714E-005
   9.0100000000000013E-002     1.2195746421639342E-005
   9.1200000000000003E-002     3.7379700188466813E-006
   9.2300000000000021E-002    -5.8605473896022886E-006
   9.3400000000000011E-002    -6.2679546317667700E-006
   9.4500000000000028E-002     2.2550073026650352E-006
   9.5600000000000018E-002     1.0223895515082404E-005
   9.6700000000000008E-002     8.9446366473566741E-006
   9.7800000000000026E-002    -1.3057324395049363E-006
   9.8900000000000016E-002    -1.1327953870932106E-005
  0.10000000000000001         -1.2631657227757387E-005
  0.10110000000000002         -4.8746214815764688E-006
  0.10220000000000001          4.1413031794945709E-006
  0.10330000000000003          6.4961177486111410E-006
  0.10440000000000002          2.9455627554852981E-006
  0.10550000000000001          2.0574819359353569E-007
  0.10660000000000003          2.4913033485063352E-006
  0.10770000000000002          7.6592659752350301E-006
  0.10880000000000001          9.0500534497550689E-006
  0.10990000000000003          1.9190883904229850E-006
  0.11100000000000002         -9.7720385383581743E-006
  0.11210000000000001         -1.6228172171395272E-005
  0.11320000000000002         -1.1104006262030452E-005
  0.11430000000000001          2.0633992789953481E-006
  0.11540000000000003          1.2228212654008530E-005
  0.11650000000000002          1.1373675988579635E-005
  0.11760000000000001          1.5683995115978178E-006
  0.11870000000000003         -6.9871548475930467E-006
  0.11980000000000002         -5.7690067478688434E-006
  0.12090000000000001          3.1369179396278923E-006
  0.12200000000000003          9.5026571216294542E-006
  0.12310000000000001          5.1759911912085954E-006
  0.12420000000000003         -7.9017845564521849E-006
  0.12530000000000002         -1.8341597751714289E-005
  0.12640000000000001         -1.6139560102601536E-005
  0.12750000000000003         -2.3080801838659681E-006
  0.12860000000000002          1.1710806575138122E-005
  0.12970000000000001          1.4678768820886035E-005
  0.13080000000000003          6.0091401792305987E-006
  0.13190000000000002         -4.4530806917464361E-006
  0.13300000000000001         -6.2314138631336391E-006
  0.13410000000000000          1.7537704479764216E-006
  0.13520000000000004          1.0624046808516141E-005
  0.13630000000000003          1.0212565030087717E-005
  0.13740000000000002         -6.3159995988826267E-007
  0.13850000000000001         -1.2673543096752837E-005
  0.13960000000000000         -1.4874562111799605E-005
  0.14070000000000005         -5.0316007218498271E-006
  0.14180000000000004          8.1938605944742449E-006
  0.14290000000000003          1.3424971257336438E-005
  0.14400000000000002          7.2491852733946871E-006
  0.14510000000000001         -3.0459982554020826E-006
  0.14620000000000000         -7.6104879553895444E-006
  0.14730000000000004         -3.4747940844681580E-006
  0.14840000000000003          3.3518253985675983E-006
  0.14950000000000002          4.5368715291260742E-006
  0.15060000000000001         -1.9103499653283507E-006
  0.15170000000000000         -9.6230796771124005E-006
  0.15280000000000005         -1.0584050869510975E-005
  0.15390000000000004         -3.3759961297619157E-006
  0.15500000000000003          5.5197433539433405E-006
  0.15610000000000002          8.4309231169754639E-006
  0.15720000000000001          4.1274279283243231E-006
  0.15830000000000000         -1.4662750800198410E-006
  0.15940000000000004         -1.9869926290994044E-006
  0.16050000000000003          2.5533076950523537E-006
  0.16160000000000002          6.2248118410934694E-006
  0.16270000000000001          3.9130300137912855E-006
  0.16380000000000000         -2.8125014068791643E-006
  0.16490000000000005         -7.1434960773331113E-006
  0.16600000000000004         -4.4757416617358103E-006
  0.16710000000000003          2.4809935439407127E-006
  0.16820000000000002          6.3946504269551951E-006
  0.16930000000000001          3.1937015592120588E-006
  0.17040000000000000         -3.4317604331590701E-006
  0.17150000000000004         -5.8690748119261116E-006
  0.17260000000000003         -7.5547632150119171E-007
  0.17370000000000002          7.1119411586550996E-006
  0.17480000000000001          9.4069182523526251E-006
  0.17590000000000000          3.0043847800698131E-006
  0.17700000000000005         -6.4553591982985381E-006
  0.17810000000000004         -1.0073773410113063E-005
  0.17920000000000003         -4.6744803512410726E-006
  0.18030000000000002          3.5972896057501202E-006
  0.18140000000000001          5.3990488595445640E-006
  0.18250000000000000         -1.8171535884903278E-006
  0.18360000000000004         -1.0726261280069593E-005
  0.18470000000000003         -1.1202927453268785E-005
  0.18580000000000002         -4.8219408199656755E-007
  0.18690000000000001          1.3458520697895437E-005
  0.18800000000000000          1.8928663848782890E-005
  0.18910000000000005          1.1328542314004153E-005
  0.19020000000000004         -2.7648238756228238E-006
  0.19130000000000003         -1.2055238585162442E-005
  0.19240000000000002         -1.0894636943703517E-005
  0.19350000000000001         -3.3322016861347947E-006
  0.19460000000000005          2.2979768345976481E-006
  0.19570000000000004          1.9733874978555832E-006
  0.19680000000000003         -9.9705789580184501E-007
  0.19790000000000002         -9.6096414381463546E-007
  0.19900000000000001          3.2077043670142302E-006
  0.20010000000000000          6.9651459853048436E-006
  0.20120000000000005          5.5130249165813439E-006
  0.20230000000000004         -4.7439903028134722E-007
  0.20340000000000003         -5.4102029025671072E-006
  0.20450000000000002         -4.9793056859925855E-006
  0.20560000000000000         -8.1098710325022694E-007
  0.20670000000000005          1.5129218127185595E-006
  0.20780000000000004         -9.0975140665250365E-007
  0.20890000000000003         -4.6942791414039675E-006
