 -0.12000000000000000          0.0000000000000000     
 -0.11889999999999999          0.0000000000000000     
 -0.11780000000000000          0.0000000000000000     
 -0.11670000000000000          0.0000000000000000     
 -0.11559999999999999          0.0000000000000000     
 -0.11449999999999999          0.0000000000000000     
 -0.11340000000000000         -6.5790985359044963E-021
 -0.11230000000000000          5.7893837293598871E-013
 -0.11119999999999999          2.9382637815877910E-012
 -0.11009999999999999          1.3134681059803754E-012
 -0.10900000000000000         -2.9832709219634879E-011
 -0.10790000000000000         -1.0526832877610914E-010
 -0.10679999999999999         -1.0052763482759630E-010
 -0.10569999999999999          3.2900751567588316E-010
 -0.10460000000000000          1.3330857528970341E-009
 -0.10349999999999999          1.8040278160214029E-009
 -0.10239999999999999         -1.0224137092507135E-009
 -0.10130000000000000         -8.7406162307956947E-009
 -0.10020000000000000         -1.5601100855633376E-008
  -9.9099999999999994E-002    -6.0568452475706636E-009
  -9.7999999999999990E-002     3.2476691558258608E-008
  -9.6899999999999986E-002     8.1627376857795753E-008
  -9.5799999999999996E-002     7.6854874464515888E-008
  -9.4699999999999993E-002    -5.1379391408090669E-008
  -9.3599999999999989E-002    -2.7567855909182981E-007
  -9.2499999999999999E-002    -3.9652360328545910E-007
  -9.1399999999999995E-002    -1.3579010271769221E-007
  -9.0299999999999991E-002     5.6372277867922094E-007
  -8.9200000000000002E-002     1.2536870599433314E-006
  -8.8099999999999984E-002     1.1065229728046688E-006
  -8.6999999999999994E-002    -3.7490721638278046E-007
  -8.5899999999999990E-002    -2.5197000468324404E-006
  -8.4799999999999986E-002    -3.4697491173574235E-006
  -8.3699999999999997E-002    -1.5408494391522254E-006
  -8.2599999999999993E-002     2.8119573016738286E-006
  -8.1499999999999989E-002     6.3869711084407754E-006
  -8.0399999999999999E-002     5.4111978897708468E-006
  -7.9299999999999995E-002    -6.3236979030989460E-007
  -7.8199999999999992E-002    -7.1689410106046125E-006
  -7.7100000000000002E-002    -7.7137246989877895E-006
  -7.5999999999999984E-002    -5.5433582701880368E-007
  -7.4899999999999994E-002     7.4401050369488075E-006
  -7.3799999999999991E-002     5.7143006415572017E-006
  -7.2699999999999987E-002    -8.3246477515785955E-006
  -7.1599999999999997E-002    -2.1855070372112095E-005
  -7.0499999999999993E-002    -1.4389393982128240E-005
  -6.9399999999999989E-002     2.1162921257200651E-005
  -6.8300000000000000E-002     6.2377686845138669E-005
  -6.7199999999999996E-002     6.6853383032139391E-005
  -6.6099999999999992E-002     8.2282549556111917E-006
  -6.5000000000000002E-002    -8.9137582108378410E-005
  -6.3899999999999985E-002    -1.5371637709904462E-004
  -6.2799999999999995E-002    -1.1838439240818843E-004
  -6.1699999999999991E-002     1.6347392374882475E-005
  -6.0599999999999994E-002     1.6605052223894745E-004
  -5.9499999999999990E-002     2.2006814833730459E-004
  -5.8399999999999994E-002     1.3344179023988545E-004
  -5.7299999999999990E-002    -2.8355208996799774E-005
  -5.6199999999999986E-002    -1.4159732381813228E-004
  -5.5099999999999996E-002    -1.3526689144782722E-004
  -5.3999999999999992E-002    -5.7976474636234343E-005
  -5.2899999999999989E-002    -2.7651585696730763E-005
  -5.1799999999999985E-002    -1.0117344208993018E-004
  -5.0699999999999995E-002    -1.9172519387211651E-004
  -4.9599999999999991E-002    -1.3372617831919342E-004
  -4.8499999999999988E-002     1.4336542517412454E-004
  -4.7399999999999998E-002     4.9520708853378892E-004
  -4.6299999999999994E-002     6.3666258938610554E-004
  -4.5199999999999990E-002     3.7766119930893183E-004
  -4.4099999999999986E-002    -1.8088240176439285E-004
  -4.2999999999999997E-002    -6.8645563442260027E-004
  -4.1899999999999993E-002    -8.0353824887424707E-004
  -4.0799999999999989E-002    -4.8511649947613478E-004
  -3.9699999999999985E-002     9.3795620159653481E-007
  -3.8599999999999995E-002     3.2048177672550082E-004
  -3.7499999999999992E-002     3.6448097671382129E-004
  -3.6399999999999988E-002     3.0319459619931877E-004
  -3.5299999999999984E-002     3.5286243655718863E-004
  -3.4199999999999994E-002     4.9721065443009138E-004
  -3.3099999999999991E-002     4.6618212945759296E-004
  -3.1999999999999987E-002     2.2934353182790801E-005
  -3.0899999999999997E-002    -7.1588245918974280E-004
  -2.9799999999999993E-002    -1.2693719472736120E-003
  -2.8699999999999989E-002    -1.1521694250404835E-003
  -2.7599999999999986E-002    -2.9726760112680495E-004
  -2.6499999999999996E-002     8.5081183351576328E-004
  -2.5399999999999992E-002     1.6652153572067618E-003
  -2.4299999999999988E-002     1.7830247525125742E-003
  -2.3199999999999985E-002     1.2657967163249850E-003
  -2.2099999999999995E-002     3.7544639781117439E-004
  -2.0999999999999991E-002    -7.4189581209793687E-004
  -1.9899999999999987E-002    -2.1048220805823803E-003
  -1.8799999999999983E-002    -3.6511868238449097E-003
  -1.7699999999999994E-002    -5.0403997302055359E-003
  -1.6599999999999990E-002    -5.8292457833886147E-003
  -1.5499999999999986E-002    -5.9251622296869755E-003
  -1.4399999999999996E-002    -5.8388854376971722E-003
  -1.3299999999999992E-002    -6.3716340810060501E-003
  -1.2199999999999989E-002    -7.9364320263266563E-003
  -1.1099999999999985E-002    -1.0164620354771614E-002
  -9.9999999999999950E-003    -1.2269681319594383E-002
  -8.8999999999999913E-003    -1.3921493664383888E-002
  -7.7999999999999875E-003    -1.5813501551747322E-002
  -6.6999999999999837E-003    -1.9303949549794197E-002
  -5.5999999999999939E-003    -2.5361068546772003E-002
  -4.4999999999999901E-003    -3.3753592520952225E-002
  -3.3999999999999864E-003    -4.3271757662296295E-002
  -2.2999999999999826E-003    -5.2832521498203278E-002
  -1.1999999999999927E-003    -6.2502034008502960E-002
  -9.9999999999988987E-005    -7.3545411229133606E-002
   1.0000000000000148E-003    -8.7526917457580566E-002
   2.1000000000000185E-003   -0.10534558445215225     
   3.2000000000000084E-003   -0.12707765400409698     
   4.3000000000000121E-003   -0.15262456238269806     
   5.4000000000000159E-003   -0.18240246176719666     
   6.5000000000000058E-003   -0.21735511720180511     
   7.6000000000000234E-003   -0.25838011503219604     
   8.7000000000000133E-003   -0.30591243505477905     
   9.8000000000000032E-003   -0.36021128296852112     
   1.0900000000000021E-002   -0.42206639051437378     
   1.2000000000000011E-002   -0.49313709139823914     
   1.3100000000000001E-002   -0.57542955875396729     
   1.4200000000000018E-002   -0.67043370008468628     
   1.5300000000000008E-002   -0.77880638837814331     
   1.6400000000000026E-002   -0.90096271038055420     
   1.7500000000000016E-002    -1.0379847288131714     
   1.8600000000000005E-002    -1.1918190717697144     
   1.9700000000000023E-002    -1.3645261526107788     
   2.0800000000000013E-002    -1.5573287010192871     
   2.1900000000000003E-002    -1.7705360651016235     
   2.3000000000000020E-002    -2.0045142173767090     
   2.4100000000000010E-002    -2.2607307434082031     
   2.5200000000000000E-002    -2.5415532588958740     
   2.6300000000000018E-002    -2.8489930629730225     
   2.7400000000000008E-002    -3.1832723617553711     
   2.8500000000000025E-002    -3.5428333282470703     
   2.9600000000000015E-002    -3.9254031181335449     
   3.0700000000000005E-002    -4.3298530578613281     
   3.1800000000000023E-002    -4.7561511993408203     
   3.2900000000000013E-002    -5.2042679786682129     
   3.4000000000000002E-002    -5.6723546981811523     
   3.5100000000000020E-002    -6.1563844680786133     
   3.6200000000000010E-002    -6.6510009765625000     
   3.7300000000000028E-002    -7.1508007049560547     
   3.8400000000000017E-002    -7.6499361991882324     
   3.9500000000000007E-002    -8.1419029235839844     
   4.0600000000000025E-002    -8.6189823150634766     
   4.1700000000000015E-002    -9.0720596313476562     
   4.2800000000000005E-002    -9.4914579391479492     
   4.3900000000000022E-002    -9.8684024810791016     
   4.5000000000000012E-002    -10.192613601684570     
   4.6100000000000002E-002    -10.451705932617188     
   4.7200000000000020E-002    -10.632261276245117     
   4.8300000000000010E-002    -10.720395088195801     
   4.9400000000000027E-002    -10.703469276428223     
   5.0500000000000017E-002    -10.570128440856934     
   5.1600000000000007E-002    -10.309028625488281     
   5.2700000000000025E-002    -9.9075317382812500     
   5.3800000000000014E-002    -9.3527688980102539     
   5.4900000000000004E-002    -8.6324214935302734     
   5.6000000000000022E-002    -7.7382435798645020     
   5.7100000000000012E-002    -6.6644363403320312     
   5.8200000000000002E-002    -5.4082512855529785     
   5.9300000000000019E-002    -3.9676365852355957     
   6.0400000000000009E-002    -2.3415403366088867     
   6.1500000000000027E-002   -0.53215551376342773     
   6.2600000000000017E-002     1.4552367925643921     
   6.3700000000000007E-002     3.6090810298919678     
   6.4800000000000024E-002     5.9146957397460938     
   6.5900000000000014E-002     8.3571252822875977     
   6.7000000000000004E-002     10.917109489440918     
   6.8100000000000022E-002     13.572598457336426     
   6.9200000000000012E-002     16.292871475219727     
   7.0300000000000029E-002     19.044574737548828     
   7.1400000000000019E-002     21.793222427368164     
   7.2500000000000009E-002     24.504713058471680     
   7.3600000000000027E-002     27.144798278808594     
   7.4700000000000016E-002     29.672393798828125     
   7.5800000000000006E-002     32.046916961669922     
   7.6900000000000024E-002     34.226039886474609     
   7.8000000000000014E-002     36.168342590332031     
   7.9100000000000004E-002     37.838203430175781     
   8.0200000000000021E-002     39.203289031982422     
   8.1300000000000011E-002     40.231048583984375     
   8.2400000000000029E-002     40.887424468994141     
   8.3500000000000019E-002     41.146499633789062     
   8.4600000000000009E-002     40.985736846923828     
   8.5700000000000026E-002     40.396640777587891     
   8.6800000000000016E-002     39.378349304199219     
   8.7900000000000006E-002     37.931404113769531     
   8.9000000000000024E-002     36.057285308837891     
   9.0100000000000013E-002     33.764930725097656     
   9.1200000000000003E-002     31.076900482177734     
   9.2300000000000021E-002     28.027980804443359     
   9.3400000000000011E-002     24.659730911254883     
   9.4500000000000028E-002     21.012575149536133     
   9.5600000000000018E-002     17.126916885375977     
   9.6700000000000008E-002     13.049538612365723     
   9.7800000000000026E-002     8.8411397933959961     
   9.8900000000000016E-002     4.5724143981933594     
  0.10000000000000001         0.31232589483261108     
  0.10110000000000002         -3.8797032833099365     
  0.10220000000000001         -7.9493618011474609     
  0.10330000000000003         -11.839954376220703     
  0.10440000000000002         -15.486057281494141     
  0.10550000000000001         -18.820812225341797     
  0.10660000000000003         -21.788440704345703     
  0.10770000000000002         -24.350975036621094     
  0.10880000000000001         -26.482040405273438     
  0.10990000000000003         -28.153692245483398     
  0.11100000000000002         -29.335041046142578     
  0.11210000000000001         -30.001337051391602     
  0.11320000000000002         -30.142587661743164     
  0.11430000000000001         -29.775226593017578     
  0.11540000000000003         -28.931514739990234     
  0.11650000000000002         -27.637788772583008     
  0.11760000000000001         -25.918737411499023     
  0.11870000000000003         -23.802301406860352     
  0.11980000000000002         -21.334560394287109     
  0.12090000000000001         -18.586923599243164     
  0.12200000000000003         -15.640449523925781     
  0.12310000000000001         -12.565413475036621     
  0.12420000000000003         -9.4201765060424805     
  0.12530000000000002         -6.2645621299743652     
  0.12640000000000001         -3.1749033927917480     
  0.12750000000000003        -0.24527403712272644     
  0.12860000000000002          2.4336588382720947     
  0.12970000000000001          4.7942810058593750     
  0.13080000000000003          6.7810063362121582     
  0.13190000000000002          8.3461027145385742     
  0.13300000000000001          9.4345769882202148     
  0.13410000000000000          9.9830503463745117     
  0.13520000000000004          9.9368581771850586     
  0.13630000000000003          9.2665615081787109     
  0.13740000000000002          7.9781913757324219     
  0.13850000000000001          6.0825619697570801     
  0.13960000000000000          3.5773773193359375     
  0.14070000000000005         0.46374809741973877     
  0.14180000000000004         -3.2416291236877441     
  0.14290000000000003         -7.4915695190429688     
  0.14400000000000002         -12.205161094665527     
  0.14510000000000001         -17.306478500366211     
  0.14620000000000000         -22.728723526000977     
  0.14730000000000004         -28.411485671997070     
  0.14840000000000003         -34.268871307373047     
  0.14950000000000002         -40.187992095947266     
  0.15060000000000001         -46.046066284179688     
  0.15170000000000000         -51.724811553955078     
  0.15280000000000005         -57.122310638427734     
  0.15390000000000004         -62.149200439453125     
  0.15500000000000003         -66.706909179687500     
  0.15610000000000002         -70.686271667480469     
  0.15720000000000001         -73.966781616210938     
  0.15830000000000000         -76.455482482910156     
  0.15940000000000004         -78.082550048828125     
  0.16050000000000003         -78.797737121582031     
  0.16160000000000002         -78.557411193847656     
  0.16270000000000001         -77.313621520996094     
  0.16380000000000000         -75.027809143066406     
  0.16490000000000005         -71.691459655761719     
  0.16600000000000004         -67.325767517089844     
  0.16710000000000003         -61.977325439453125     
  0.16820000000000002         -55.697948455810547     
  0.16930000000000001         -48.543666839599609     
  0.17040000000000000         -40.575904846191406     
  0.17150000000000004         -31.881921768188477     
  0.17260000000000003         -22.583730697631836     
  0.17370000000000002         -12.811583518981934     
  0.17480000000000001         -2.7002069950103760     
  0.17590000000000000          7.6223988533020020     
  0.17700000000000005          18.029657363891602     
  0.17810000000000004          28.381032943725586     
  0.17920000000000003          38.524467468261719     
  0.18030000000000002          48.306808471679688     
  0.18140000000000001          57.596527099609375     
  0.18250000000000000          66.272140502929688     
  0.18360000000000004          74.227424621582031     
  0.18470000000000003          81.357589721679688     
  0.18580000000000002          87.564079284667969     
  0.18690000000000001          92.767250061035156     
  0.18800000000000000          96.912361145019531     
  0.18910000000000005          99.956665039062500     
  0.19020000000000004          101.87923431396484     
  0.19130000000000003          102.67520904541016     
  0.19240000000000002          102.35089874267578     
  0.19350000000000001          100.93471527099609     
  0.19460000000000005          98.479003906250000     
  0.19570000000000004          95.051261901855469     
  0.19680000000000003          90.723236083984375     
  0.19790000000000002          85.571250915527344     
  0.19900000000000001          79.683738708496094     
  0.20010000000000000          73.165794372558594     
  0.20120000000000005          66.135589599609375     
  0.20230000000000004          58.715148925781250     
  0.20340000000000003          51.009105682373047     
  0.20450000000000002          43.120750427246094     
  0.20560000000000000          35.154529571533203     
  0.20670000000000005          27.229122161865234     
  0.20780000000000004          19.454900741577148     
  0.20890000000000003          11.926457405090332     
