 -0.12000000000000000          0.0000000000000000     
 -0.11889999999999999          0.0000000000000000     
 -0.11780000000000000          0.0000000000000000     
 -0.11670000000000000          0.0000000000000000     
 -0.11559999999999999          0.0000000000000000     
 -0.11449999999999999          0.0000000000000000     
 -0.11340000000000000         -5.7896066934206015E-023
 -0.11230000000000000          8.2501895696787933E-022
 -0.11119999999999999         -8.9738898068220805E-022
 -0.11009999999999999         -5.6448662925822585E-021
 -0.10900000000000000         -1.3287147582281334E-020
 -0.10790000000000000          1.4502965757827904E-020
 -0.10679999999999999          4.4145750412554249E-020
 -0.10569999999999999          1.2195806194874643E-019
 -0.10460000000000000          3.2204687412012382E-019
 -0.10349999999999999          2.3311852177153192E-019
 -0.10239999999999999         -1.1749137969877900E-018
 -0.10130000000000000         -3.2054446080366493E-018
 -0.10020000000000000         -2.1383044832511230E-018
  -9.9099999999999994E-002     2.1302568430715946E-018
  -9.7999999999999990E-002     1.0193095225584744E-017
  -9.6899999999999986E-002     1.8730217878230179E-017
  -9.5799999999999996E-002     1.8730217878230179E-017
  -9.4699999999999993E-002    -1.3046850140919213E-017
  -9.3599999999999989E-002    -6.4743869913333805E-017
  -9.2499999999999999E-002    -1.0837805088964494E-016
  -9.1399999999999995E-002    -1.0553234444167061E-016
  -9.0299999999999991E-002    -2.1109688937022669E-017
  -8.9200000000000002E-002     2.8243244247098736E-016
  -8.8099999999999984E-002     6.3150589028147645E-016
  -8.6999999999999994E-002     5.8597453417432799E-016
  -8.5899999999999990E-002    -5.1463948399937975E-017
  -8.4799999999999986E-002    -1.1442156214687741E-015
  -8.3699999999999997E-002    -1.9941336688205410E-015
  -8.2599999999999993E-002    -2.1155505478535246E-015
  -8.1499999999999989E-002    -7.7996509024894165E-016
  -8.0399999999999999E-002     2.3768731293339219E-015
  -7.9299999999999995E-002     6.0193786532904830E-015
  -7.8199999999999992E-002     7.2335470201038456E-015
  -7.7100000000000002E-002     1.7697889459272406E-015
  -7.5999999999999984E-002    -7.5793084102718927E-015
  -7.4899999999999994E-002    -1.2921650240690224E-014
  -7.3799999999999991E-002    -1.2921650240690224E-014
  -7.2699999999999987E-002    -5.7580558600518490E-015
  -7.1599999999999997E-002     7.7192145362357800E-015
  -7.0499999999999993E-002     2.5688910092018513E-014
  -6.9399999999999989E-002     3.4309506597536218E-014
  -6.8300000000000000E-002     2.5446075910436072E-014
  -6.7199999999999996E-002    -7.7996487849070484E-016
  -6.6099999999999992E-002    -2.9980717615538804E-014
  -6.5000000000000002E-002    -3.7812103030913577E-014
  -6.3899999999999985E-002    -2.6156084337813044E-014
  -6.2799999999999995E-002    -1.9356740806031857E-014
  -6.1699999999999991E-002    -2.6156086031878939E-014
  -6.0599999999999994E-002    -1.8385409161899777E-014
  -5.9499999999999990E-002     3.0181332286898302E-014
  -5.8399999999999994E-002     1.3872800477821023E-013
  -5.7299999999999990E-002     2.6864404797932728E-013
  -5.6199999999999986E-002     2.9584142210645203E-013
  -5.5099999999999996E-002     9.3803776053148769E-014
  -5.3999999999999992E-002    -3.2969820992247156E-013
  -5.2899999999999989E-002    -8.0370963790460381E-013
  -5.1799999999999985E-002    -1.0096325902056447E-012
  -5.0699999999999995E-002    -6.2498400552057909E-013
  -4.9599999999999991E-002     3.5023614325564723E-013
  -4.8499999999999988E-002     1.5158379109217468E-012
  -4.7399999999999998E-002     2.2132564878041272E-012
  -4.6299999999999994E-002     1.8227799911813003E-012
  -4.5199999999999990E-002     1.7539615593253899E-013
  -4.4099999999999986E-002    -2.1014127937757365E-012
  -4.2999999999999997E-002    -3.8614714724383159E-012
  -4.1899999999999993E-002    -3.9294648264409648E-012
  -4.0799999999999989E-002    -1.8100123179778937E-012
  -3.9699999999999985E-002     1.6751370256196108E-012
  -3.8599999999999995E-002     4.8028352128692831E-012
  -3.7499999999999992E-002     5.8985008717649112E-012
  -3.6399999999999988E-002     4.4531548587523062E-012
  -3.5299999999999984E-002     1.3138008476271112E-012
  -3.4199999999999994E-002    -2.1830042114256987E-012
  -3.3099999999999991E-002    -5.1902566446104803E-012
  -3.1999999999999987E-002    -7.5214600173123536E-012
  -3.0899999999999997E-002    -8.3762346017590694E-012
  -2.9799999999999993E-002    -5.6564969722061598E-012
  -2.8699999999999989E-002     2.4871738783099895E-012
  -2.7599999999999986E-002     1.4049942632932133E-011
  -2.6499999999999996E-002     2.0732726299654836E-011
  -2.5399999999999992E-002     1.2837716133196064E-011
  -2.4299999999999988E-002    -9.2931773387761041E-012
  -2.3199999999999985E-002    -2.9745601815012179E-011
  -2.2099999999999995E-002    -2.8036052646118748E-011
  -2.0999999999999991E-002     1.8422052078248541E-012
  -1.9899999999999987E-002     3.7874842151452981E-011
  -1.8799999999999983E-002     3.9211398017435783E-011
  -1.7699999999999994E-002    -1.7918633590796595E-011
  -1.6599999999999990E-002    -1.0171763431543468E-010
  -1.5499999999999986E-002    -1.3497614137492064E-010
  -1.4399999999999996E-002    -6.0128971246520280E-011
  -1.3299999999999992E-002     9.6900890089735014E-011
  -1.2199999999999989E-002     2.1551252449292235E-010
  -1.1099999999999985E-002     1.5807166686698793E-010
  -9.9999999999999950E-003    -8.9471062503232446E-011
  -8.8999999999999913E-003    -3.4124106318422776E-010
  -7.7999999999999875E-003    -3.3601918469905456E-010
  -6.6999999999999837E-003     3.6973368811032969E-011
  -5.5999999999999939E-003     5.5319504532747032E-010
  -4.4999999999999901E-003     7.7102274564921913E-010
  -3.3999999999999864E-003     4.2488565443754567E-010
  -2.2999999999999826E-003    -3.5591213309871250E-010
  -1.1999999999999927E-003    -1.1227848650818828E-009
  -9.9999999999988987E-005    -1.3754252181641391E-009
   1.0000000000000148E-003    -9.5568419844482833E-010
   2.1000000000000185E-003    -1.6593457163871506E-010
   3.2000000000000084E-003     7.3123684884990325E-010
   4.3000000000000121E-003     1.4831899042277996E-009
   5.4000000000000159E-003     1.8293270231950487E-009
   6.5000000000000058E-003     1.6622263565579942E-009
   7.6000000000000234E-003     6.5166511076242273E-010
   8.7000000000000133E-003    -1.0591274524074379E-009
   9.8000000000000032E-003    -2.4357187378143408E-009
   1.0900000000000021E-002    -1.8628021347666390E-009
   1.2000000000000011E-002     9.2220897585093553E-010
   1.3100000000000001E-002     3.8822780545899604E-009
   1.4200000000000018E-002     4.0095931019834552E-009
   1.5300000000000008E-002    -1.7588086542730252E-010
   1.6400000000000026E-002    -6.2551626101026159E-009
   1.7500000000000016E-002    -1.1666040578006687E-008
   1.8600000000000005E-002    -1.2461757847859189E-008
   1.9700000000000023E-002    -6.1596758804682850E-009
   2.0800000000000013E-002     3.2616189749035129E-009
   2.1900000000000003E-002     9.3090717356858477E-009
   2.3000000000000020E-002     8.6724973868967936E-009
   2.4100000000000010E-002     3.5162479594674778E-009
   2.5200000000000000E-002     1.5091095040276059E-011
   2.6300000000000018E-002     3.0706459597240610E-009
   2.7400000000000008E-002     8.7998115461118687E-009
   2.8500000000000025E-002     8.1632380855012343E-009
   2.9600000000000015E-002     7.7897999162246379E-010
   3.0700000000000005E-002    -7.8784267998344149E-009
   3.1800000000000023E-002    -7.6237967050474253E-009
   3.2900000000000013E-002     5.1076831653062982E-009
   3.4000000000000002E-002     1.3001201004669838E-008
   3.5100000000000020E-002     1.2491942591452698E-008
   3.6200000000000010E-002     9.9456469726533214E-009
   3.7300000000000028E-002    -2.0219443896962730E-009
   3.8400000000000017E-002    -1.8318239369818912E-008
   3.9500000000000007E-002    -4.7346013332116854E-008
   4.0600000000000025E-002    -9.2160824749498715E-008
   4.1700000000000015E-002    -1.0591082144628672E-007
   4.2800000000000005E-002    -4.6327496505682575E-008
   4.3900000000000022E-002     5.8579892936450051E-008
   4.5000000000000012E-002     1.1459840010275002E-007
   4.6100000000000002E-002     5.3487291040710261E-008
   4.7200000000000020E-002    -1.0030898778268238E-007
   4.8300000000000010E-002    -2.2660526610707166E-007
   4.9400000000000027E-002    -2.1743861111644947E-007
   5.0500000000000017E-002    -1.2716427022496646E-008
   5.1600000000000007E-002     2.8978351451769413E-007
   5.2700000000000025E-002     4.5987607677488995E-007
   5.3800000000000014E-002     3.4274648896825965E-007
   5.4900000000000004E-002     1.4783566371079360E-008
   5.6000000000000022E-002    -3.1317935622610094E-007
   5.7100000000000012E-002    -4.1910527670552256E-007
   5.8200000000000002E-002    -2.6225345095554076E-007
   5.9300000000000019E-002    -8.7068286802605144E-008
   6.0400000000000009E-002    -5.2438657860420790E-008
   6.1500000000000027E-002    -1.1762383422819767E-007
   6.2600000000000017E-002    -1.7058680157333583E-007
   6.3700000000000007E-002    -1.1354978113331526E-007
   6.4800000000000024E-002     8.6079822381179838E-008
   6.5900000000000014E-002     3.6515388046609587E-007
   6.7000000000000004E-002     5.4645016689391923E-007
   6.8100000000000022E-002     4.7515391088381875E-007
   6.9200000000000012E-002     1.8793174660913792E-007
   7.0300000000000029E-002    -8.5031182095463009E-008
   7.1400000000000019E-002    -8.2994148442594451E-008
   7.2500000000000009E-002     1.5737619207811804E-007
   7.3600000000000027E-002     1.5941321862555924E-007
   7.4700000000000016E-002    -3.5799411080006394E-007
   7.5800000000000006E-002    -9.0188291324011516E-007
   7.6900000000000024E-002    -8.6929031795079936E-007
   7.8000000000000014E-002    -2.8669782636825403E-007
   7.9100000000000004E-002     3.7330207192098896E-007
   8.0200000000000021E-002     6.4015387124527479E-007
   8.1300000000000011E-002     3.2441315056530584E-007
   8.2400000000000029E-002    -2.4799416564746934E-007
   8.3500000000000019E-002    -6.0447558780651889E-007
   8.4600000000000009E-002    -5.0160520004283171E-007
   8.5700000000000026E-002     7.4876226108244737E-008
   8.6800000000000016E-002     7.5015395850641653E-007
   8.7900000000000006E-002     8.6626505435560830E-007
   8.9000000000000024E-002     2.9156606728975021E-007
   9.0100000000000013E-002    -3.9198707213472517E-007
   9.1200000000000003E-002    -4.9371158183930675E-007
   9.2300000000000021E-002     5.2214261359040393E-008
   9.3400000000000011E-002     7.4378823455845122E-007
   9.4500000000000028E-002     1.1389734027034137E-006
   9.5600000000000018E-002     9.3119570010458119E-007
   9.6700000000000008E-002     1.7749212588569208E-007
   9.7800000000000026E-002    -6.3935959815353272E-007
   9.8900000000000016E-002    -1.0467668971614330E-006
  0.10000000000000001         -1.0019521141657606E-006
  0.10110000000000002         -5.9861883983103326E-007
  0.10220000000000001          7.3603274586275802E-008
  0.10330000000000003          7.3767722597040120E-007
  0.10440000000000002          1.0636030083333026E-006
  0.10550000000000001          8.4360300434127566E-007
  0.10660000000000003          2.9767716114292853E-007
  0.10770000000000002         -2.8898941195620864E-007
  0.10880000000000001         -6.7195230712968623E-007
  0.10990000000000003         -5.6602641507197404E-007
  0.11100000000000002         -1.4232276157599699E-007
  0.11210000000000001          6.4804748944879975E-007
  0.11320000000000002          1.2510103033491760E-006
  0.11430000000000001          9.2508440729943686E-007
  0.11540000000000003         -1.5047100987430895E-007
  0.11650000000000002         -1.6334338397427928E-006
  0.11760000000000001         -2.5460262804699596E-006
  0.11870000000000003         -1.9267672541900538E-006
  0.11980000000000002          2.0804725409107050E-007
  0.12090000000000001          2.6036025246867212E-006
  0.12200000000000003          3.2391578770329943E-006
  0.12310000000000001          1.4628617464040872E-006
  0.12420000000000003         -1.6334340671164682E-006
  0.12530000000000002         -3.4912116007035365E-006
  0.12640000000000001         -2.4319524527527392E-006
  0.12750000000000003         -2.3195275389298331E-007
  0.12860000000000002          1.1206395811313996E-006
  0.12970000000000001          1.2998988268009271E-006
  0.13080000000000003          1.1858247717100312E-006
  0.13190000000000002          1.6258247796940850E-006
  0.13300000000000001          1.9354542928340379E-006
  0.13410000000000000          5.9915817018918460E-007
  0.13520000000000004         -1.4378786090674112E-006
  0.13630000000000003         -1.6660266055623651E-006
  0.13740000000000002         -6.2306378367793513E-007
  0.13850000000000001          5.1767682407444227E-007
  0.13960000000000000          6.8063980052102124E-007
  0.14070000000000005         -4.3565634655351460E-007
  0.14180000000000004         -1.2586191360242083E-006
  0.14290000000000003         -1.0345451073590084E-006
  0.14400000000000002         -6.0841557569801807E-008
  0.14510000000000001          7.1221393227460794E-007
  0.14620000000000000          5.1563989700298407E-007
  0.14730000000000004         -4.3769330204668222E-007
  0.14840000000000003         -1.1139894695588737E-006
  0.14950000000000002         -3.9695248688076390E-007
  0.15060000000000001          9.1489920350795728E-007
  0.15170000000000000          1.0289732017554343E-006
  0.15280000000000005         -4.6582215418311534E-008
  0.15390000000000004         -1.6762116956670070E-006
  0.15500000000000003         -2.9962116059323307E-006
  0.15610000000000002         -1.8880637071561068E-006
  0.15720000000000001          2.1534171992243500E-006
  0.15830000000000000          5.5104537750594318E-006
  0.15940000000000004          4.7282314881158527E-006
  0.16050000000000003          9.1489869191718753E-007
  0.16160000000000002         -1.8880639345297823E-006
  0.16270000000000001         -1.3013973330089357E-006
  0.16380000000000000          3.6082468568565673E-007
  0.16490000000000005         -4.5399008286040043E-007
  0.16600000000000004         -3.5828786622005282E-006
  0.16710000000000003         -6.0273227973084431E-006
  0.16820000000000002         -4.6258410293376073E-006
  0.16930000000000001          1.0126766483153915E-006
  0.17040000000000000          5.3800836212758441E-006
  0.17150000000000004          3.6526764688460389E-006
  0.17260000000000003         -2.0510265130724292E-006
  0.17370000000000002         -5.2125074034847785E-006
  0.17480000000000001         -2.1162115899642231E-006
  0.17590000000000000          5.3800836212758441E-006
  0.17700000000000005          1.0431935152155347E-005
  0.17810000000000004          7.7430468081729487E-006
  0.17920000000000003         -1.0895446393988095E-006
  0.18030000000000002         -9.7917654784396291E-006
  0.18140000000000001         -1.0541394658503123E-005
  0.18250000000000000         -2.9228772291389760E-006
  0.18360000000000004          4.5448996388586238E-006
  0.18470000000000003          5.8567516134644393E-006
  0.18580000000000002          2.5298886612290516E-006
  0.18690000000000001         -2.3369739210465923E-006
  0.18800000000000000         -4.4758626245311461E-006
  0.18910000000000005         -1.0047522209788440E-006
  0.19020000000000004          4.3078398448415101E-006
  0.19130000000000003          4.8048764256236609E-006
  0.19240000000000002         -1.2736409189528786E-006
  0.19350000000000001         -7.9551209637429565E-006
  0.19460000000000005         -8.3625282059074380E-006
  0.19570000000000004         -2.2025287762517110E-006
  0.19680000000000003          5.5708037507429253E-006
  0.19790000000000002          7.5752477641799487E-006
  0.19900000000000001          2.4419148303422844E-006
  0.20010000000000000         -2.8380845833453350E-006
  0.20120000000000005         -1.7625291093281703E-006
  0.20230000000000004          5.9619142120936885E-006
  0.20340000000000003          1.2953024452144746E-005
  0.20450000000000002          1.0150061825697776E-005
  0.20560000000000000         -2.6588259061099961E-006
  0.20670000000000005         -1.5907713532214984E-005
  0.20780000000000004         -1.8612898202263750E-005
  0.20890000000000003         -8.4928997239330783E-006
