 -0.12000000000000000          0.0000000000000000     
 -0.11889999999999999          0.0000000000000000     
 -0.11780000000000000          2.2178632207214832E-004
 -0.11670000000000000          3.1116814352571964E-004
 -0.11559999999999999         -5.5688252905383706E-004
 -0.11449999999999999         -2.0927509758621454E-003
 -0.11340000000000000         -2.1478172857314348E-003
 -0.11230000000000000          1.0002194903790951E-003
 -0.11119999999999999          5.3503136150538921E-003
 -0.11009999999999999          5.7672443799674511E-003
 -0.10900000000000000         -3.2016416662372649E-004
 -0.10790000000000000         -8.0733159556984901E-003
 -0.10679999999999999         -8.5453102365136147E-003
 -0.10569999999999999          1.1264516506344080E-003
 -0.10460000000000000          1.1749387718737125E-002
 -0.10349999999999999          9.6222693100571632E-003
 -0.10239999999999999         -7.6953261159360409E-003
 -0.10130000000000000         -2.4707671254873276E-002
 -0.10020000000000000         -2.1177461370825768E-002
  -9.9099999999999994E-002     5.5688931606709957E-003
  -9.7999999999999990E-002     3.3471733331680298E-002
  -9.6899999999999986E-002     3.5260800272226334E-002
  -9.5799999999999996E-002     7.2812791913747787E-003
  -9.4699999999999993E-002    -2.3665016517043114E-002
  -9.3599999999999989E-002    -2.6574220508337021E-002
  -9.2499999999999999E-002    -3.8080598460510373E-004
  -9.1399999999999995E-002     2.1948955953121185E-002
  -9.0299999999999991E-002     8.1111798062920570E-003
  -8.9200000000000002E-002    -3.4750483930110931E-002
  -8.8099999999999984E-002    -6.1444871127605438E-002
  -8.6999999999999994E-002    -3.4607928246259689E-002
  -8.5899999999999990E-002     3.1044187024235725E-002
  -8.4799999999999986E-002     7.6717436313629150E-002
  -8.3699999999999997E-002     5.7986058294773102E-002
  -8.2599999999999993E-002    -5.2488888613879681E-003
  -8.1499999999999989E-002    -4.4017974287271500E-002
  -8.0399999999999999E-002    -1.1355355381965637E-002
  -7.9299999999999995E-002     6.3482820987701416E-002
  -7.8199999999999992E-002     9.9651850759983063E-002
  -7.7100000000000002E-002     4.9446318298578262E-002
  -7.5999999999999984E-002    -4.4126588851213455E-002
  -7.4899999999999994E-002    -8.3266586065292358E-002
  -7.3799999999999991E-002    -1.5018984675407410E-002
  -7.2699999999999987E-002    0.10780104994773865     
  -7.1599999999999997E-002    0.17408469319343567     
  -7.0499999999999993E-002    0.12825901806354523     
  -6.9399999999999989E-002     3.2976809889078140E-002
  -6.8300000000000000E-002     9.2465411871671677E-003
  -6.7199999999999996E-002    0.10977824777364731     
  -6.6099999999999992E-002    0.25769042968750000     
  -6.5000000000000002E-002    0.32158842682838440     
  -6.3899999999999985E-002    0.25558897852897644     
  -6.2799999999999995E-002    0.15749675035476685     
  -6.1699999999999991E-002    0.17622998356819153     
  -6.0599999999999994E-002    0.35718646645545959     
  -5.9499999999999990E-002    0.58707255125045776     
  -5.8399999999999994E-002    0.70410978794097900     
  -5.7299999999999990E-002    0.66706585884094238     
  -5.6199999999999986E-002    0.60723233222961426     
  -5.5099999999999996E-002    0.70143669843673706     
  -5.3999999999999992E-002    0.99003827571868896     
  -5.2899999999999989E-002     1.3285948038101196     
  -5.1799999999999985E-002     1.5301419496536255     
  -5.0699999999999995E-002     1.5575656890869141     
  -4.9599999999999991E-002     1.5672285556793213     
  -4.8499999999999988E-002     1.7534321546554565     
  -4.7399999999999998E-002     2.1495416164398193     
  -4.6299999999999994E-002     2.5916409492492676     
  -4.5199999999999990E-002     2.8856589794158936     
  -4.4099999999999986E-002     3.0082960128784180     
  -4.2999999999999997E-002     3.1319832801818848     
  -4.1899999999999993E-002     3.4444954395294189     
  -4.0799999999999989E-002     3.9473412036895752     
  -3.9699999999999985E-002     4.4435162544250488     
  -3.8599999999999995E-002     4.7310085296630859     
  -3.7499999999999992E-002     4.8035902976989746     
  -3.6399999999999988E-002     4.8506741523742676     
  -3.5299999999999984E-002     5.0534882545471191     
  -3.4199999999999994E-002     5.3874845504760742     
  -3.3099999999999991E-002     5.6346564292907715     
  -3.1999999999999987E-002     5.5924272537231445     
  -3.0899999999999997E-002     5.2627344131469727     
  -2.9799999999999993E-002     4.8247790336608887     
  -2.8699999999999989E-002     4.4225215911865234     
  -2.7599999999999986E-002     3.9896216392517090     
  -2.6499999999999996E-002     3.2937440872192383     
  -2.5399999999999992E-002     2.1527626514434814     
  -2.4299999999999988E-002    0.59212213754653931     
  -2.3199999999999985E-002    -1.2179553508758545     
  -2.2099999999999995E-002    -3.1773293018341064     
  -2.0999999999999991E-002    -5.3917880058288574     
  -1.9899999999999987E-002    -8.0872030258178711     
  -1.8799999999999983E-002    -11.396158218383789     
  -1.7699999999999994E-002    -15.241090774536133     
  -1.6599999999999990E-002    -19.440805435180664     
  -1.5499999999999986E-002    -23.921577453613281     
  -1.4399999999999996E-002    -28.807392120361328     
  -1.3299999999999992E-002    -34.288764953613281     
  -1.2199999999999989E-002    -40.413005828857422     
  -1.1099999999999985E-002    -47.019546508789062     
  -9.9999999999999950E-003    -53.885784149169922     
  -8.8999999999999913E-003    -60.928199768066406     
  -7.7999999999999875E-003    -68.239288330078125     
  -6.6999999999999837E-003    -75.914329528808594     
  -5.5999999999999939E-003    -83.858879089355469     
  -4.4999999999999901E-003    -91.778762817382812     
  -3.3999999999999864E-003    -99.374519348144531     
  -2.2999999999999826E-003    -106.52674865722656     
  -1.1999999999999927E-003    -113.27924346923828     
  -9.9999999999988987E-005    -119.63195037841797     
   1.0000000000000148E-003    -125.36201477050781     
   2.1000000000000185E-003    -130.06463623046875     
   3.2000000000000084E-003    -133.38883972167969     
   4.3000000000000121E-003    -135.20046997070312     
   5.4000000000000159E-003    -135.52449035644531     
   6.5000000000000058E-003    -134.31610107421875     
   7.6000000000000234E-003    -131.30709838867188     
   8.7000000000000133E-003    -126.10182189941406     
   9.8000000000000032E-003    -118.40887451171875     
   1.0900000000000021E-002    -108.20436859130859     
   1.2000000000000011E-002    -95.611427307128906     
   1.3100000000000001E-002    -80.682685852050781     
   1.4200000000000018E-002    -63.285533905029297     
   1.5300000000000008E-002    -43.225593566894531     
   1.6400000000000026E-002    -20.483078002929688     
   1.7500000000000016E-002     4.7115254402160645     
   1.8600000000000005E-002     31.974159240722656     
   1.9700000000000023E-002     61.027309417724609     
   2.0800000000000013E-002     91.748252868652344     
   2.1900000000000003E-002     123.99352264404297     
   2.3000000000000020E-002     157.43156433105469     
   2.4100000000000010E-002     191.51464843750000     
   2.5200000000000000E-002     225.60862731933594     
   2.6300000000000018E-002     259.22207641601562     
   2.7400000000000008E-002     291.98623657226562     
   2.8500000000000025E-002     323.47921752929688     
   2.9600000000000015E-002     353.14062500000000     
   3.0700000000000005E-002     380.22711181640625     
   3.1800000000000023E-002     404.09960937500000     
   3.2900000000000013E-002     424.31655883789062     
   3.4000000000000002E-002     440.56793212890625     
   3.5100000000000020E-002     452.48550415039062     
   3.6200000000000010E-002     459.58132934570312     
   3.7300000000000028E-002     461.35351562500000     
   3.8400000000000017E-002     457.48504638671875     
   3.9500000000000007E-002     447.94815063476562     
   4.0600000000000025E-002     432.85565185546875     
   4.1700000000000015E-002     412.24359130859375     
   4.2800000000000005E-002     386.04254150390625     
   4.3900000000000022E-002     354.23745727539062     
   4.5000000000000012E-002     317.11776733398438     
   4.6100000000000002E-002     275.27557373046875     
   4.7200000000000020E-002     229.39321899414062     
   4.8300000000000010E-002     180.02107238769531     
   4.9400000000000027E-002     127.55583190917969     
   5.0500000000000017E-002     72.479751586914062     
   5.1600000000000007E-002     15.561361312866211     
   5.2700000000000025E-002    -42.171371459960938     
   5.3800000000000014E-002    -99.716842651367188     
   5.4900000000000004E-002    -156.32579040527344     
   5.6000000000000022E-002    -211.46070861816406     
   5.7100000000000012E-002    -264.55065917968750     
   5.8200000000000002E-002    -314.79165649414062     
   5.9300000000000019E-002    -361.21768188476562     
   6.0400000000000009E-002    -403.01696777343750     
   6.1500000000000027E-002    -439.72622680664062     
   6.2600000000000017E-002    -471.18127441406250     
   6.3700000000000007E-002    -497.17196655273438     
   6.4800000000000024E-002    -517.26873779296875     
   6.5900000000000014E-002    -531.02215576171875     
   6.7000000000000004E-002    -538.21148681640625     
   6.8100000000000022E-002    -539.03045654296875     
   6.9200000000000012E-002    -533.89300537109375     
   7.0300000000000029E-002    -523.12823486328125     
   7.1400000000000019E-002    -506.87365722656250     
   7.2500000000000009E-002    -485.22241210937500     
   7.3600000000000027E-002    -458.58666992187500     
   7.4700000000000016E-002    -427.69940185546875     
   7.5800000000000006E-002    -393.40008544921875     
   7.6900000000000024E-002    -356.32379150390625     
   7.8000000000000014E-002    -316.85696411132812     
   7.9100000000000004E-002    -275.39630126953125     
   8.0200000000000021E-002    -232.57739257812500     
   8.1300000000000011E-002    -189.28613281250000     
   8.2400000000000029E-002    -146.37373352050781     
   8.3500000000000019E-002    -104.36075592041016     
   8.4600000000000009E-002    -63.499843597412109     
   8.5700000000000026E-002    -24.053092956542969     
   8.6800000000000016E-002     13.477391242980957     
   8.7900000000000006E-002     48.442424774169922     
   8.9000000000000024E-002     80.325859069824219     
   9.0100000000000013E-002     108.99405670166016     
   9.1200000000000003E-002     134.57870483398438     
   9.2300000000000021E-002     157.15843200683594     
   9.3400000000000011E-002     176.55445861816406     
   9.4500000000000028E-002     192.44833374023438     
   9.5600000000000018E-002     204.73057556152344     
   9.6700000000000008E-002     213.66900634765625     
   9.7800000000000026E-002     219.72462463378906     
   9.8900000000000016E-002     223.20977783203125     
  0.10000000000000001          224.13511657714844     
  0.10110000000000002          222.40841674804688     
  0.10220000000000001          218.17233276367188     
  0.10330000000000003          211.91064453125000     
  0.10440000000000002          204.20510864257812     
  0.10550000000000001          195.38757324218750     
  0.10660000000000003          185.45492553710938     
  0.10770000000000002          174.34149169921875     
  0.10880000000000001          162.24887084960938     
  0.10990000000000003          149.68978881835938     
  0.11100000000000002          137.17729187011719     
  0.11210000000000001          124.88703155517578     
  0.11320000000000002          112.67102813720703     
  0.11430000000000001          100.38380432128906     
  0.11540000000000003          88.191329956054688     
  0.11650000000000002          76.538269042968750     
  0.11760000000000001          65.793426513671875     
  0.11870000000000003          55.953845977783203     
  0.11980000000000002          46.701347351074219     
  0.12090000000000001          37.802803039550781     
  0.12200000000000003          29.386625289916992     
  0.12310000000000001          21.841859817504883     
  0.12420000000000003          15.412094116210938     
  0.12530000000000002          9.9433279037475586     
  0.12640000000000001          5.0355324745178223     
  0.12750000000000003         0.43349254131317139     
  0.12860000000000002         -3.7369070053100586     
  0.12970000000000001         -7.1360840797424316     
  0.13080000000000003         -9.6143169403076172     
  0.13190000000000002         -11.410646438598633     
  0.13300000000000001         -12.946409225463867     
  0.13410000000000000         -14.434190750122070     
  0.13520000000000004         -15.703831672668457     
  0.13630000000000003         -16.439109802246094     
  0.13740000000000002         -16.560634613037109     
  0.13850000000000001         -16.347349166870117     
  0.13960000000000000         -16.185768127441406     
  0.14070000000000005         -16.190460205078125     
  0.14180000000000004         -16.124082565307617     
  0.14290000000000003         -15.691198348999023     
  0.14400000000000002         -14.888423919677734     
  0.14510000000000001         -14.038144111633301     
  0.14620000000000000         -13.465159416198730     
  0.14730000000000004         -13.167428016662598     
  0.14840000000000003         -12.828285217285156     
  0.14950000000000002         -12.168961524963379     
  0.15060000000000001         -11.265694618225098     
  0.15170000000000000         -10.479778289794922     
  0.15280000000000005         -10.080581665039062     
  0.15390000000000004         -9.9496250152587891     
  0.15500000000000003         -9.6970500946044922     
  0.15610000000000002         -9.0698175430297852     
  0.15720000000000001         -8.2274589538574219     
  0.15830000000000000         -7.5823926925659180     
  0.15940000000000004         -7.3690519332885742     
  0.16050000000000003         -7.3909859657287598     
  0.16160000000000002         -7.2148027420043945     
  0.16270000000000001         -6.6187725067138672     
  0.16380000000000000         -5.8284559249877930     
  0.16490000000000005         -5.2887601852416992     
  0.16600000000000004         -5.2037816047668457     
  0.16710000000000003         -5.3215212821960449     
  0.16820000000000002         -5.1909160614013672     
  0.16930000000000001         -4.6236863136291504     
  0.17040000000000000         -3.8878953456878662     
  0.17150000000000004         -3.4302699565887451     
  0.17260000000000003         -3.4197008609771729     
  0.17370000000000002         -3.5795171260833740     
  0.17480000000000001         -3.4811494350433350     
  0.17590000000000000         -2.9872722625732422     
  0.17700000000000005         -2.3884408473968506     
  0.17810000000000004         -2.0933701992034912     
  0.17920000000000003         -2.2057261466979980     
  0.18030000000000002         -2.4229667186737061     
  0.18140000000000001         -2.3563280105590820     
  0.18250000000000000         -1.9315960407257080     
  0.18360000000000004         -1.4524493217468262     
  0.18470000000000003         -1.2708227634429932     
  0.18580000000000002         -1.4161831140518188     
  0.18690000000000001         -1.5742856264114380     
  0.18800000000000000         -1.4276007413864136     
  0.18910000000000005        -0.99300771951675415     
  0.19020000000000004        -0.59892374277114868     
  0.19130000000000003        -0.53211587667465210     
  0.19240000000000002        -0.73295938968658447     
  0.19350000000000001        -0.86175036430358887     
  0.19460000000000005        -0.66342210769653320     
  0.19570000000000004        -0.24037635326385498     
  0.19680000000000003          5.7392120361328125E-002
  0.19790000000000002          5.0474531017243862E-003
  0.19900000000000001        -0.25782844424247742     
  0.20010000000000000        -0.37542471289634705     
  0.20120000000000005        -0.15772289037704468     
  0.20230000000000004         0.21120066940784454     
  0.20340000000000003         0.36067855358123779     
  0.20450000000000002         0.12186468392610550     
  0.20560000000000000        -0.29130226373672485     
  0.20670000000000005        -0.50115627050399780     
  0.20780000000000004        -0.35757958889007568     
  0.20890000000000003         -9.1649174690246582E-002
