 -0.12000000000000000          0.0000000000000000     
 -0.11889999999999999          0.0000000000000000     
 -0.11780000000000000          0.0000000000000000     
 -0.11670000000000000          0.0000000000000000     
 -0.11559999999999999          0.0000000000000000     
 -0.11449999999999999          0.0000000000000000     
 -0.11340000000000000          0.0000000000000000     
 -0.11230000000000000          0.0000000000000000     
 -0.11119999999999999         -8.4212461259577553E-019
 -0.11009999999999999          6.3159346720164989E-018
 -0.10900000000000000          1.3473993801532408E-017
 -0.10790000000000000         -1.1452895268969945E-016
 -0.10679999999999999         -2.6947987603064817E-017
 -0.10569999999999999          2.4253189669938948E-016
 -0.10460000000000000          4.8506379339877895E-016
 -0.10349999999999999         -6.4675168923866580E-016
 -0.10239999999999999          0.0000000000000000     
 -0.10130000000000000          3.4493424131922966E-015
 -0.10020000000000000         -1.7246712065961483E-015
  -9.9099999999999994E-002    -1.7246712065961483E-015
  -9.7999999999999990E-002    -1.3797369652769186E-014
  -9.6899999999999986E-002    -1.0348027027818653E-014
  -9.5799999999999996E-002    -1.2072698763810393E-014
  -9.4699999999999993E-002     5.5189478611076745E-014
  -9.3599999999999989E-002     1.5177106533342810E-013
  -9.2499999999999999E-002     8.2784216222549223E-014
  -9.1399999999999995E-002    -9.6581590110483145E-014
  -9.0299999999999991E-002    -3.0354213066685620E-013
  -8.9200000000000002E-002    -7.7265272088386516E-013
  -8.8099999999999984E-002    -1.6556843244509845E-013
  -8.6999999999999994E-002     4.9670532444034965E-013
  -8.5899999999999990E-002     1.6280895902276438E-012
  -8.4799999999999986E-002     1.6556843786610931E-012
  -8.3699999999999997E-002     8.8303165777722792E-013
  -8.2599999999999993E-002    -1.1037895857740621E-012
  -8.1499999999999989E-002    -4.4151583430962482E-012
  -8.0399999999999999E-002    -4.6359162168829737E-012
  -7.9299999999999995E-002    -1.3245474595607876E-012
  -7.8199999999999992E-002     4.4151582888861396E-013
  -7.7100000000000002E-002     6.3467898471503137E-012
  -7.5999999999999984E-002     8.3888009386190454E-012
  -7.4899999999999994E-002     1.3245475029288745E-011
  -7.3799999999999991E-002     7.0642532622178233E-012
  -7.2699999999999987E-002    -3.3113687573221862E-012
  -7.1599999999999997E-002    -2.2075790848119503E-011
  -7.0499999999999993E-002    -3.7087329735063790E-011
  -6.9399999999999989E-002    -4.4151581696239006E-011
  -6.8300000000000000E-002    -1.9426696362678797E-011
  -6.7199999999999996E-002     3.3555203754476182E-011
  -6.6099999999999992E-002     9.5367422292547133E-011
  -6.5000000000000002E-002     1.2009231109555429E-010
  -6.3899999999999985E-002     9.1835289373065621E-011
  -6.2799999999999995E-002    -8.8303166861924964E-012
  -6.1699999999999991E-002    -1.5894570382091189E-010
  -6.0599999999999994E-002    -2.6844163003580945E-010
  -5.9499999999999990E-002    -2.7197374907750316E-010
  -5.8399999999999994E-002    -1.7660632678495602E-010
  -5.7299999999999990E-002     1.0596380023430996E-010
  -5.6199999999999986E-002     4.6270859366259742E-010
  -5.5099999999999996E-002     7.6293937834037706E-010
  -5.3999999999999992E-002     7.6293937834037706E-010
  -5.2899999999999989E-002     2.1192760046861991E-010
  -5.1799999999999985E-002    -7.3468231498452496E-010
  -5.0699999999999995E-002    -1.7519348194383610E-009
  -4.9599999999999991E-002    -1.8932198031507141E-009
  -4.8499999999999988E-002    -8.3358187019655361E-010
  -4.7399999999999998E-002     1.1550054246356467E-009
  -4.6299999999999994E-002     3.0800144656950579E-009
  -4.5199999999999990E-002     3.5957048449830609E-009
  -4.4099999999999986E-002     1.9921193583627428E-009
  -4.2999999999999997E-002    -1.3581027413778202E-009
  -4.1899999999999993E-002    -4.9732342688457720E-009
  -4.0799999999999989E-002    -6.3013136930578639E-009
  -3.9699999999999985E-002    -3.7299257016343290E-009
  -3.8599999999999995E-002     2.2393682463928144E-009
  -3.7499999999999992E-002     8.1380200356306887E-009
  -3.6399999999999988E-002     9.4378425075092309E-009
  -3.5299999999999984E-002     3.8429539550577374E-009
  -3.4199999999999994E-002    -5.7361737582084515E-009
  -3.3099999999999991E-002    -1.2122258752356174E-008
  -3.1999999999999987E-002    -9.4166496822367662E-009
  -3.0899999999999997E-002     1.4764289790747398E-009
  -2.9799999999999993E-002     1.2164644402901104E-008
  -2.8699999999999989E-002     1.3337309923144858E-008
  -2.7599999999999986E-002     2.3170749763323784E-009
  -2.6499999999999996E-002    -1.2263543958113132E-008
  -2.5399999999999992E-002    -1.8536599810659027E-008
  -2.4299999999999988E-002    -9.3601357775696670E-009
  -2.3199999999999985E-002     6.6121410569053296E-009
  -2.2099999999999995E-002     1.4919702806537316E-008
  -2.0999999999999991E-002     8.8161877798142996E-009
  -1.9899999999999987E-002     2.8257012285592964E-009
  -1.8799999999999983E-002     1.0059496347025743E-008
  -1.7699999999999994E-002     3.6225490163133145E-008
  -1.6599999999999990E-002     3.9672844565075138E-008
  -1.5499999999999986E-002    -1.1924459641932117E-008
  -1.4399999999999996E-002    -1.0240341197231828E-007
  -1.3299999999999992E-002    -1.6581215334099397E-007
  -1.2199999999999989E-002    -1.0579425691048527E-007
  -1.1099999999999985E-002     7.1885843055952137E-008
  -9.9999999999999950E-003     2.6674621267375187E-007
  -8.8999999999999913E-003     3.1376586662190675E-007
  -7.7999999999999875E-003     1.2930409809541743E-007
  -6.6999999999999837E-003    -2.0345049733805354E-007
  -5.5999999999999939E-003    -4.7290936322497146E-007
  -4.4999999999999901E-003    -5.0094030257241684E-007
  -3.3999999999999864E-003    -1.5733505165371753E-007
  -2.2999999999999826E-003     3.7615734527207678E-007
  -1.1999999999999927E-003     9.5305256309075048E-007
  -9.9999999999988987E-005     1.1357058156136191E-006
   1.0000000000000148E-003     4.5934601189401292E-007
   2.1000000000000185E-003    -8.8252301111424458E-007
   3.2000000000000084E-003    -1.9892936506948899E-006
   4.3000000000000121E-003    -1.8590853869682178E-006
   5.4000000000000159E-003    -7.8848370321793482E-007
   6.5000000000000058E-003     1.2586804132297402E-006
   7.6000000000000234E-003     2.9224534046079498E-006
   8.7000000000000133E-003     2.7922449135076022E-006
   9.8000000000000032E-003     1.5914349660306470E-006
   1.0900000000000021E-002    -1.1574072544817682E-007
   1.2000000000000011E-002    -2.8356478196656099E-006
   1.3100000000000001E-002    -4.4560179048858117E-006
   1.4200000000000018E-002    -3.5300920444569783E-006
   1.5300000000000008E-002    -1.2152776207585703E-006
   1.6400000000000026E-002     2.6620366497809300E-006
   1.7500000000000016E-002     3.7037032143416582E-006
   1.8600000000000005E-002     3.1828699320612941E-006
   1.9700000000000023E-002     0.0000000000000000     
   2.0800000000000013E-002    -4.6296290179270727E-007
   2.1900000000000003E-002    -2.0833331291214563E-006
   2.3000000000000020E-002     1.3888886769564124E-006
   2.4100000000000010E-002     2.4305552415171405E-006
   2.5200000000000000E-002    -2.7777773539128248E-006
   2.6300000000000018E-002    -5.0925918912980705E-006
   2.7400000000000008E-002    -6.0185175243532285E-006
   2.8500000000000025E-002     4.1666662582429126E-006
   2.9600000000000015E-002     9.7222209660685621E-006
   3.0700000000000005E-002     1.2962961591256317E-005
   3.1800000000000023E-002     1.2037035048706457E-005
   3.2900000000000013E-002    -4.1666662582429126E-006
   3.4000000000000002E-002    -1.3888887224311475E-005
   3.5100000000000020E-002    -2.3611108190380037E-005
   3.6200000000000010E-002    -2.7314810722600669E-005
   3.7300000000000028E-002    -2.3148144464357756E-005
   3.8400000000000017E-002    -9.2592581495409831E-006
   3.9500000000000007E-002     4.0740735130384564E-005
   4.0600000000000025E-002     8.5185172792989761E-005
   4.1700000000000015E-002     8.2407394074834883E-005
   4.2800000000000005E-002    -2.6851848815567791E-005
   4.3900000000000022E-002    -1.1574072414077818E-004
   4.5000000000000012E-002    -1.1111109779449180E-004
   4.6100000000000002E-002    -4.2592586396494880E-005
   4.7200000000000020E-002     3.7037032143416582E-006
   4.8300000000000010E-002     6.4814805227797478E-005
   4.9400000000000027E-002     6.4814805227797478E-005
   5.0500000000000017E-002     8.5185172792989761E-005
   5.1600000000000007E-002     2.2222218831302598E-005
   5.2700000000000025E-002    -5.9259251429466531E-005
   5.3800000000000014E-002    -7.4074065196327865E-005
   5.4900000000000004E-002    -1.1111109415651299E-005
   5.6000000000000022E-002     9.6296280389651656E-005
   5.7100000000000012E-002     5.9259251429466531E-005
   5.8200000000000002E-002    -4.8148140194825828E-005
   5.9300000000000019E-002     1.8518516299081966E-005
   6.0400000000000009E-002    -2.9629625714733265E-005
   6.1500000000000027E-002    -1.8518516299081966E-005
   6.2600000000000017E-002     9.6296280389651656E-005
   6.3700000000000007E-002     1.2222220539115369E-004
   6.4800000000000024E-002     0.0000000000000000     
   6.5900000000000014E-002    -1.9259256077930331E-004
   6.7000000000000004E-002    -2.3333329590968788E-004
   6.8100000000000022E-002    -1.3703701552003622E-004
   6.9200000000000012E-002     1.8518516299081966E-005
   7.0300000000000029E-002     2.5185183039866388E-004
   7.1400000000000019E-002     3.5185180604457855E-004
   7.2500000000000009E-002     3.2962957629933953E-004
   7.3600000000000027E-002    -8.5185172792989761E-005
   7.4700000000000016E-002    -3.4444438642822206E-004
   7.5800000000000006E-002    -6.2962953234091401E-004
   7.6900000000000024E-002    -3.2962957629933953E-004
   7.8000000000000014E-002    -2.2592589084524661E-004
   7.9100000000000004E-002     1.3703701552003622E-004
   8.0200000000000021E-002     3.9259254117496312E-004
   8.1300000000000011E-002     4.4074069592170417E-004
   8.2400000000000029E-002     4.6666659181937575E-004
   8.3500000000000019E-002     2.4814810603857040E-004
   8.4600000000000009E-002    -1.3518516789190471E-004
   8.5700000000000026E-002    -3.9259254117496312E-004
   8.6800000000000016E-002    -4.5925920130684972E-004
   8.7900000000000006E-002    -1.0462961654411629E-004
   8.9000000000000024E-002     2.3796292953193188E-004
   9.0100000000000013E-002     4.4050920405425131E-004
   9.1200000000000003E-002     9.3518508947454393E-005
   9.2300000000000021E-002    -3.9814808405935764E-004
   9.3400000000000011E-002    -5.2777770906686783E-004
   9.4500000000000028E-002    -5.1851846365025267E-005
   9.5600000000000018E-002     6.4074067631736398E-004
   9.6700000000000008E-002     9.5185171812772751E-004
   9.7800000000000026E-002     4.8148143105208874E-004
   9.8900000000000016E-002    -5.4814806208014488E-004
  0.10000000000000001         -9.9259242415428162E-004
  0.10110000000000002         -8.9629617286846042E-004
  0.10220000000000001         -1.3333332026377320E-004
  0.10330000000000003          2.9629626078531146E-004
  0.10440000000000002          7.4074062285944819E-004
  0.10550000000000001          9.0370356338098645E-004
  0.10660000000000003          4.1481477092020214E-004
  0.10770000000000002          7.4074065196327865E-005
  0.10880000000000001         -7.1111100260168314E-004
  0.10990000000000003         -1.3777775457128882E-003
  0.11100000000000002         -1.7185183241963387E-003
  0.11210000000000001         -9.6296286210417747E-004
  0.11320000000000002          7.7037024311721325E-004
  0.11430000000000001          2.9333329293876886E-003
  0.11540000000000003          2.3407405242323875E-003
  0.11650000000000002          7.9999992158263922E-004
  0.11760000000000001         -5.9259251429466531E-005
  0.11870000000000003         -1.6592590836808085E-003
  0.11980000000000002         -1.6888886457309127E-003
  0.12090000000000001         -1.3629627646878362E-003
  0.12200000000000003         -1.1851850285893306E-004
  0.12310000000000001          9.7777764312922955E-004
  0.12420000000000003          3.5555550130084157E-004
  0.12530000000000002         -4.7407401143573225E-004
  0.12640000000000001         -3.8518512155860662E-004
  0.12750000000000003         -6.5185176208615303E-004
  0.12860000000000002          1.2740739621222019E-003
  0.12970000000000001          1.7185183241963387E-003
  0.13080000000000003          7.7037024311721325E-004
  0.13190000000000002         -6.8148138234391809E-004
  0.13300000000000001         -1.7185183241963387E-003
  0.13410000000000000         -1.7777775647118688E-003
  0.13520000000000004         -4.1481477092020214E-004
  0.13630000000000003         -1.7777775065042078E-004
  0.13740000000000002          1.5111109241843224E-003
  0.13850000000000001          1.1703702621161938E-003
  0.13960000000000000          1.6296294052153826E-003
  0.14070000000000005          1.2148146051913500E-003
  0.14180000000000004          1.4814813039265573E-004
  0.14290000000000003         -3.2592588104307652E-004
  0.14400000000000002         -2.1777774672955275E-003
  0.14510000000000001         -1.4629628276452422E-003
  0.14620000000000000         -1.8518516299081966E-005
  0.14730000000000004          2.2444440983235836E-003
  0.14840000000000003         -4.8888882156461477E-004
  0.14950000000000002         -2.9333329293876886E-003
  0.15060000000000001         -3.5851846914738417E-003
  0.15170000000000000          6.8148138234391809E-004
  0.15280000000000005          5.5407402105629444E-003
  0.15390000000000004          5.6296288967132568E-003
  0.15500000000000003          1.5111109241843224E-003
  0.15610000000000002         -3.4962957724928856E-003
  0.15720000000000001         -5.6888880208134651E-003
  0.15830000000000000         -3.1999996863305569E-003
  0.15940000000000004          9.4814802287146449E-004
  0.16050000000000003          3.6148142535239458E-003
  0.16160000000000002          1.3629627646878362E-003
  0.16270000000000001         -1.6592590836808085E-003
  0.16380000000000000         -1.7185183241963387E-003
  0.16490000000000005          2.3703700571786612E-004
  0.16600000000000004          3.2592588104307652E-003
  0.16710000000000003          4.2666662484407425E-003
  0.16820000000000002         -5.9259251429466531E-005
  0.16930000000000001         -4.8592584207653999E-003
  0.17040000000000000         -5.0962958484888077E-003
  0.17150000000000004         -1.1259258026257157E-003
  0.17260000000000003          3.2592588104307652E-003
  0.17370000000000002          3.6148142535239458E-003
  0.17480000000000001          5.9259251429466531E-005
  0.17590000000000000         -2.6074070483446121E-003
  0.17700000000000005         -4.7407401143573225E-004
  0.17810000000000004          2.9629624914377928E-003
  0.17920000000000003          6.8444437347352505E-003
  0.18030000000000002         -9.1851840261369944E-004
  0.18140000000000001         -7.3777767829596996E-003
  0.18250000000000000         -1.0399998165667057E-002
  0.18360000000000004         -3.2296292483806610E-003
  0.18470000000000003          7.8222211450338364E-003
  0.18580000000000002          1.2194442562758923E-002
  0.18690000000000001          6.1925919726490974E-003
  0.18800000000000000         -4.7777770087122917E-003
  0.18910000000000005         -9.5851840451359749E-003
  0.19020000000000004         -3.3481477294117212E-003
  0.19130000000000003          8.7703689932823181E-003
  0.19240000000000002          8.4740733727812767E-003
  0.19350000000000001         -2.0148146431893110E-003
  0.19460000000000005         -1.2888886965811253E-002
  0.19570000000000004         -1.3155553489923477E-002
  0.19680000000000003          5.9259251429466531E-005
  0.19790000000000002          1.4044442214071751E-002
  0.19900000000000001          1.5525924041867256E-002
  0.20010000000000000          1.8666663672775030E-003
  0.20120000000000005         -1.3392590917646885E-002
  0.20230000000000004         -1.6266664490103722E-002
  0.20340000000000003         -1.5407404862344265E-003
  0.20450000000000002          1.4874071814119816E-002
  0.20560000000000000          1.7303701490163803E-002
  0.20670000000000005          2.1037033293396235E-003
  0.20780000000000004         -1.6059257090091705E-002
  0.20890000000000003         -1.9703701138496399E-002
