 -0.12000000000000000          0.0000000000000000     
 -0.11889999999999999          0.0000000000000000     
 -0.11780000000000000          1.2198248100503406E-007
 -0.11670000000000000          4.1510742221362307E-007
 -0.11559999999999999          2.7996449603051587E-007
 -0.11449999999999999         -1.1773339565479546E-006
 -0.11340000000000000         -3.5096463761874475E-006
 -0.11230000000000000         -4.1408252400287893E-006
 -0.11119999999999999         -6.4803225541254506E-007
 -0.11009999999999999          5.4666243158862926E-006
 -0.10900000000000000          8.4625189629150555E-006
 -0.10790000000000000          3.8461053009086754E-006
 -0.10679999999999999         -5.2941391004424077E-006
 -0.10569999999999999         -9.3745111371390522E-006
 -0.10460000000000000         -2.2927993086341303E-006
 -0.10349999999999999          9.4616116257384419E-006
 -0.10239999999999999          1.0521429430809803E-005
 -0.10130000000000000         -7.3002188401005697E-006
 -0.10020000000000000         -3.2537041988689452E-005
  -9.9099999999999994E-002    -4.1121755202766508E-005
  -9.7999999999999990E-002    -1.9649411115096882E-005
  -9.6899999999999986E-002     1.8153481505578384E-005
  -9.5799999999999996E-002     4.1551626054570079E-005
  -9.4699999999999993E-002     3.2540570828132331E-005
  -9.3599999999999989E-002     4.9089912863564678E-006
  -9.2499999999999999E-002    -9.9162725746282376E-006
  -9.1399999999999995E-002     1.9462104319245555E-006
  -9.0299999999999991E-002     1.8479284335626289E-005
  -8.9200000000000002E-002     3.8276666600722820E-006
  -8.8099999999999984E-002    -4.9079779273597524E-005
  -8.6999999999999994E-002    -1.0190882312599570E-004
  -8.5899999999999990E-002    -1.0386887879576534E-004
  -8.4799999999999986E-002    -4.4599986722460017E-005
  -8.3699999999999997E-002     2.9486935090972111E-005
  -8.2599999999999993E-002     5.8492376410868019E-005
  -8.1499999999999989E-002     3.1395604310091585E-005
  -8.0399999999999999E-002     9.4027382147032768E-007
  -7.9299999999999995E-002     2.9610380806843750E-005
  -7.8199999999999992E-002     1.1933445057366043E-004
  -7.7100000000000002E-002     2.0133845100644976E-004
  -7.5999999999999984E-002     2.0426430273801088E-004
  -7.4899999999999994E-002     1.3419805327430367E-004
  -7.3799999999999991E-002     8.0140991485677660E-005
  -7.2699999999999987E-002     1.3117113849148154E-004
  -7.1599999999999997E-002     2.8620829107239842E-004
  -7.0499999999999993E-002     4.5249733375385404E-004
  -6.9399999999999989E-002     5.4117699619382620E-004
  -6.8300000000000000E-002     5.6439987383782864E-004
  -6.7199999999999996E-002     6.2986352713778615E-004
  -6.6099999999999992E-002     8.3197129424661398E-004
  -6.5000000000000002E-002     1.1505746515467763E-003
  -6.3899999999999985E-002     1.4680222375318408E-003
  -6.2799999999999995E-002     1.6952194273471832E-003
  -6.1699999999999991E-002     1.8787691369652748E-003
  -6.0599999999999994E-002     2.1721480879932642E-003
  -5.9499999999999990E-002     2.6914905756711960E-003
  -5.8399999999999994E-002     3.4016410354524851E-003
  -5.7299999999999990E-002     4.1557876393198967E-003
  -5.6199999999999986E-002     4.8566516488790512E-003
  -5.5099999999999996E-002     5.5764196440577507E-003
  -5.3999999999999992E-002     6.5067308023571968E-003
  -5.2899999999999989E-002     7.7819791622459888E-003
  -5.1799999999999985E-002     9.3542849645018578E-003
  -5.0699999999999995E-002     1.1052524670958519E-002
  -4.9599999999999991E-002     1.2771161273121834E-002
  -4.8499999999999988E-002     1.4597523957490921E-002
  -4.7399999999999998E-002     1.6744159162044525E-002
  -4.6299999999999994E-002     1.9351808354258537E-002
  -4.5199999999999990E-002     2.2364322096109390E-002
  -4.4099999999999986E-002     2.5605997070670128E-002
  -4.2999999999999997E-002     2.8983151540160179E-002
  -4.1899999999999993E-002     3.2600216567516327E-002
  -4.0799999999999989E-002     3.6665730178356171E-002
  -3.9699999999999985E-002     4.1280701756477356E-002
  -3.8599999999999995E-002     4.6326693147420883E-002
  -3.7499999999999992E-002     5.1570728421211243E-002
  -3.6399999999999988E-002     5.6880574673414230E-002
  -3.5299999999999984E-002     6.2327865511178970E-002
  -3.4199999999999994E-002     6.8070404231548309E-002
  -3.3099999999999991E-002     7.4132561683654785E-002
  -3.1999999999999987E-002     8.0307438969612122E-002
  -3.0899999999999997E-002     8.6277820169925690E-002
  -2.9799999999999993E-002     9.1826029121875763E-002
  -2.8699999999999989E-002     9.6912056207656860E-002
  -2.7599999999999986E-002    0.10153862833976746     
  -2.6499999999999996E-002    0.10554438829421997     
  -2.5399999999999992E-002    0.10853991657495499     
  -2.4299999999999988E-002    0.11004962027072906     
  -2.3199999999999985E-002    0.10970553010702133     
  -2.2099999999999995E-002    0.10728830844163895     
  -2.0999999999999991E-002    0.10257551819086075     
  -1.9899999999999987E-002     9.5162048935890198E-002
  -1.8799999999999983E-002     8.4445834159851074E-002
  -1.7699999999999994E-002     6.9795005023479462E-002
  -1.6599999999999990E-002     5.0720069557428360E-002
  -1.5499999999999986E-002     2.6871096342802048E-002
  -1.4399999999999996E-002    -2.1296562626957893E-003
  -1.3299999999999992E-002    -3.6832775920629501E-002
  -1.2199999999999989E-002    -7.7919378876686096E-002
  -1.1099999999999985E-002   -0.12600758671760559     
  -9.9999999999999950E-003   -0.18150499463081360     
  -8.8999999999999913E-003   -0.24465186893939972     
  -7.7999999999999875E-003   -0.31569349765777588     
  -6.6999999999999837E-003   -0.39497816562652588     
  -5.5999999999999939E-003   -0.48285406827926636     
  -4.4999999999999901E-003   -0.57945531606674194     
  -3.3999999999999864E-003   -0.68459004163742065     
  -2.2999999999999826E-003   -0.79783576726913452     
  -1.1999999999999927E-003   -0.91872882843017578     
  -9.9999999999988987E-005    -1.0468301773071289     
   1.0000000000000148E-003    -1.1815766096115112     
   2.1000000000000185E-003    -1.3220604658126831     
   3.2000000000000084E-003    -1.4669587612152100     
   4.3000000000000121E-003    -1.6146823167800903     
   5.4000000000000159E-003    -1.7635825872421265     
   6.5000000000000058E-003    -1.9119964838027954     
   7.6000000000000234E-003    -2.0580892562866211     
   8.7000000000000133E-003    -2.1996636390686035     
   9.8000000000000032E-003    -2.3341448307037354     
   1.0900000000000021E-002    -2.4587831497192383     
   1.2000000000000011E-002    -2.5708823204040527     
   1.3100000000000001E-002    -2.6678428649902344     
   1.4200000000000018E-002    -2.7470214366912842     
   1.5300000000000008E-002    -2.8055994510650635     
   1.6400000000000026E-002    -2.8406388759613037     
   1.7500000000000016E-002    -2.8493161201477051     
   1.8600000000000005E-002    -2.8291440010070801     
   1.9700000000000023E-002    -2.7779939174652100     
   2.0800000000000013E-002    -2.6939661502838135     
   2.1900000000000003E-002    -2.5753066539764404     
   2.3000000000000020E-002    -2.4205210208892822     
   2.4100000000000010E-002    -2.2286031246185303     
   2.5200000000000000E-002    -1.9991874694824219     
   2.6300000000000018E-002    -1.7325299978256226     
   2.7400000000000008E-002    -1.4293632507324219     
   2.8500000000000025E-002    -1.0908526182174683     
   2.9600000000000015E-002   -0.71870863437652588     
   3.0700000000000005E-002   -0.31535616517066956     
   3.1800000000000023E-002    0.11602057516574860     
   3.2900000000000013E-002    0.57164329290390015     
   3.4000000000000002E-002     1.0473195314407349     
   3.5100000000000020E-002     1.5384908914566040     
   3.6200000000000010E-002     2.0401360988616943     
   3.7300000000000028E-002     2.5466690063476562     
   3.8400000000000017E-002     3.0520401000976562     
   3.9500000000000007E-002     3.5500218868255615     
   4.0600000000000025E-002     4.0344471931457520     
   4.1700000000000015E-002     4.4992399215698242     
   4.2800000000000005E-002     4.9383029937744141     
   4.3900000000000022E-002     5.3454799652099609     
   4.5000000000000012E-002     5.7147445678710938     
   4.6100000000000002E-002     6.0405530929565430     
   4.7200000000000020E-002     6.3180904388427734     
   4.8300000000000010E-002     6.5432415008544922     
   4.9400000000000027E-002     6.7124104499816895     
   5.0500000000000017E-002     6.8224592208862305     
   5.1600000000000007E-002     6.8709111213684082     
   5.2700000000000025E-002     6.8562779426574707     
   5.3800000000000014E-002     6.7782130241394043     
   5.4900000000000004E-002     6.6373629570007324     
   5.6000000000000022E-002     6.4350814819335938     
   5.7100000000000012E-002     6.1733002662658691     
   5.8200000000000002E-002     5.8546895980834961     
   5.9300000000000019E-002     5.4828948974609375     
   6.0400000000000009E-002     5.0625500679016113     
   6.1500000000000027E-002     4.5990080833435059     
   6.2600000000000017E-002     4.0979790687561035     
   6.3700000000000007E-002     3.5653815269470215     
   6.4800000000000024E-002     3.0074620246887207     
   6.5900000000000014E-002     2.4309294223785400     
   6.7000000000000004E-002     1.8428622484207153     
   6.8100000000000022E-002     1.2503679990768433     
   6.9200000000000012E-002    0.66024184226989746     
   7.0300000000000029E-002     7.8869372606277466E-002
   7.1400000000000019E-002   -0.48762437701225281     
   7.2500000000000009E-002    -1.0332591533660889     
   7.3600000000000027E-002    -1.5523397922515869     
   7.4700000000000016E-002    -2.0397946834564209     
   7.5800000000000006E-002    -2.4914150238037109     
   7.6900000000000024E-002    -2.9037859439849854     
   7.8000000000000014E-002    -3.2740497589111328     
   7.9100000000000004E-002    -3.5997858047485352     
   8.0200000000000021E-002    -3.8791482448577881     
   8.1300000000000011E-002    -4.1111488342285156     
   8.2400000000000029E-002    -4.2957553863525391     
   8.3500000000000019E-002    -4.4336686134338379     
   8.4600000000000009E-002    -4.5260086059570312     
   8.5700000000000026E-002    -4.5741720199584961     
   8.6800000000000016E-002    -4.5799794197082520     
   8.7900000000000006E-002    -4.5459084510803223     
   8.9000000000000024E-002    -4.4750871658325195     
   9.0100000000000013E-002    -4.3709831237792969     
   9.1200000000000003E-002    -4.2370419502258301     
   9.2300000000000021E-002    -4.0765862464904785     
   9.3400000000000011E-002    -3.8930199146270752     
   9.4500000000000028E-002    -3.6900436878204346     
   9.5600000000000018E-002    -3.4715914726257324     
   9.6700000000000008E-002    -3.2414903640747070     
   9.7800000000000026E-002    -3.0031437873840332     
   9.8900000000000016E-002    -2.7595298290252686     
  0.10000000000000001         -2.5134704113006592     
  0.10110000000000002         -2.2678520679473877     
  0.10220000000000001         -2.0255336761474609     
  0.10330000000000003         -1.7890090942382812     
  0.10440000000000002         -1.5601665973663330     
  0.10550000000000001         -1.3403924703598022     
  0.10660000000000003         -1.1309106349945068     
  0.10770000000000002        -0.93300396203994751     
  0.10880000000000001        -0.74787729978561401     
  0.10990000000000003        -0.57632368803024292     
  0.11100000000000002        -0.41855949163436890     
  0.11210000000000001        -0.27442249655723572     
  0.11320000000000002        -0.14375063776969910     
  0.11430000000000001         -2.6559032499790192E-002
  0.11540000000000003          7.7153071761131287E-002
  0.11650000000000002         0.16773861646652222     
  0.11760000000000001         0.24600675702095032     
  0.11870000000000003         0.31296476721763611     
  0.11980000000000002         0.36943358182907104     
  0.12090000000000001         0.41592279076576233     
  0.12200000000000003         0.45288389921188354     
  0.12310000000000001         0.48105859756469727     
  0.12420000000000003         0.50154209136962891     
  0.12530000000000002         0.51548367738723755     
  0.12640000000000001         0.52372384071350098     
  0.12750000000000003         0.52673494815826416     
  0.12860000000000002         0.52491855621337891     
  0.12970000000000001         0.51893562078475952     
  0.13080000000000003         0.50972026586532593     
  0.13190000000000002         0.49815666675567627     
  0.13300000000000001         0.48476159572601318     
  0.13410000000000000         0.46970120072364807     
  0.13520000000000004         0.45312127470970154     
  0.13630000000000003         0.43544036149978638     
  0.13740000000000002         0.41729480028152466     
  0.13850000000000001         0.39920473098754883     
  0.13960000000000000         0.38131853938102722     
  0.14070000000000005         0.36350980401039124     
  0.14180000000000004         0.34572640061378479     
  0.14290000000000003         0.32821744680404663     
  0.14400000000000002         0.31139683723449707     
  0.14510000000000001         0.29549568891525269     
  0.14620000000000000         0.28038001060485840     
  0.14730000000000004         0.26573571562767029     
  0.14840000000000003         0.25143086910247803     
  0.14950000000000002         0.23767066001892090     
  0.15060000000000001         0.22477595508098602     
  0.15170000000000000         0.21282160282135010     
  0.15280000000000005         0.20152580738067627     
  0.15390000000000004         0.19051845371723175     
  0.15500000000000003         0.17971177399158478     
  0.15610000000000002         0.16938011348247528     
  0.15720000000000001         0.15985636413097382     
  0.15830000000000000         0.15115834772586823     
  0.15940000000000004         0.14294078946113586     
  0.16050000000000003         0.13483092188835144     
  0.16160000000000002         0.12680144608020782     
  0.16270000000000001         0.11918942630290985     
  0.16380000000000000         0.11233554035425186     
  0.16490000000000005         0.10621474683284760     
  0.16600000000000004         0.10044363886117935     
  0.16710000000000003          9.4660639762878418E-002
  0.16820000000000002          8.8886834681034088E-002
  0.16930000000000001          8.3494231104850769E-002
  0.17040000000000000          7.8812748193740845E-002
  0.17150000000000004          7.4782550334930420E-002
  0.17260000000000003          7.1008376777172089E-002
  0.17370000000000002          6.7155793309211731E-002
  0.17480000000000001          6.3276283442974091E-002
  0.17590000000000000          5.9727154672145844E-002
  0.17700000000000005          5.6777119636535645E-002
  0.17810000000000004          5.4310370236635208E-002
  0.17920000000000003          5.1935195922851562E-002
  0.18030000000000002          4.9377217888832092E-002
  0.18140000000000001          4.6745028346776962E-002
  0.18250000000000000          4.4396545737981796E-002
  0.18360000000000004          4.2552683502435684E-002
  0.18470000000000003          4.1066396981477737E-002
  0.18580000000000002          3.9584070444107056E-002
  0.18690000000000001          3.7921182811260223E-002
  0.18800000000000000          3.6252431571483612E-002
  0.18910000000000005          3.4917995333671570E-002
  0.19020000000000004          3.4055501222610474E-002
  0.19130000000000003          3.3449374139308929E-002
  0.19240000000000002          3.2756056636571884E-002
  0.19350000000000001          3.1863886862993240E-002
  0.19460000000000005          3.1005740165710449E-002
  0.19570000000000004          3.0504828318953514E-002
  0.19680000000000003          3.0423115938901901E-002
  0.19790000000000002          3.0485121533274651E-002
  0.19900000000000001          3.0358441174030304E-002
  0.20010000000000000          2.9995245859026909E-002
  0.20120000000000005          2.9672149568796158E-002
  0.20230000000000004          2.9683260247111320E-002
  0.20340000000000003          3.0007416382431984E-002
  0.20450000000000002          3.0300859361886978E-002
  0.20560000000000000          3.0227437615394592E-002
  0.20670000000000005          2.9784562066197395E-002
  0.20780000000000004          2.9286388307809830E-002
  0.20890000000000003          2.9021022841334343E-002
