 -0.12000000000000000          0.0000000000000000
 -0.11889999999999999          0.0000000000000000
 -0.11780000000000000          0.0000000000000000
 -0.11670000000000000          0.0000000000000000
 -0.11559999999999999         -8.5477461332524538E-018
 -0.11449999999999999          2.5643240881299199E-017
 -0.11340000000000000          1.4531169170991723E-016
 -0.11230000000000000          2.9917124287683083E-017
 -0.11119999999999999         -3.2481434479178712E-016
 -0.11009999999999999         -6.1116386465757239E-016
 -0.10900000000000000         -8.5478329872167719E-018
 -0.10790000000000000          1.3804609455127606E-015
 -0.10679999999999999          3.0429974149883592E-015
 -0.10569999999999999          2.3805471347426374E-015
 -0.10460000000000000          3.5045739376718421E-016
 -0.10349999999999999         -4.2097656063151342E-015
 -0.10239999999999999         -9.3854265993068703E-015
 -0.10130000000000000         -1.0800080041438800E-014
 -0.10020000000000000         -3.3592678707900902E-015
  -9.9099999999999994E-002     1.2424145439120411E-014
  -9.7999999999999990E-002     2.5198750760167289E-014
  -9.6899999999999986E-002     2.9767519422714897E-014
  -9.5799999999999996E-002     2.0659894219119020E-014
  -9.4699999999999993E-002    -4.3123472254582608E-015
  -9.3599999999999989E-002    -3.5986021969377710E-014
  -9.2499999999999999E-002    -4.4136301736866571E-014
  -9.1399999999999995E-002    -2.6027904535970946E-014
  -9.0299999999999991E-002     1.5603891876520004E-014
  -8.9200000000000002E-002     5.1765127693234950E-014
  -8.8099999999999984E-002     6.4813253505477397E-014
  -8.6999999999999994E-002     2.9994005868415330E-014
  -8.5899999999999990E-002    -2.6370210878747143E-015
  -8.4799999999999986E-002    -3.9644496181972383E-014
  -8.3699999999999997E-002    -6.1334414652204627E-014
  -8.2599999999999993E-002    -7.8647883290563353E-014
  -8.1499999999999989E-002    -1.8130204911155634E-013
  -8.0399999999999999E-002    -3.3209711564931299E-013
  -7.9299999999999995E-002    -4.6210404209753864E-013
  -7.8199999999999992E-002    -3.7875922558917863E-013
  -7.7100000000000002E-002    -1.0832135833921050E-013
  -7.5999999999999984E-002     3.5249190719066625E-013
  -7.4899999999999994E-002     8.7019898665358086E-013
  -7.3799999999999991E-002     9.8527306105489210E-013
  -7.2699999999999987E-002     3.5635128745395428E-013
  -7.1599999999999997E-002    -1.0275075061627614E-012
  -7.0499999999999993E-002    -2.4726366787408693E-012
  -6.9399999999999989E-002    -2.4341505373837169E-012
  -6.8300000000000000E-002    -6.9760316230224606E-013
  -6.7199999999999996E-002     1.3715539121106346E-012
  -6.6099999999999992E-002     2.0577541406940902E-012
  -6.5000000000000002E-002     3.9817921095725017E-013
  -6.3899999999999985E-002    -1.9441210794002295E-012
  -6.2799999999999995E-002    -3.1660511885800435E-012
  -6.1699999999999991E-002    -2.1822526424797317E-012
  -6.0599999999999994E-002    -1.3735119812341434E-012
  -5.9499999999999990E-002     2.7550634299974841E-013
  -5.8399999999999994E-002     2.4146865063023881E-012
  -5.7299999999999990E-002     4.6238902463857645E-012
  -5.6199999999999986E-002     3.4719833345159268E-012
  -5.5099999999999996E-002     1.3397525276681588E-012
  -5.3999999999999992E-002    -1.0725709599992972E-012
  -5.2899999999999989E-002    -1.1041075822712521E-012
  -5.1799999999999985E-002    -1.8358756355418837E-012
  -5.0699999999999995E-002    -5.3685688707061363E-012
  -4.9599999999999991E-002    -1.0021631961787403E-011
  -4.8499999999999988E-002    -5.7117344708090823E-012
  -4.7399999999999998E-002     1.9044918420085821E-011
  -4.6299999999999994E-002     4.5482128480101025E-011
  -4.5199999999999990E-002     5.0072120061361858E-011
  -4.4099999999999986E-002     1.1527860263593759E-011
  -4.2999999999999997E-002    -5.6706209172752153E-011
  -4.1899999999999993E-002    -1.1933842802847039E-010
  -4.0799999999999989E-002    -1.3379472529884140E-010
  -3.9699999999999985E-002    -9.2232506354594790E-011
  -3.8599999999999995E-002    -2.6022146243365185E-011
  -3.7499999999999992E-002     1.6660435184223665E-011
  -3.6399999999999988E-002    -5.6384549806942630E-012
  -3.5299999999999984E-002    -5.0344749202846373E-011
  -3.4199999999999994E-002    -2.3347348360180931E-011
  -3.3099999999999991E-002     1.0448336640322964E-010
  -3.1999999999999987E-002     2.7488814002829542E-010
  -3.0899999999999997E-002     3.4445957197704047E-010
  -2.9799999999999993E-002     2.4149401922635150E-010
  -2.8699999999999989E-002     4.0840247850226774E-012
  -2.7599999999999986E-002    -2.6917781892343839E-010
  -2.6499999999999996E-002    -4.7073600573099839E-010
  -2.5399999999999992E-002    -4.7062748143034128E-010
  -2.4299999999999988E-002    -2.8677829555512346E-010
  -2.3199999999999985E-002    -6.2595775784934915E-011
  -2.2099999999999995E-002    -6.6968763867691905E-011
  -2.0999999999999991E-002    -2.7300839366972696E-010
  -1.9899999999999987E-002    -4.7456649721056010E-010
  -1.8799999999999983E-002    -5.9545796071702739E-010
  -1.7699999999999994E-002    -5.8190502416621825E-010
  -1.6599999999999990E-002    -6.1316690613821834E-010
  -1.5499999999999986E-002    -5.8168808658720650E-010
  -1.4399999999999996E-002    -4.6954257149067757E-010
  -1.3299999999999992E-002    -3.8428593640560393E-010
  -1.2199999999999989E-002    -3.4384411984333951E-010
  -1.1099999999999985E-002    -3.7510600181533960E-010
  -9.9999999999999950E-003    -3.1225677599167057E-010
  -8.8999999999999913E-003    -7.0148310771234179E-011
  -7.7999999999999875E-003    -2.4929905362292004E-010
  -6.6999999999999837E-003    -6.9285716053357760E-010
  -5.5999999999999939E-003    -1.0647115411543950E-009
  -4.4999999999999901E-003    -1.3066029369568355E-009
  -3.3999999999999864E-003    -1.1899758955991047E-009
  -2.2999999999999826E-003    -4.8627490922825700E-010
  -1.1999999999999927E-003     5.9387050832526711E-010
  -9.9999999999988987E-005     1.4678677162649478E-009
   1.0000000000000148E-003     2.1894945856359982E-009
   2.1000000000000185E-003     1.7369734539585124E-009
   3.2000000000000084E-003    -8.4873275074670573E-010
   4.3000000000000121E-003    -4.8864383650482068E-009
   5.4000000000000159E-003    -8.4401445832327227E-009
   6.5000000000000058E-003    -8.9464435859554214E-009
   7.6000000000000234E-003    -5.6165951889397547E-009
   8.7000000000000133E-003    -7.8096917821568468E-010
   9.8000000000000032E-003     3.1583609061414109E-009
   1.0900000000000021E-002     3.9427279219239608E-009
   1.2000000000000011E-002     3.0420581609291730E-009
   1.3100000000000001E-002     2.8942774843443431E-009
   1.4200000000000018E-002     4.2164223224006037E-009
   1.5300000000000008E-002     6.1839005027763960E-009
   1.6400000000000026E-002     4.4227870255042490E-009
   1.7500000000000016E-002    -2.2141779520978844E-009
   1.8600000000000005E-002    -9.2813650098833023E-009
   1.9700000000000023E-002    -1.0182033882699670E-008
   2.0800000000000013E-002    -3.1952964718584553E-009
   2.1900000000000003E-002     6.7312919682649408E-009
   2.3000000000000020E-002     1.3216101990565221E-008
   2.4100000000000010E-002     1.3319284342117044E-008
   2.5200000000000000E-002     6.8257275387395566E-009
   2.6300000000000018E-002    -5.9997795620603256E-010
   2.7400000000000008E-002    -4.2970911273698675E-009
   2.8500000000000025E-002    -5.4845750163678986E-009
   2.9600000000000015E-002    -6.0984297611810234E-009
   3.0700000000000005E-002    -7.7519874963627444E-009
   3.1800000000000023E-002    -9.7999164339057643E-009
   3.2900000000000013E-002    -9.6608818722643264E-009
   3.4000000000000002E-002    -5.0762181125207917E-009
   3.5100000000000020E-002     1.8746670882308081E-009
   3.6200000000000010E-002     7.9202928660038197E-009
   3.7300000000000028E-002     9.6099199708987726E-009
   3.8400000000000017E-002     8.2162880943315031E-009
   3.9500000000000007E-002     9.8521368840920331E-009
   4.0600000000000025E-002     1.5109021589410077E-008
   4.1700000000000015E-002     1.8322351635902123E-008
   4.2800000000000005E-002     1.4580423979282386E-008
   4.3900000000000022E-002     4.6719774715597850E-009
   4.5000000000000012E-002    -4.8062456237119022E-009
   4.6100000000000002E-002    -6.5404694993276280E-009
   4.7200000000000020E-002    -2.8969162624292721E-009
   4.8300000000000010E-002     1.4636737377671238E-009
   4.9400000000000027E-002     2.6693012245004866E-009
   5.0500000000000017E-002     1.2218921430218188E-009
   5.1600000000000007E-002     5.6322357888660690E-010
   5.2700000000000025E-002     1.4820362714829116E-009
   5.3800000000000014E-002     2.2574415670106873E-009
   5.4900000000000004E-002     3.0810654028101681E-010
   5.6000000000000022E-002    -2.9318951710877172E-009
   5.7100000000000012E-002    -5.0246380389751266E-009
   5.8200000000000002E-002    -3.9624183933995027E-009
   5.9300000000000019E-002    -2.0397545874573098E-009
   6.0400000000000009E-002    -1.6945718162020285E-009
   6.1500000000000027E-002    -5.2213886547747279E-009
   6.2600000000000017E-002    -1.0038871955941886E-008
   6.3700000000000007E-002    -1.3565688128380771E-008
   6.4800000000000024E-002    -9.9221360017054394E-009
   6.5900000000000014E-002    -2.1914736691996950E-009
   6.7000000000000004E-002     6.4713367997626392E-009
   6.8100000000000022E-002     1.1405557387433873E-008
   6.9200000000000012E-002     1.2933851323282397E-008
   7.0300000000000029E-002     1.1701553503939977E-008
   7.1400000000000019E-002     6.1670335504970808E-009
   7.2500000000000009E-002    -3.3828926326862074E-009
   7.3600000000000027E-002    -1.4187634178597364E-008
   7.4700000000000016E-002    -2.2099577279277582E-008
   7.5800000000000006E-002    -2.4727855318928960E-008
   7.6900000000000024E-002    -2.1709468001063215E-008
   7.8000000000000014E-002    -1.5966341138096141E-008
   7.9100000000000004E-002    -9.1118055323136105E-009
   8.0200000000000021E-002    -5.0052945121947801E-010
   8.1300000000000011E-002     9.1504501753547629E-009
   8.2400000000000029E-002     1.6972986571772708E-008
   8.3500000000000019E-002     2.1138633954365105E-008
   8.4600000000000009E-002     1.8599987328116185E-008
   8.5700000000000026E-002     6.8832659572137800E-009
   8.6800000000000016E-002    -8.7771576673389973E-009
   8.7900000000000006E-002    -2.1497729818520384E-008
   8.9000000000000024E-002    -2.3534452608942047E-008
   9.0100000000000013E-002    -1.3811771282234986E-008
   9.1200000000000003E-002     1.0018730289829136E-009
   9.2300000000000021E-002     1.0867963418093041E-008
   9.3400000000000011E-002     1.0767240432585368E-008
   9.4500000000000028E-002     4.2848897763292371E-009
   9.5600000000000018E-002    -9.0679541653315709E-010
   9.6700000000000008E-002     1.2152963080325208E-009
   9.7800000000000026E-002     8.2490911879062878E-009
   9.8900000000000016E-002     1.2593996956411502E-008
  0.10000000000000001          9.1231999732599434E-009
  0.10110000000000002          1.2426257800512985E-009
  0.10220000000000001         -2.9452085215098123E-009
  0.10330000000000003          2.8828939235836515E-010
  0.10440000000000002          5.8163056593230067E-009
  0.10550000000000001          5.5721747216352924E-009
  0.10660000000000003         -9.9980712597869115E-010
  0.10770000000000002         -6.2631970720872232E-009
  0.10880000000000001         -2.1692554419416865E-009
  0.10990000000000003          9.7224628348158149E-009
  0.11100000000000002          1.7240257221828870E-008
  0.11210000000000001          9.2252374628287725E-009
  0.11320000000000002         -1.1248300069155448E-008
  0.11430000000000001         -2.7769170074520844E-008
  0.11540000000000003         -2.5225823208074871E-008
  0.11650000000000002         -4.7565533733973098E-009
  0.11760000000000001          1.5665660768604539E-008
  0.11870000000000003          1.8349052055555148E-008
  0.11980000000000002          1.6444374750790303E-009
  0.12090000000000001         -1.7688565279172508E-008
  0.12200000000000003         -1.9882143931226892E-008
  0.12310000000000001         -2.8187985279259919E-009
  0.12420000000000003          1.7018582099126434E-008
  0.12530000000000002          2.1520335735658591E-008
  0.12640000000000001          7.9930915219961207E-009
  0.12750000000000003         -9.0162641797064680E-009
  0.12860000000000002         -1.3195139203503459E-008
  0.12970000000000001         -2.3341657495734580E-009
  0.13080000000000003          1.1197769822501868E-008
  0.13190000000000002          1.4139966530990478E-008
  0.13300000000000001          5.7081650517432081E-009
  0.13410000000000000         -3.1269706823877641E-009
  0.13520000000000004         -2.7257747170494895E-009
  0.13630000000000003          4.7158281724080098E-009
  0.13740000000000002          9.7284686972898271E-009
  0.13850000000000001          6.6206657933776114E-009
  0.13960000000000000          1.8681596269942702E-009
  0.14070000000000005          5.4780961988853960E-009
  0.14180000000000004          1.8127179757243539E-008
  0.14290000000000003          2.8432449283855021E-008
  0.14400000000000002          2.3724757269860675E-008
  0.14510000000000001          4.1564756081413634E-009
  0.14620000000000000         -1.5640361894497801E-008
  0.14730000000000004         -2.1011313577901092E-008
  0.14840000000000003         -1.1225897544875352E-008
  0.14950000000000002          1.5940598840913367E-010
  0.15060000000000001          2.5361801547774121E-010
  0.15170000000000000         -8.7540579229994364E-009
  0.15280000000000005         -1.1823772183561232E-008
  0.15390000000000004          1.9636039461090604E-009
  0.15500000000000003          2.4680330668047645E-008
  0.15610000000000002          3.5084187999245842E-008
  0.15720000000000001          1.9923438898672430E-008
  0.15830000000000000         -1.1117437637153671E-008
  0.15940000000000004         -3.2290092377706969E-008
  0.16050000000000003         -2.5860185104420452E-008
  0.16160000000000002          8.1481132951921609E-010
  0.16270000000000001          2.2911976316208893E-008
  0.16380000000000000          2.2721614811871405E-008
  0.16490000000000005          6.2578777715316392E-009
  0.16600000000000004         -4.4191477144295277E-009
  0.16710000000000003          4.5674442006315985E-009
  0.16820000000000002          2.3710192920134432E-008
  0.16930000000000001          3.0041508836120556E-008
  0.17040000000000000          1.1612645067771155E-008
  0.17150000000000004         -1.8287691361251746E-008
  0.17260000000000003         -3.3120727493951563E-008
  0.17370000000000002         -1.9257722527754595E-008
  0.17480000000000001          1.0400262873133670E-008
  0.17590000000000000          2.8884796776651456E-008
  0.17700000000000005          2.1463009147737466E-008
  0.17810000000000004         -9.5045216141897981E-010
  0.17920000000000003         -1.4598136033328046E-008
  0.18030000000000002         -7.7777784213139967E-009
  0.18140000000000001          8.5309945774270091E-009
  0.18250000000000000          1.4099338585538135E-008
  0.18360000000000004          2.4436719314735456E-009
  0.18470000000000003         -1.2059414800091872E-008
  0.18580000000000002         -1.0473985234682459E-008
  0.18690000000000001          9.0513720962803745E-009
  0.18800000000000000          2.7445157257943720E-008
  0.18910000000000005          2.4168178569539123E-008
  0.19020000000000004         -6.8460703772643683E-010
  0.19130000000000003         -2.4987290458966527E-008
  0.19240000000000002         -2.6536657316000856E-008
  0.19350000000000001         -5.6761013667028237E-009
  0.19460000000000005          1.4963182692895316E-008
  0.19570000000000004          1.3865883552455216E-008
  0.19680000000000003         -6.9838232974461789E-009
  0.19790000000000002         -2.4079170657387294E-008
  0.19900000000000001         -1.6910941980086136E-008
  0.20010000000000000          1.0058989197148094E-008
  0.20120000000000005          3.0907781223277198E-008
  0.20230000000000004          2.4338032034165735E-008
  0.20340000000000003         -4.5304471285589898E-009
  0.20450000000000002         -2.8629509429833888E-008
  0.20560000000000000         -2.5592648000838381E-008
  0.20670000000000005          4.0059955352944598E-010
  0.20780000000000004          2.3478925470499235E-008
  0.20890000000000003          2.2324481818714048E-008
