 -0.12000000000000000          0.0000000000000000     
 -0.11889999999999999          0.0000000000000000     
 -0.11780000000000000          0.0000000000000000     
 -0.11670000000000000          0.0000000000000000     
 -0.11559999999999999          0.0000000000000000     
 -0.11449999999999999          0.0000000000000000     
 -0.11340000000000000          0.0000000000000000     
 -0.11230000000000000          0.0000000000000000     
 -0.11119999999999999          0.0000000000000000     
 -0.11009999999999999          0.0000000000000000     
 -0.10900000000000000         -7.1920969377197092E-024
 -0.10790000000000000          3.0896346353599758E-023
 -0.10679999999999999          3.0447304638242612E-022
 -0.10569999999999999         -1.6334400028108699E-022
 -0.10460000000000000         -5.2030896453742869E-021
 -0.10349999999999999         -7.3172501999604531E-021
 -0.10239999999999999          4.7128683254868375E-020
 -0.10130000000000000          1.8328413396417686E-019
 -0.10020000000000000          7.1033060737547213E-021
  -9.9099999999999994E-002    -1.4362231510230119E-018
  -9.7999999999999990E-002    -3.4465752012213698E-018
  -9.6899999999999986E-002     1.1057451609612589E-018
  -9.5799999999999996E-002     2.2603790535891475E-017
  -9.4699999999999993E-002     4.5204550282018557E-017
  -9.3599999999999989E-002    -1.2280326682684699E-017
  -9.2499999999999999E-002    -2.3877707905354997E-016
  -9.1399999999999995E-002    -4.6309435278540337E-016
  -9.0299999999999991E-002     8.3137607261989663E-018
  -8.9200000000000002E-002     1.8604409530412376E-015
  -8.8099999999999984E-002     3.8577082202501459E-015
  -8.6999999999999994E-002     1.2147189382290778E-015
  -8.5899999999999990E-002    -1.0976101958207717E-014
  -8.4799999999999986E-002    -2.6335914514712816E-014
  -8.3699999999999997E-002    -1.7382027485109489E-014
  -8.2599999999999993E-002     4.7717526544671651E-014
  -8.1499999999999989E-002     1.4674443301124218E-013
  -8.0399999999999999E-002     1.4740482055450310E-013
  -7.9299999999999995E-002    -1.3091929612889935E-013
  -7.8199999999999992E-002    -6.5900263761589639E-013
  -7.7100000000000002E-002    -9.0773346955383416E-013
  -7.5999999999999984E-002     4.9132394921413947E-016
  -7.4899999999999994E-002     2.3112471138342361E-012
  -7.3799999999999991E-002     4.3164369648018841E-012
  -7.2699999999999987E-002     2.4085770270604323E-012
  -7.1599999999999997E-002    -5.7709162969155070E-012
  -7.0499999999999993E-002    -1.6115376394454373E-011
  -6.9399999999999989E-002    -1.6224546012244545E-011
  -6.8300000000000000E-002     6.3475548602032195E-012
  -6.7199999999999996E-002     4.6434567996245235E-011
  -6.6099999999999992E-002     6.9124816981513959E-011
  -6.5000000000000002E-002     2.5821372817702581E-011
  -6.3899999999999985E-002    -9.5043431458385896E-011
  -6.2799999999999995E-002    -2.1680333917029060E-010
  -6.1699999999999991E-002    -1.8944244783991593E-010
  -6.0599999999999994E-002     8.9187657259515163E-011
  -5.9499999999999990E-002     5.0668835793743483E-010
  -5.8399999999999994E-002     6.9250388756714187E-010
  -5.7299999999999990E-002     2.4897281458713394E-010
  -5.6199999999999986E-002    -8.0805373503523015E-010
  -5.5099999999999996E-002    -1.7630188420270088E-009
  -5.3999999999999992E-002    -1.5108790885065559E-009
  -5.2899999999999989E-002     4.8357584603309078E-010
  -5.1799999999999985E-002     3.2343221434416591E-009
  -5.0699999999999995E-002     4.3566097396308123E-009
  -4.9599999999999991E-002     1.7783086114775415E-009
  -4.8499999999999988E-002    -3.9045295885387077E-009
  -4.7399999999999998E-002    -8.6168094881600155E-009
  -4.6299999999999994E-002    -7.2389871874634082E-009
  -4.5199999999999990E-002     1.6333531194234752E-009
  -4.4099999999999986E-002     1.2504020929782200E-008
  -4.2999999999999997E-002     1.5503585970577660E-008
  -4.1899999999999993E-002     4.6385912888524672E-009
  -4.0799999999999989E-002    -1.4351519972422011E-008
  -3.9699999999999985E-002    -2.5047967255886761E-008
  -3.8599999999999995E-002    -1.3173723445447649E-008
  -3.7499999999999992E-002     1.7275988639653406E-008
  -3.6399999999999988E-002     4.0384396271520018E-008
  -3.5299999999999984E-002     2.6623181881291202E-008
  -3.4199999999999994E-002    -2.6627134275258868E-008
  -3.3099999999999991E-002    -7.9409304021282878E-008
  -3.1999999999999987E-002    -7.1695943404392892E-008
  -3.0899999999999997E-002     2.2398845445081861E-008
  -2.9799999999999993E-002     1.5085582560914190E-007
  -2.8699999999999989E-002     1.9978054410785262E-007
  -2.7599999999999986E-002     7.8611215315049776E-008
  -2.6499999999999996E-002    -1.8117191302735591E-007
  -2.5399999999999992E-002    -4.0424035319119866E-007
  -2.4299999999999988E-002    -3.7624957371917844E-007
  -2.3199999999999985E-002    -2.2459859749801581E-008
  -2.2099999999999995E-002     4.7904825350997271E-007
  -2.0999999999999991E-002     7.7183921121104504E-007
  -1.9899999999999987E-002     5.7062715086431126E-007
  -1.8799999999999983E-002    -8.7110834101622459E-008
  -1.7699999999999994E-002    -8.0462217511012568E-007
  -1.6599999999999990E-002    -1.0805965757754166E-006
  -1.5499999999999986E-002    -6.9069432129253983E-007
  -1.4399999999999996E-002     1.1068124905477816E-007
  -1.3299999999999992E-002     7.6821373795610270E-007
  -1.2199999999999989E-002     8.7521493696840480E-007
  -1.1099999999999985E-002     5.2260520533309318E-007
  -9.9999999999999950E-003     2.0812353795918170E-007
  -8.8999999999999913E-003     3.2550252626606380E-007
  -7.7999999999999875E-003     6.6694042288872879E-007
  -6.6999999999999837E-003     4.6056484848122636E-007
  -5.5999999999999939E-003    -9.3056104333300027E-007
  -4.4999999999999901E-003    -3.1418423986906419E-006
  -3.3999999999999864E-003    -4.5875244722992647E-006
  -2.2999999999999826E-003    -3.3521685054438422E-006
  -1.1999999999999927E-003     1.2152231647633016E-006
  -9.9999999999988987E-005     7.3629744292702526E-006
   1.0000000000000148E-003     1.1363978956069332E-005
   2.1000000000000185E-003     9.6324311016360298E-006
   3.2000000000000084E-003     1.3463723007589579E-006
   4.3000000000000121E-003    -1.0253583241137676E-005
   5.4000000000000159E-003    -1.9086573956883512E-005
   6.5000000000000058E-003    -1.9550312572391704E-005
   7.6000000000000234E-003    -9.9860335467383265E-006
   8.7000000000000133E-003     5.9608746596495621E-006
   9.8000000000000032E-003     2.1079711586935446E-005
   1.0900000000000021E-002     2.8413456675480120E-005
   1.2000000000000011E-002     2.4765397029113956E-005
   1.3100000000000001E-002     1.1781317880377173E-005
   1.4200000000000018E-002    -5.7383549574296921E-006
   1.5300000000000008E-002    -2.2678475943394005E-005
   1.6400000000000026E-002    -3.5331438994035125E-005
   1.7500000000000016E-002    -4.0956922020995989E-005
   1.8600000000000005E-002    -3.6325618566479534E-005
   1.9700000000000023E-002    -1.7718612070893869E-005
   2.0800000000000013E-002     1.6055390005931258E-005
   2.1900000000000003E-002     5.8906894992105663E-005
   2.3000000000000020E-002     9.4961040304042399E-005
   2.4100000000000010E-002     1.0237717651762068E-004
   2.5200000000000000E-002     6.4097795984707773E-005
   2.6300000000000018E-002    -1.9167209757142700E-005
   2.7400000000000008E-002    -1.2191050336696208E-004
   2.8500000000000025E-002    -1.9949959823861718E-004
   2.9600000000000015E-002    -2.0680380112025887E-004
   3.0700000000000005E-002    -1.2190927373012528E-004
   3.1800000000000023E-002     3.7510744732571766E-005
   3.2900000000000013E-002     2.1528388606384397E-004
   3.4000000000000002E-002     3.3697622711770236E-004
   3.5100000000000020E-002     3.4112276625819504E-004
   3.6200000000000010E-002     2.0752969430759549E-004
   3.7300000000000028E-002    -3.0069448257563636E-005
   3.8400000000000017E-002    -2.9271023231558502E-004
   3.9500000000000007E-002    -4.8314317245967686E-004
   4.0600000000000025E-002    -5.2119191968813539E-004
   4.1700000000000015E-002    -3.7493021227419376E-004
   4.2800000000000005E-002    -7.6331460149958730E-005
   4.3900000000000022E-002     2.8538249898701906E-004
   4.5000000000000012E-002     5.9214187785983086E-004
   4.6100000000000002E-002     7.3796941433101892E-004
   4.7200000000000020E-002     6.6661107121035457E-004
   4.8300000000000010E-002     3.8976414361968637E-004
   4.9400000000000027E-002    -2.1677284166798927E-005
   5.0500000000000017E-002    -4.6677418868057430E-004
   5.1600000000000007E-002    -8.4623578004539013E-004
   5.2700000000000025E-002    -1.0791402310132980E-003
   5.3800000000000014E-002    -1.1009234003722668E-003
   5.4900000000000004E-002    -8.5728446720167994E-004
   5.6000000000000022E-002    -3.1655142083764076E-004
   5.7100000000000012E-002     4.8979348503053188E-004
   5.8200000000000002E-002     1.4177066041156650E-003
   5.9300000000000019E-002     2.1964902989566326E-003
   6.0400000000000009E-002     2.4914685636758804E-003
   6.1500000000000027E-002     2.0453536417335272E-003
   6.2600000000000017E-002     8.4123463602736592E-004
   6.3700000000000007E-002    -8.1034487811848521E-004
   6.4800000000000024E-002    -2.3434699978679419E-003
   6.5900000000000014E-002    -3.1754772644490004E-003
   6.7000000000000004E-002    -3.0161798931658268E-003
   6.8100000000000022E-002    -2.0834892056882381E-003
   6.9200000000000012E-002    -1.0810281382873654E-003
   7.0300000000000029E-002    -9.0740574523806572E-004
   7.1400000000000019E-002    -2.2202176041901112E-003
   7.2500000000000009E-002    -5.0814920105040073E-003
   7.3600000000000027E-002    -8.8922819122672081E-003
   7.4700000000000016E-002    -1.2678092345595360E-002
   7.5800000000000006E-002    -1.5590333379805088E-002
   7.6900000000000024E-002    -1.7357142642140388E-002
   7.8000000000000014E-002    -1.8435634672641754E-002
   7.9100000000000004E-002    -1.9787076860666275E-002
   8.0200000000000021E-002    -2.2414909675717354E-002
   8.1300000000000011E-002    -2.6943877339363098E-002
   8.2400000000000029E-002    -3.3487699925899506E-002
   8.3500000000000019E-002    -4.1865393519401550E-002
   8.4600000000000009E-002    -5.2003707736730576E-002
   8.5700000000000026E-002    -6.4247906208038330E-002
   8.6800000000000016E-002    -7.9363234341144562E-002
   8.7900000000000006E-002    -9.8221719264984131E-002
   8.9000000000000024E-002   -0.12137687206268311     
   9.0100000000000013E-002   -0.14883686602115631     
   9.1200000000000003E-002   -0.18021881580352783     
   9.2300000000000021E-002   -0.21525019407272339     
   9.3400000000000011E-002   -0.25435316562652588     
   9.4500000000000028E-002   -0.29897052049636841     
   9.5600000000000018E-002   -0.35142040252685547     
   9.6700000000000008E-002   -0.41435837745666504     
   9.7800000000000026E-002   -0.49006432294845581     
   9.8900000000000016E-002   -0.57999956607818604     
  0.10000000000000001        -0.68478608131408691     
  0.10110000000000002        -0.80463516712188721     
  0.10220000000000001        -0.94001334905624390     
  0.10330000000000003         -1.0921468734741211     
  0.10440000000000002         -1.2631099224090576     
  0.10550000000000001         -1.4556074142456055     
  0.10660000000000003         -1.6725161075592041     
  0.10770000000000002         -1.9164474010467529     
  0.10880000000000001         -2.1895062923431396     
  0.10990000000000003         -2.4934649467468262     
  0.11100000000000002         -2.8298113346099854     
  0.11210000000000001         -3.1997253894805908     
  0.11320000000000002         -3.6043784618377686     
  0.11430000000000001         -4.0443615913391113     
  0.11540000000000003         -4.5199136734008789     
  0.11650000000000002         -5.0308766365051270     
  0.11760000000000001         -5.5766572952270508     
  0.11870000000000003         -6.1564564704895020     
  0.11980000000000002         -6.7689957618713379     
  0.12090000000000001         -7.4120011329650879     
  0.12200000000000003         -8.0816688537597656     
  0.12310000000000001         -8.7724695205688477     
  0.12420000000000003         -9.4766931533813477     
  0.12530000000000002         -10.184994697570801     
  0.12640000000000001         -10.887103080749512     
  0.12750000000000003         -11.572444915771484     
  0.12860000000000002         -12.230111122131348     
  0.12970000000000001         -12.848781585693359     
  0.13080000000000003         -13.415260314941406     
  0.13190000000000002         -13.914921760559082     
  0.13300000000000001         -14.329227447509766     
  0.13410000000000000         -14.638535499572754     
  0.13520000000000004         -14.821355819702148     
  0.13630000000000003         -14.856590270996094     
  0.13740000000000002         -14.723690032958984     
  0.13850000000000001         -14.404358863830566     
  0.13960000000000000         -13.879570960998535     
  0.14070000000000005         -13.133676528930664     
  0.14180000000000004         -12.149040222167969     
  0.14290000000000003         -10.910486221313477     
  0.14400000000000002         -9.4028015136718750     
  0.14510000000000001         -7.6142611503601074     
  0.14620000000000000         -5.5375366210937500     
  0.14730000000000004         -3.1687994003295898     
  0.14840000000000003        -0.51111108064651489     
  0.14950000000000002          2.4307718276977539     
  0.15060000000000001          5.6424050331115723     
  0.15170000000000000          9.1047477722167969     
  0.15280000000000005          12.794997215270996     
  0.15390000000000004          16.684175491333008     
  0.15500000000000003          20.740106582641602     
  0.15610000000000002          24.921592712402344     
  0.15720000000000001          29.186428070068359     
  0.15830000000000000          33.482925415039062     
  0.15940000000000004          37.755100250244141     
  0.16050000000000003          41.937488555908203     
  0.16160000000000002          45.964542388916016     
  0.16270000000000001          49.766563415527344     
  0.16380000000000000          53.278587341308594     
  0.16490000000000005          56.435581207275391     
  0.16600000000000004          59.175006866455078     
  0.16710000000000003          61.436107635498047     
  0.16820000000000002          63.160549163818359     
  0.16930000000000001          64.290802001953125     
  0.17040000000000000          64.773849487304688     
  0.17150000000000004          64.563781738281250     
  0.17260000000000003          63.627914428710938     
  0.17370000000000002          61.944290161132812     
  0.17480000000000001          59.504165649414062     
  0.17590000000000000          56.312965393066406     
  0.17700000000000005          52.383041381835938     
  0.17810000000000004          47.741275787353516     
  0.17920000000000003          42.420436859130859     
  0.18030000000000002          36.466361999511719     
  0.18140000000000001          29.936008453369141     
  0.18250000000000000          22.898597717285156     
  0.18360000000000004          15.434037208557129     
  0.18470000000000003          7.6346092224121094     
  0.18580000000000002        -0.40339133143424988     
  0.18690000000000001         -8.5752429962158203     
  0.18800000000000000         -16.773992538452148     
  0.18910000000000005         -24.893207550048828     
  0.19020000000000004         -32.824096679687500     
  0.19130000000000003         -40.461826324462891     
  0.19240000000000002         -47.702667236328125     
  0.19350000000000001         -54.455295562744141     
  0.19460000000000005         -60.627269744873047     
  0.19570000000000004         -66.142921447753906     
  0.19680000000000003         -70.928787231445312     
  0.19790000000000002         -74.926033020019531     
  0.19900000000000001         -78.086288452148438     
  0.20010000000000000         -80.374534606933594     
  0.20120000000000005         -81.771148681640625     
  0.20230000000000004         -82.271644592285156     
  0.20340000000000003         -81.887306213378906     
  0.20450000000000002         -80.642066955566406     
  0.20560000000000000         -78.576187133789062     
  0.20670000000000005         -75.732398986816406     
  0.20780000000000004         -72.169181823730469     
  0.20890000000000003         -67.947303771972656     
