 -0.12000000000000000          0.0000000000000000
 -0.11889999999999999          0.0000000000000000
 -0.11780000000000000          0.0000000000000000
 -0.11670000000000000          0.0000000000000000
 -0.11559999999999999         -8.5477461332524538E-018
 -0.11449999999999999          4.2738731493442882E-017
 -0.11340000000000000          2.5643244190021649E-017
 -0.11230000000000000         -5.9834215488141664E-017
 -0.11119999999999999         -2.1369365415849196E-016
 -0.11009999999999999          1.4531169170991723E-016
 -0.10900000000000000          3.6755305974161775E-016
 -0.10790000000000000         -1.4616647236166094E-015
 -0.10679999999999999         -4.3849938532124731E-015
 -0.10569999999999999         -4.5730444848653476E-015
 -0.10460000000000000          1.6240713269122416E-016
 -0.10349999999999999          7.7357105028835575E-015
 -0.10239999999999999          1.2573734845737310E-014
 -0.10130000000000000          1.1394146598995604E-014
 -0.10020000000000000          5.2910552560115048E-015
  -9.9099999999999994E-002    -6.8296486765680522E-015
  -9.7999999999999990E-002    -2.0591520025550758E-014
  -9.6899999999999986E-002    -3.4900444215385865E-014
  -9.5799999999999996E-002    -4.3191758356724355E-014
  -9.4699999999999993E-002    -2.8506731209517605E-014
  -9.3599999999999989E-002     2.5899709487535796E-015
  -9.2499999999999999E-002     4.1345453536539845E-014
  -9.1399999999999995E-002     9.5418491901158586E-014
  -9.0299999999999991E-002     1.1995051761755360E-013
  -8.9200000000000002E-002     8.8682858799538078E-014
  -8.8099999999999984E-002    -3.1207827798753265E-014
  -8.6999999999999994E-002    -1.9240121648667063E-013
  -8.5899999999999990E-002    -2.9560669233610892E-013
  -8.4799999999999986E-002    -2.4126013686842640E-013
  -8.3699999999999997E-002    -1.4043935014484282E-014
  -8.2599999999999993E-002     2.9632470522483745E-013
  -8.1499999999999989E-002     4.5789424769210330E-013
  -8.0399999999999999E-002     3.0873605538425664E-013
  -7.9299999999999995E-002     5.4543182307926347E-014
  -7.8199999999999992E-002    -1.0336786222982230E-013
  -7.7100000000000002E-002    -2.4950812358044694E-014
  -7.5999999999999984E-002    -7.8040093105195135E-015
  -7.4899999999999994E-002    -2.1823238745624640E-013
  -7.3799999999999991E-002    -5.3369548363990660E-013
  -7.2699999999999987E-002    -5.6906606163420470E-013
  -7.1599999999999997E-002     3.7588730955953609E-013
  -7.0499999999999993E-002     1.9860604046767483E-012
  -6.9399999999999989E-002     2.6159098758665733E-012
  -6.8300000000000000E-002     8.2996077458569184E-013
  -6.7199999999999996E-002    -3.1617169819753155E-012
  -6.6099999999999992E-002    -6.7332558799371167E-012
  -6.5000000000000002E-002    -7.0837303037252219E-012
  -6.3899999999999985E-002    -3.7229785226911005E-012
  -6.2799999999999995E-002     2.9288604961458242E-012
  -6.1699999999999991E-002     9.6507229291331598E-012
  -6.0599999999999994E-002     1.1611012498691231E-011
  -5.9499999999999990E-002     6.4289415804830163E-012
  -5.8399999999999994E-002    -3.7947956409156713E-012
  -5.7299999999999990E-002    -1.3738440940436192E-011
  -5.6199999999999986E-002    -1.5559400989850758E-011
  -5.5099999999999996E-002    -8.9775843009620715E-012
  -5.3999999999999992E-002     2.0857133294777119E-012
  -5.2899999999999989E-002     6.9869761018526155E-012
  -5.1799999999999985E-002    -9.9601923930769942E-013
  -5.0699999999999995E-002    -1.1219755159663780E-011
  -4.9599999999999991E-002    -5.1981231818931661E-012
  -4.8499999999999988E-002     1.9869803719041457E-011
  -4.7399999999999998E-002     5.5021060624271811E-011
  -4.6299999999999994E-002     8.2329726369678724E-011
  -4.5199999999999990E-002     7.7147656318832247E-011
  -4.4099999999999986E-002     2.6030412200728215E-011
  -4.2999999999999997E-002    -5.6457200026116539E-011
  -4.1899999999999993E-002    -1.3782444630017210E-010
  -4.0799999999999989E-002    -1.7213613867639310E-010
  -3.9699999999999985E-002    -1.2578119101824825E-010
  -3.8599999999999995E-002     3.4811598048634096E-012
  -3.7499999999999992E-002     1.5739165526440502E-010
  -3.6399999999999988E-002     2.3511698143963145E-010
  -3.5299999999999984E-002     1.7167567367692982E-010
  -3.4199999999999994E-002    -1.0524893456764772E-011
  -3.3099999999999991E-002    -2.0616990059618701E-010
  -3.1999999999999987E-002    -3.6372230227676994E-010
  -3.0899999999999997E-002    -4.2940437317007252E-010
  -2.9799999999999993E-002    -3.1582719772771384E-010
  -2.8699999999999989E-002    -2.7472267516426285E-011
  -2.7599999999999986E-002     3.2810490435686290E-010
  -2.6499999999999996E-002     5.8957100312895250E-010
  -2.5399999999999992E-002     5.0596310474659845E-010
  -2.4299999999999988E-002     5.5774967977484380E-012
  -2.3199999999999985E-002    -6.6958583122556092E-010
  -2.2099999999999995E-002    -1.0982676990067830E-009
  -2.0999999999999991E-002    -1.1236163111050246E-009
  -1.9899999999999987E-002    -8.3974271980480353E-010
  -1.8799999999999983E-002    -5.5138760224338057E-010
  -1.7699999999999994E-002    -3.7955100173903134E-010
  -1.6599999999999990E-002    -5.5344055727157837E-011
  -1.5499999999999986E-002     2.6438140565687718E-010
  -1.4399999999999996E-002     2.1214394130275593E-010
  -1.3299999999999992E-002    -3.0168600950730706E-010
  -1.2199999999999989E-002    -1.0888863144487004E-009
  -1.1099999999999985E-002    -1.8581608474121936E-009
  -9.9999999999999950E-003    -1.9865833422727519E-009
  -8.8999999999999913E-003    -1.3352283723122582E-009
  -7.7999999999999875E-003    -3.3879937744174526E-010
  -6.6999999999999837E-003     5.9937033114465521E-010
  -5.5999999999999939E-003     1.1431697810593278E-009
  -4.4999999999999901E-003     1.2152934214526567E-009
  -3.3999999999999864E-003     1.0017225937630769E-009
  -2.2999999999999826E-003     7.0076294766963088E-010
  -1.1999999999999927E-003    -2.9930771749953067E-010
  -9.9999999999988987E-005    -1.7251189365907749E-009
   1.0000000000000148E-003    -2.5504121037300820E-009
   2.1000000000000185E-003    -2.2911867958441690E-009
   3.2000000000000084E-003    -7.5922096387515126E-010
   4.3000000000000121E-003     2.1171893127558405E-009
   5.4000000000000159E-003     4.6530073127826199E-009
   6.5000000000000058E-003     4.6612695925318803E-009
   7.6000000000000234E-003     2.1778288061824469E-009
   8.7000000000000133E-003    -1.3094636486243871E-009
   9.8000000000000032E-003    -3.2909786007451203E-009
   1.0900000000000021E-002    -3.0138274098590045E-009
   1.2000000000000011E-002    -1.6969725624704779E-009
   1.3100000000000001E-002    -2.1599208532840919E-011
   1.4200000000000018E-002     9.3673724332887787E-010
   1.5300000000000008E-002     3.5344421833727324E-010
   1.6400000000000026E-002     9.2817808994283268E-011
   1.7500000000000016E-002     4.7752468645967383E-010
   1.8600000000000005E-002     2.3680089000777116E-009
   1.9700000000000023E-002     4.2584931136957493E-009
   2.0800000000000013E-002     4.2129775223997967E-009
   2.1900000000000003E-002     1.3710180768455871E-009
   2.3000000000000020E-002    -3.4786449276680287E-009
   2.4100000000000010E-002    -6.3206044842445408E-009
   2.5200000000000000E-002    -5.9358984394464187E-009
   2.6300000000000018E-002    -1.8943038249119581E-009
   2.7400000000000008E-002     1.4302542483690672E-009
   2.8500000000000025E-002     7.7525741382089564E-010
   2.9600000000000015E-002    -2.2818129608026538E-009
   3.0700000000000005E-002    -4.0123651068313393E-009
   3.1800000000000023E-002    -2.6955104814874176E-009
   3.2900000000000013E-002     1.3460846881585553E-009
   3.4000000000000002E-002     3.3261988718891189E-009
   3.5100000000000020E-002     7.5312844849406702E-010
   3.6200000000000010E-002    -4.8942379038408035E-009
   3.7300000000000028E-002    -8.7176417196133116E-009
   3.8400000000000017E-002    -8.8886382698660782E-009
   3.9500000000000007E-002    -7.9840791755714235E-009
   4.0600000000000025E-002    -9.0155198861907593E-009
   4.1700000000000015E-002    -1.0799849903264658E-008
   4.2800000000000005E-002    -9.3216616647850969E-009
   4.3900000000000022E-002    -1.9996222455631596E-009
   4.5000000000000012E-002     8.8358982353042848E-009
   4.6100000000000002E-002     1.6946680503338030E-008
   4.7200000000000020E-002     1.4086796618073549E-008
   4.8300000000000010E-002    -1.7514567574039575E-009
   4.9400000000000027E-002    -1.9167190501434561E-008
   5.0500000000000017E-002    -2.5827370464526211E-008
   5.1600000000000007E-002    -1.9724293309764107E-008
   5.2700000000000025E-002    -6.1640319515277042E-009
   5.3800000000000014E-002     5.3885274020615270E-009
   5.4900000000000004E-002     8.4800504396298493E-009
   5.6000000000000022E-002     7.2693526753653259E-009
   5.7100000000000012E-002     5.3416178147358551E-009
   5.8200000000000002E-002     3.9875125423805002E-009
   5.9300000000000019E-002     2.4899999839789189E-009
   6.0400000000000009E-002     5.6226523437175047E-010
   6.1500000000000027E-002    -2.8991420375490407E-010
   6.2600000000000017E-002     1.2241281321934139E-009
   6.3700000000000007E-002     4.8175774480796463E-009
   6.4800000000000024E-002     6.1165090770032293E-009
   6.5900000000000014E-002     4.2604781924637791E-009
   6.7000000000000004E-002    -5.8414770798265181E-009
   6.8100000000000022E-002    -1.7736025981207604E-008
   6.9200000000000012E-002    -2.5113241264307362E-008
   7.0300000000000029E-002    -2.0731052430278396E-008
   7.1400000000000019E-002    -8.4614564244134272E-009
   7.2500000000000009E-002     2.5174720086340585E-009
   7.3600000000000027E-002     5.8061790930707957E-009
   7.4700000000000016E-002    -3.7000047470314712E-010
   7.5800000000000006E-002    -7.1175696447767223E-009
   7.6900000000000024E-002    -7.8061770381054885E-009
   7.8000000000000014E-002    -4.2463401683789925E-009
   7.9100000000000004E-002    -1.6665155366801798E-010
   8.0200000000000021E-002     1.2241486713193694E-009
   8.1300000000000011E-002     1.0374674452862109E-009
   8.2400000000000029E-002     5.0454520561515892E-009
   8.3500000000000019E-002     1.7299360166589395E-008
   8.4600000000000009E-002     3.0915639825934704E-008
   8.5700000000000026E-002     3.3059329496154533E-008
   8.6800000000000016E-002     1.9499909242881586E-008
   8.7900000000000006E-002    -1.8035102300473227E-009
   8.9000000000000024E-002    -1.6438484351510851E-008
   9.0100000000000013E-002    -1.6087387422203392E-008
   9.1200000000000003E-002    -5.9845866040575402E-009
   9.2300000000000021E-002     4.1899177460891224E-009
   9.3400000000000011E-002     8.6281266575838345E-009
   9.4500000000000028E-002     8.2621873787047662E-009
   9.5600000000000018E-002     7.0358039394591287E-009
   9.6700000000000008E-002     5.7377174123018904E-009
   9.7800000000000026E-002     2.3602235721398301E-009
   9.8900000000000016E-002    -7.4706028030391280E-009
  0.10000000000000001         -2.1245131875957668E-008
  0.10110000000000002         -2.9821144664765598E-008
  0.10220000000000001         -2.4665899545084358E-008
  0.10330000000000003         -7.5361370477367018E-009
  0.10440000000000002          1.0669181094158375E-008
  0.10550000000000001          1.7258498630212671E-008
  0.10660000000000003          9.5250047849049224E-009
  0.10770000000000002         -2.6003397213258950E-009
  0.10880000000000001         -7.4656858473076682E-009
  0.10990000000000003         -3.3322185011286365E-009
  0.11100000000000002          2.3249520086920938E-009
  0.11210000000000001          2.4708679546847634E-010
  0.11320000000000002         -8.9921847745699779E-009
  0.11430000000000001         -1.5856270962899544E-008
  0.11540000000000003         -1.1767619767510951E-008
  0.11650000000000002          7.4173422959233903E-010
  0.11760000000000001          1.0549875639753736E-008
  0.11870000000000003          9.5493870588825303E-009
  0.11980000000000002         -2.1799939631250709E-010
  0.12090000000000001         -7.2718493449031030E-009
  0.12200000000000003         -2.7836448701634708E-009
  0.12310000000000001          1.1281484191272284E-008
  0.12420000000000003          2.2491910556254879E-008
  0.12530000000000002          1.9204744461376322E-008
  0.12640000000000001          3.0288407337764056E-009
  0.12750000000000003         -1.4195728148536091E-008
  0.12860000000000002         -2.1762705415540040E-008
  0.12970000000000001         -1.7771945692857116E-008
  0.13080000000000003         -8.6991862602303627E-009
  0.13190000000000002         -1.5803521824508948E-009
  0.13300000000000001          2.4955568722617727E-009
  0.13410000000000000          6.4818364009511242E-009
  0.13520000000000004          1.1418189949097268E-008
  0.13630000000000003          1.2513914349199240E-008
  0.13740000000000002          4.9558988024500650E-009
  0.13850000000000001         -9.3781160614980763E-009
  0.13960000000000000         -2.0987393156701728E-008
  0.14070000000000005         -2.0752114693323165E-008
  0.14180000000000004         -1.0249765480807582E-008
  0.14290000000000003         -2.4934199149839742E-010
  0.14400000000000002         -5.4398263671373570E-011
  0.14510000000000001         -7.6437860485611964E-009
  0.14620000000000000         -1.1621100526326700E-008
  0.14730000000000004         -3.1757507734653245E-009
  0.14840000000000003          1.3824747568946805E-008
  0.14950000000000002          2.5216671417638281E-008
  0.15060000000000001          1.9888190649908211E-008
  0.15170000000000000          1.3012493305097905E-009
  0.15280000000000005         -1.4764860445382055E-008
  0.15390000000000004         -1.5219731253068858E-008
  0.15500000000000003         -1.6408461256389728E-009
  0.15610000000000002          1.1846168490592390E-008
  0.15720000000000001          1.2139704352875924E-008
  0.15830000000000000          1.9655654881489681E-010
  0.15940000000000004         -1.0702406072482518E-008
  0.16050000000000003         -8.5871487698341298E-009
  0.16160000000000002          5.1855604255024446E-009
  0.16270000000000001          1.7013306319313415E-008
  0.16380000000000000          1.4578739992998635E-008
  0.16490000000000005         -9.0253760021141716E-010
  0.16600000000000004         -1.6751295461858717E-008
  0.16710000000000003         -2.1285433859929981E-008
  0.16820000000000002         -1.4726788677421609E-008
  0.16930000000000001         -7.3513928278146068E-009
  0.17040000000000000         -7.6931083725639837E-009
  0.17150000000000004         -1.3557127864771701E-008
  0.17260000000000003         -1.5491448124294038E-008
  0.17370000000000002         -7.6589419251149593E-009
  0.17480000000000001          5.3115822851168559E-009
  0.17590000000000000          1.2822542139190318E-008
  0.17700000000000005          9.5353751561333411E-009
  0.17810000000000004          7.0125549811450583E-010
  0.17920000000000003         -3.8278420433357496E-009
  0.18030000000000002         -6.2694516245187515E-010
  0.18140000000000001          3.5324285718729698E-009
  0.18250000000000000         -4.1631675884445940E-010
  0.18360000000000004         -1.2375709346201802E-008
  0.18470000000000003         -2.1302259511912780E-008
  0.18580000000000002         -1.5663998098602860E-008
  0.18690000000000001          3.6573455375332742E-009
  0.18800000000000000          2.1919937864822714E-008
  0.18910000000000005          2.3495456247246693E-008
  0.19020000000000004          6.8372321138099323E-009
  0.19130000000000003         -1.3412619459529651E-008
  0.19240000000000002         -1.9944376816738441E-008
  0.19350000000000001         -9.3353111907390485E-009
  0.19460000000000005          4.9953450265149968E-009
  0.19570000000000004          6.0949898461615248E-009
  0.19680000000000003         -9.6798213888860118E-009
  0.19790000000000002         -2.8360874537725067E-008
  0.19900000000000001         -3.1147799006703281E-008
  0.20010000000000000         -1.2213261513238649E-008
  0.20120000000000005          1.5487890081544720E-008
  0.20230000000000004          3.1555398294358383E-008
  0.20340000000000003          2.5869239195230875E-008
  0.20450000000000002          6.0892415554292256E-009
  0.20560000000000000         -1.0747265299926312E-008
  0.20670000000000005         -1.3739496651510308E-008
  0.20780000000000004         -6.2012293078339553E-009
  0.20890000000000003          1.2143674954501193E-010
