 -0.12000000000000000          0.0000000000000000     
 -0.11889999999999999          0.0000000000000000     
 -0.11780000000000000          0.0000000000000000     
 -0.11670000000000000          1.4128506524435647E-011
 -0.11559999999999999          2.1192759352972601E-011
 -0.11449999999999999         -4.2385518705945202E-011
 -0.11340000000000000          0.0000000000000000     
 -0.11230000000000000         -5.6514026097742587E-011
 -0.11119999999999999          5.6514026097742587E-011
 -0.11009999999999999          3.9559819309253896E-010
 -0.10900000000000000         -1.1302805219548517E-010
 -0.10790000000000000         -1.1302805358326395E-009
 -0.10679999999999999         -4.5211220878194069E-010
 -0.10569999999999999          6.7816829929512323E-010
 -0.10460000000000000          2.2605610716652791E-009
 -0.10349999999999999         -4.5211220878194069E-010
 -0.10239999999999999         -1.8084488351277628E-009
 -0.10130000000000000          1.1302805358326395E-009
 -0.10020000000000000          4.5211221433305582E-009
  -9.9099999999999994E-002     1.8084488351277628E-009
  -9.7999999999999990E-002    -7.2337953405110511E-009
  -9.6899999999999986E-002    -9.7204129190231470E-009
  -9.5799999999999996E-002    -1.0398580663206758E-008
  -9.4699999999999993E-002     7.2337953405110511E-009
  -9.3599999999999989E-002     3.3456302617196343E-008
  -9.2499999999999999E-002     3.7073199621318054E-008
  -9.1399999999999995E-002    -1.0398580663206758E-008
  -9.0299999999999991E-002    -6.3295708230270975E-008
  -8.9200000000000002E-002    -5.3801354482629904E-008
  -8.8099999999999984E-002    -1.8084488573322233E-008
  -8.6999999999999994E-002    -2.4640115725560463E-008
  -8.5899999999999990E-002    -4.0690100178153443E-009
  -8.4799999999999986E-002     1.6230828236984962E-007
  -8.3699999999999997E-002     1.7994065615312138E-007
  -8.2599999999999993E-002     3.2099965352472282E-008
  -8.1499999999999989E-002    -3.5309963664076349E-007
  -8.0399999999999999E-002    -1.8988713179624028E-007
  -7.9299999999999995E-002     2.0073781570317806E-007
  -7.8199999999999992E-002     1.6637729061130813E-007
  -7.7100000000000002E-002     1.1754917750295135E-007
  -7.5999999999999984E-002     4.8466426960658282E-007
  -7.4899999999999994E-002     2.8483069058893307E-007
  -7.3799999999999991E-002    -1.4286746363723068E-006
  -7.2699999999999987E-002    -8.2826954894699156E-007
  -7.1599999999999997E-002    -8.1741887925090850E-007
  -7.0499999999999993E-002     9.5486097961838823E-007
  -6.9399999999999989E-002     1.7795136955101043E-006
  -6.8300000000000000E-002     2.1990738332533510E-006
  -6.7199999999999996E-002     4.0509254972675990E-007
  -6.6099999999999992E-002    -9.4039342002361082E-007
  -6.5000000000000002E-002    -3.9930550883582328E-006
  -6.3899999999999985E-002    -3.3854162211355288E-006
  -6.2799999999999995E-002    -1.6203701989070396E-006
  -6.1699999999999991E-002     4.9768514145398512E-006
  -6.0599999999999994E-002     8.5069432316231541E-006
  -5.9499999999999990E-002     1.6030089682317339E-005
  -5.8399999999999994E-002    -5.6712956393312197E-006
  -5.7299999999999990E-002    -2.0254627088434063E-005
  -5.6199999999999986E-002    -1.7476850189268589E-005
  -5.5099999999999996E-002    -9.3749986262992024E-006
  -5.3999999999999992E-002    -5.2083328228036407E-006
  -5.2899999999999989E-002    -3.9351848499791231E-006
  -5.1799999999999985E-002     1.2962961591256317E-005
  -5.0699999999999995E-002     7.6620359322987497E-005
  -4.9599999999999991E-002     4.3055548303527758E-005
  -4.8499999999999988E-002    -3.8888883864274248E-005
  -4.7399999999999998E-002    -4.9537029553903267E-005
  -4.6299999999999994E-002    -2.1759256924269721E-005
  -4.5199999999999990E-002     4.1203697037417442E-005
  -4.4099999999999986E-002     2.0833331291214563E-005
  -4.2999999999999997E-002    -1.2731479364447296E-004
  -4.1899999999999993E-002    -1.2314812920521945E-004
  -4.0799999999999989E-002     8.8888875325210392E-005
  -3.9699999999999985E-002     1.9351849914528430E-004
  -3.8599999999999995E-002     1.5740738308522850E-004
  -3.7499999999999992E-002    -1.5648145927116275E-004
  -3.6399999999999988E-002    -2.1851848578080535E-004
  -3.5299999999999984E-002    -1.1203702160855755E-004
  -3.4199999999999994E-002     1.6666665032971650E-005
  -3.3099999999999991E-002     4.0277771768160164E-004
  -3.1999999999999987E-002     4.6666659181937575E-004
  -3.0899999999999997E-002    -2.2037034796085209E-004
  -2.9799999999999993E-002    -8.0185174010694027E-004
  -2.8699999999999989E-002    -6.4444437157362700E-004
  -2.7599999999999986E-002     3.4629626316018403E-004
  -2.6499999999999996E-002     1.3527775881811976E-003
  -2.5399999999999992E-002     9.5092580886557698E-004
  -2.4299999999999988E-002    -3.0648143729194999E-004
  -2.3199999999999985E-002    -1.3722220901399851E-003
  -2.2099999999999995E-002    -1.3518516207113862E-003
  -2.0999999999999991E-002    -1.6527775733266026E-004
  -1.9899999999999987E-002     9.0844894293695688E-004
  -1.8799999999999983E-002     1.3918979093432426E-003
  -1.7699999999999994E-002     7.5925912824459374E-005
  -1.6599999999999990E-002    -8.1851839786395431E-004
  -1.5499999999999986E-002    -3.9444438880309463E-004
  -1.4399999999999996E-002     1.7592590302228928E-004
  -1.3299999999999992E-002     1.6851850086823106E-003
  -1.2199999999999989E-002     1.4777776086702943E-003
  -1.1099999999999985E-002    -1.4444442931562662E-003
  -9.9999999999999950E-003    -3.8222216535359621E-003
  -8.8999999999999913E-003    -2.5555551983416080E-003
  -7.7999999999999875E-003     2.4444441078230739E-004
  -6.6999999999999837E-003     3.8814810104668140E-003
  -5.5999999999999939E-003     5.1703695207834244E-003
  -4.4999999999999901E-003     1.5999998431652784E-003
  -3.3999999999999864E-003    -1.7777775647118688E-003
  -2.2999999999999826E-003    -3.6740736104547977E-003
  -1.1999999999999927E-003    -3.5407403483986855E-003
  -9.9999999999988987E-005    -9.6296286210417747E-004
   1.0000000000000148E-003     5.9259251429466531E-005
   2.1000000000000185E-003     1.5259257052093744E-003
   3.2000000000000084E-003    -1.1851850285893306E-004
   4.3000000000000121E-003     1.5111109241843224E-003
   5.4000000000000159E-003     3.2296292483806610E-003
   6.5000000000000058E-003     4.0592588484287262E-003
   7.6000000000000234E-003     5.6296290131285787E-004
   8.7000000000000133E-003    -2.2814811673015356E-003
   9.8000000000000032E-003    -3.9407401345670223E-003
   1.0900000000000021E-002    -4.1481475345790386E-003
   1.2000000000000011E-002    -1.8370368052273989E-003
   1.3100000000000001E-002     4.1481477092020214E-004
   1.4200000000000018E-002     1.8074071267619729E-003
   1.5300000000000008E-002    -1.7777775065042078E-004
   1.6400000000000026E-002     6.8148138234391809E-004
   1.7500000000000016E-002     2.2518516052514315E-003
   1.8600000000000005E-002     3.0074070673435926E-003
   1.9700000000000023E-002     3.7481477484107018E-003
   2.0800000000000013E-002     5.9259252157062292E-004
   2.1900000000000003E-002    -2.0592589862644672E-003
   2.3000000000000020E-002    -4.0740733966231346E-003
   2.4100000000000010E-002    -4.2444439604878426E-003
   2.5200000000000000E-002    -9.5324061112478375E-004
   2.6300000000000018E-002     2.8999997302889824E-003
   2.7400000000000008E-002     2.8444440104067326E-003
   2.8500000000000025E-002    -5.0370366079732776E-004
   2.9600000000000015E-002    -3.0962959863245487E-003
   3.0700000000000005E-002    -2.2518516052514315E-003
   3.1800000000000023E-002     1.0666665621101856E-003
   3.2900000000000013E-002     3.7925920914858580E-003
   3.4000000000000002E-002     4.4740736484527588E-003
   3.5100000000000020E-002     2.2814811673015356E-003
   3.6200000000000010E-002    -2.3111107293516397E-003
   3.7300000000000028E-002    -5.5111101828515530E-003
   3.8400000000000017E-002    -4.3259253725409508E-003
   3.9500000000000007E-002    -7.1111100260168314E-004
   4.0600000000000025E-002     2.8444440104067326E-003
   4.1700000000000015E-002     5.9259251429466531E-005
   4.2800000000000005E-002     1.6592590836808085E-003
   4.3900000000000022E-002     5.9259252157062292E-004
   4.5000000000000012E-002     3.7333327345550060E-003
   4.6100000000000002E-002     2.1925922483205795E-003
   4.7200000000000020E-002    -3.5555550130084157E-004
   4.8300000000000010E-002    -3.0814809724688530E-003
   4.9400000000000027E-002    -2.7851848863065243E-003
   5.0500000000000017E-002    -3.7333327345550060E-003
   5.1600000000000007E-002     0.0000000000000000     
   5.2700000000000025E-002     1.4814812457188964E-003
   5.3800000000000014E-002     3.8814810104668140E-003
   5.4900000000000004E-002     1.1851850285893306E-004
   5.6000000000000022E-002    -4.1777770966291428E-003
   5.7100000000000012E-002    -2.4592590052634478E-003
   5.8200000000000002E-002     7.2888880968093872E-003
   5.9300000000000019E-002     9.2740729451179504E-003
   6.0400000000000009E-002     1.0962961241602898E-003
   6.1500000000000027E-002    -8.3999987691640854E-003
   6.2600000000000017E-002    -1.3207405805587769E-002
   6.3700000000000007E-002    -5.4925917647778988E-003
   6.4800000000000024E-002     7.2175916284322739E-003
   6.5900000000000014E-002     1.1822220869362354E-002
   6.7000000000000004E-002     6.5555544570088387E-003
   6.8100000000000022E-002    -3.7629625294357538E-003
   6.9200000000000012E-002    -9.7629614174365997E-003
   7.0300000000000029E-002    -3.5111105535179377E-003
   7.1400000000000019E-002     7.0518511347472668E-003
   7.2500000000000009E-002     1.1466665193438530E-002
   7.3600000000000027E-002     3.2592588104307652E-003
   7.4700000000000016E-002    -9.6592577174305916E-003
   7.5800000000000006E-002    -1.6948146745562553E-002
   7.6900000000000024E-002    -7.8814802691340446E-003
   7.8000000000000014E-002     8.1185176968574524E-003
   7.9100000000000004E-002     1.6533331945538521E-002
   8.0200000000000021E-002     9.9259242415428162E-003
   8.1300000000000011E-002    -5.2740732207894325E-003
   8.2400000000000029E-002    -1.4488887041807175E-002
   8.3500000000000019E-002    -9.7777768969535828E-003
   8.4600000000000009E-002     4.7999992966651917E-003
   8.5700000000000026E-002     1.3925923965871334E-002
   8.6800000000000016E-002     1.0014813393354416E-002
   8.7900000000000006E-002    -3.8222216535359621E-003
   8.9000000000000024E-002    -1.2888886965811253E-002
   9.0100000000000013E-002    -1.0133331641554832E-002
   9.1200000000000003E-002     2.1333331242203712E-003
   9.2300000000000021E-002     1.1851849965751171E-002
   9.3400000000000011E-002     1.0281479917466640E-002
   9.4500000000000028E-002    -7.1111100260168314E-004
   9.5600000000000018E-002    -1.0577776469290257E-002
   9.6700000000000008E-002    -1.0577776469290257E-002
   9.7800000000000026E-002    -2.0296294242143631E-003
   9.8900000000000016E-002     6.3259252347052097E-003
  0.10000000000000001          9.3037020415067673E-003
  0.10110000000000002          4.4370363466441631E-003
  0.10220000000000001         -2.5851847603917122E-003
  0.10330000000000003         -5.4222214967012405E-003
  0.10440000000000002         -3.3629625104367733E-003
  0.10550000000000001          7.5185176683589816E-004
  0.10660000000000003          2.4370367173105478E-003
  0.10770000000000002          4.1111104656010866E-004
  0.10880000000000001         -2.2217589430510998E-003
  0.10990000000000003         -1.9186340505257249E-003
  0.11100000000000002          1.1337961768731475E-003
  0.11210000000000001          3.8722218014299870E-003
  0.11320000000000002          3.0759256333112717E-003
  0.11430000000000001         -7.1666657458990812E-004
  0.11540000000000003         -3.5999994724988937E-003
  0.11650000000000002         -2.7018515393137932E-003
  0.11760000000000001          1.0037035681307316E-003
  0.11870000000000003          4.0999995544552803E-003
  0.11980000000000002          2.8999997302889824E-003
  0.12090000000000001         -2.2481477353721857E-003
  0.12200000000000003         -6.5370360389351845E-003
  0.12310000000000001         -5.1777772605419159E-003
  0.12420000000000003          1.6962960362434387E-003
  0.12530000000000002          7.9259248450398445E-003
  0.12640000000000001          7.0370361208915710E-003
  0.12750000000000003         -9.1111101210117340E-004
  0.12860000000000002         -8.6740730330348015E-003
  0.12970000000000001         -9.3629620969295502E-003
  0.13080000000000003         -1.0370368836447597E-003
  0.13190000000000002          9.2499991878867149E-003
  0.13300000000000001          1.2379627674818039E-002
  0.13410000000000000          5.6074066087603569E-003
  0.13520000000000004         -5.3759249858558178E-003
  0.13630000000000003         -1.0907405987381935E-002
  0.13740000000000002         -6.7129619419574738E-003
  0.13850000000000001          1.8814812647178769E-003
  0.13960000000000000          6.5333326347172260E-003
  0.14070000000000005          3.1407403293997049E-003
  0.14180000000000004         -3.5074069164693356E-003
  0.14290000000000003         -5.7703694328665733E-003
  0.14400000000000002         -1.5694441972300410E-003
  0.14510000000000001          5.5120363831520081E-003
  0.14620000000000000          7.8379623591899872E-003
  0.14730000000000004          3.4009255468845367E-003
  0.14840000000000003         -3.5435180179774761E-003
  0.14950000000000002         -6.5861102193593979E-003
  0.15060000000000001         -3.9398143999278545E-003
  0.15170000000000000          7.4444431811571121E-004
  0.15280000000000005          2.3074070923030376E-003
  0.15390000000000004          3.1481476617045701E-004
  0.15500000000000003         -1.4240739401429892E-003
  0.15610000000000002          6.3472212059423327E-004
  0.15720000000000001          4.5907399617135525E-003
  0.15830000000000000          5.1273140124976635E-003
  0.15940000000000004         -3.8425921229645610E-004
  0.16050000000000003         -7.6120360754430294E-003
  0.16160000000000002         -8.9189801365137100E-003
  0.16270000000000001         -1.9240737892687321E-003
  0.16380000000000000          7.6921284198760986E-003
  0.16490000000000005          1.0759257711470127E-002
  0.16600000000000004          3.6504624877125025E-003
  0.16710000000000003         -7.3879621922969818E-003
  0.16820000000000002         -1.1356480419635773E-002
  0.16930000000000001         -4.2037032544612885E-003
  0.17040000000000000          7.4363416060805321E-003
  0.17150000000000004          1.2246062979102135E-002
  0.17260000000000003          5.4428232833743095E-003
  0.17370000000000002         -6.5703694708645344E-003
  0.17480000000000001         -1.2134488672018051E-002
  0.17590000000000000         -5.8949068188667297E-003
  0.17700000000000005          5.6828698143362999E-003
  0.17810000000000004          1.1045137420296669E-002
  0.17920000000000003          4.8449067398905754E-003
  0.18030000000000002         -6.6206008195877075E-003
  0.18140000000000001         -1.1720137670636177E-002
  0.18250000000000000         -5.0018513575196266E-003
  0.18360000000000004          7.3201376944780350E-003
  0.18470000000000003          1.3578470796346664E-002
  0.18580000000000002          7.7513880096375942E-003
  0.18690000000000001         -5.0061335787177086E-003
  0.18800000000000000         -1.3207173906266689E-002
  0.18910000000000005         -1.0384489782154560E-002
  0.19020000000000004         -1.3113423483446240E-004
  0.19130000000000003          8.1749986857175827E-003
  0.19240000000000002          8.6150448769330978E-003
  0.19350000000000001          3.2896986231207848E-003
  0.19460000000000005         -1.3380785239860415E-003
  0.19570000000000004         -1.5907405177131295E-003
  0.19680000000000003          4.3055549031123519E-004
  0.19790000000000002          4.1238419362343848E-004
  0.19900000000000001         -2.9349534306675196E-003
  0.20010000000000000         -6.1939805746078491E-003
  0.20120000000000005         -5.3158556111156940E-003
  0.20230000000000004         -2.6296291616745293E-004
  0.20340000000000003          4.8265038058161736E-003
  0.20450000000000002          6.0319434851408005E-003
  0.20560000000000000          3.3768513239920139E-003
  0.20670000000000005          3.6649301182478666E-004
  0.20780000000000004         -3.1747680623084307E-004
  0.20890000000000003          3.1493051210418344E-004
