 -0.12000000000000000          0.0000000000000000     
 -0.11889999999999999          0.0000000000000000     
 -0.11780000000000000          0.0000000000000000     
 -0.11670000000000000          0.0000000000000000     
 -0.11559999999999999          0.0000000000000000     
 -0.11449999999999999          0.0000000000000000     
 -0.11340000000000000          0.0000000000000000     
 -0.11230000000000000          0.0000000000000000     
 -0.11119999999999999          0.0000000000000000     
 -0.11009999999999999          0.0000000000000000     
 -0.10900000000000000          3.7797095456398704E-027
 -0.10790000000000000         -3.0710139336100218E-027
 -0.10679999999999999         -2.3150721015192455E-026
 -0.10569999999999999         -2.1166373147434483E-025
 -0.10460000000000000          2.1771127229404687E-024
 -0.10349999999999999          2.4190141585133237E-024
 -0.10239999999999999         -3.4350001484762694E-023
 -0.10130000000000000         -7.7408451494704547E-024
 -0.10020000000000000          6.1926761195763637E-023
  -9.9099999999999994E-002    -3.0963380597881819E-023
  -9.7999999999999990E-002     7.4312110910561468E-022
  -9.6899999999999986E-002     3.7156055455280734E-022
  -9.5799999999999996E-002    -4.4587268565820798E-021
  -9.4699999999999993E-002    -4.9541409966352869E-021
  -9.3599999999999989E-002    -1.4862422182112294E-021
  -9.2499999999999999E-002     1.1889937745689835E-020
  -9.1399999999999995E-002     7.1339629705313277E-020
  -9.0299999999999991E-002    -6.3413003464461965E-020
  -8.9200000000000002E-002     1.3475263316977524E-019
  -8.8099999999999984E-002    -1.9023900393103736E-019
  -8.6999999999999994E-002    -3.1706502378465836E-019
  -8.5899999999999990E-002    -8.8778203557777043E-019
  -8.4799999999999986E-002     4.4389101778888522E-019
  -8.3699999999999997E-002     1.0146080554313914E-018
  -8.2599999999999993E-002     2.0292161108627829E-018
  -8.1499999999999989E-002     5.5803444599690177E-018
  -8.0399999999999999E-002     2.7901722299845089E-018
  -7.9299999999999995E-002    -6.0876481257931955E-018
  -7.8199999999999992E-002    -2.6379808820830718E-017
  -7.7100000000000002E-002    -3.2467457773804526E-017
  -7.5999999999999984E-002     1.9277553363389167E-017
  -7.4899999999999994E-002     2.4350592503172782E-017
  -7.3799999999999991E-002     1.3798669636584985E-016
  -7.2699999999999987E-002     3.2467457773804526E-017
  -7.1599999999999997E-002     1.6639571819561605E-016
  -7.0499999999999993E-002    -3.0844085381422667E-016
  -6.9399999999999989E-002    -3.4090831489675365E-016
  -6.8300000000000000E-002    -5.1947932438087241E-016
  -6.7199999999999996E-002    -1.7045415744837682E-016
  -6.6099999999999992E-002     7.4066387322708539E-016
  -6.5000000000000002E-002     2.0373329844052207E-015
  -6.3899999999999985E-002     6.7369972481820615E-016
  -6.2799999999999995E-002     3.2467457773804526E-017
  -6.1699999999999991E-002    -2.4675268305138134E-015
  -6.0599999999999994E-002    -2.5973966748439213E-015
  -5.9499999999999990E-002    -5.1947933496878426E-015
  -5.8399999999999994E-002    -1.1038935709267988E-015
  -5.7299999999999990E-002     2.0779172975234897E-015
  -5.6199999999999986E-002     1.0909066076696117E-014
  -5.5099999999999996E-002     1.6623338380187917E-014
  -5.3999999999999992E-002     6.4934913694724480E-015
  -5.2899999999999989E-002     3.1168758404061161E-015
  -5.1799999999999985E-002    -2.2857090908033097E-014
  -5.0699999999999995E-002    -4.3636264306784467E-014
  -4.9599999999999991E-002    -5.8181683483624763E-014
  -4.8499999999999988E-002     0.0000000000000000     
  -4.7399999999999998E-002     6.6493353520751669E-014
  -4.6299999999999994E-002     5.1947933496878426E-015
  -4.5199999999999990E-002     1.3298670704150334E-013
  -4.4099999999999986E-002     1.3298670704150334E-013
  -4.2999999999999997E-002     7.0649188539315122E-014
  -4.1899999999999993E-002    -1.9948005378599143E-013
  -4.0799999999999989E-002    -3.3246677438002192E-013
  -3.9699999999999985E-002    -2.2441506389737215E-013
  -3.8599999999999995E-002    -3.1272654279525247E-013
  -3.7499999999999992E-002     9.9740026892995715E-014
  -3.6399999999999988E-002     5.4857014113521285E-013
  -3.5299999999999984E-002     8.8103694262028909E-013
  -3.4199999999999994E-002     1.0472703433628272E-012
  -3.3099999999999991E-002     3.4909011445427574E-013
  -3.1999999999999987E-002    -1.4628538181141182E-012
  -3.0899999999999997E-002    -1.7620738852405782E-012
  -2.9799999999999993E-002    -2.0612940607872554E-012
  -2.8699999999999989E-002    -1.0971402822704257E-012
  -2.7599999999999986E-002     2.9922009423151430E-013
  -2.6499999999999996E-002     3.6571344910751868E-012
  -2.5399999999999992E-002     5.4524548938339468E-012
  -2.4299999999999988E-002     4.6545345702697638E-012
  -2.3199999999999985E-002    -6.6493354876004385E-013
  -2.2099999999999995E-002    -5.7184283350220078E-012
  -2.0999999999999991E-002    -1.1303870166290420E-011
  -1.9899999999999987E-002    -9.7412763619408871E-012
  -1.8799999999999983E-002    -3.3246675811698934E-012
  -1.7699999999999994E-002     9.3090691405395276E-012
  -1.6599999999999990E-002     2.2474752961465505E-011
  -1.5499999999999986E-002     2.4860202438303780E-011
  -1.4399999999999996E-002     1.1170883662536824E-011
  -1.3299999999999992E-002    -8.5776429362138806E-012
  -1.2199999999999989E-002    -4.3752626521786908E-011
  -1.1099999999999985E-002    -4.9737026996954370E-011
  -9.9999999999999950E-003    -3.4875765470010478E-011
  -8.8999999999999913E-003     8.7771222581634056E-012
  -7.7999999999999875E-003     5.7982205842188606E-011
  -6.6999999999999837E-003     1.0426157853737905E-010
  -5.5999999999999939E-003     8.9832523364474781E-011
  -4.4999999999999901E-003     1.7022298501312427E-011
  -3.3999999999999864E-003    -9.6814320449389868E-011
  -2.2999999999999826E-003    -2.0213979101679769E-010
  -1.1999999999999927E-003    -1.9256475580764487E-010
  -9.9999999999988987E-005    -6.9685035519739813E-011
   1.0000000000000148E-003     1.5000900521755511E-010
   2.1000000000000185E-003     3.3938207799621978E-010
   3.2000000000000084E-003     3.5055294778096879E-010
   4.3000000000000121E-003     1.3405060395044188E-010
   5.4000000000000159E-003    -2.3724827658000436E-010
   6.5000000000000058E-003    -5.4790522119319007E-010
   7.6000000000000234E-003    -5.4737331334209216E-010
   8.7000000000000133E-003    -2.0533147404577790E-010
   9.8000000000000032E-003     3.6172384532129342E-010
   1.0900000000000021E-002     7.9579243195126992E-010
   1.2000000000000011E-002     7.8728129571103977E-010
   1.3100000000000001E-002     2.5746227372280828E-010
   1.4200000000000018E-002    -5.0375364990529192E-010
   1.5300000000000008E-002    -1.0638936398521537E-009
   1.6400000000000026E-002    -9.7452657055185909E-010
   1.7500000000000016E-002    -3.2767924484922162E-010
   1.8600000000000005E-002     6.2131388922637143E-010
   1.9700000000000023E-002     1.3000780452188110E-009
   2.0800000000000013E-002     1.3862534453679132E-009
   2.1900000000000003E-002     7.4046996312304714E-010
   2.3000000000000020E-002    -4.9364667908946558E-010
   2.4100000000000010E-002    -1.8724528594304957E-009
   2.5200000000000000E-002    -2.7405899771792974E-009
   2.6300000000000018E-002    -2.3405659632658171E-009
   2.7400000000000008E-002    -7.3408661094287453E-011
   2.8500000000000025E-002     3.5406380050062580E-009
   2.9600000000000015E-002     6.6727410263922593E-009
   3.0700000000000005E-002     6.7578524998168632E-009
   3.1800000000000023E-002     1.8894752429332584E-009
   3.2900000000000013E-002    -6.8259415897387044E-009
   3.4000000000000002E-002    -1.5047712409455016E-008
   3.5100000000000020E-002    -1.7209544012075639E-008
   3.6200000000000010E-002    -9.1239522603814294E-009
   3.7300000000000028E-002     8.5792386528282805E-009
   3.8400000000000017E-002     2.9363464548737284E-008
   3.9500000000000007E-002     4.1828041474900601E-008
   4.0600000000000025E-002     3.2836013019732491E-008
   4.1700000000000015E-002    -1.7022298015589854E-009
   4.2800000000000005E-002    -5.2530811700535196E-008
   4.3900000000000022E-002    -9.3486463015324262E-008
   4.5000000000000012E-002    -9.2941746743235854E-008
   4.6100000000000002E-002    -3.2870058674916436E-008
   4.7200000000000020E-002     7.6923768688175187E-008
   4.8300000000000010E-002     1.8431744308600173E-007
   4.9400000000000027E-002     2.1720452991758066E-007
   5.0500000000000017E-002     1.3250156882804731E-007
   5.1600000000000007E-002    -6.2914416787407390E-008
   5.2700000000000025E-002    -2.8542990548885427E-007
   5.3800000000000014E-002    -4.0921605659605120E-007
   5.4900000000000004E-002    -3.3336468163724930E-007
   5.6000000000000022E-002    -5.0113648342176020E-008
   5.7100000000000012E-002     2.9005997248532367E-007
   5.8200000000000002E-002     5.2837214070677874E-007
   5.9300000000000019E-002     5.5315661029453622E-007
   6.0400000000000009E-002     3.4480368071854173E-007
   6.1500000000000027E-002    -2.9414531255156362E-008
   6.2600000000000017E-002    -3.9655145656070090E-007
   6.3700000000000007E-002    -6.6999768932873849E-007
   6.4800000000000024E-002    -6.8416022713790881E-007
   6.5900000000000014E-002    -4.8261620122502791E-007
   6.7000000000000004E-002    -6.5365624024593671E-009
   6.8100000000000022E-002     6.6019282485285657E-007
   6.9200000000000012E-002     1.1591504289754084E-006
   7.0300000000000029E-002     1.4336860658659134E-006
   7.1400000000000019E-002     8.2360691067151492E-007
   7.2500000000000009E-002    -4.9677873903419822E-007
   7.3600000000000027E-002    -2.2137157884571934E-006
   7.4700000000000016E-002    -2.8673721317318268E-006
   7.5800000000000006E-002    -2.0306920305301901E-006
   7.6900000000000024E-002     3.7476291936400230E-007
   7.8000000000000014E-002     2.8673721317318268E-006
   7.9100000000000004E-002     4.5145857257011812E-006
   8.0200000000000021E-002     3.6953367725800490E-006
   8.1300000000000011E-002     9.2383419314501225E-007
   8.2400000000000029E-002    -2.6320558390580118E-006
   8.3500000000000019E-002    -5.9962067098240368E-006
   8.4600000000000009E-002    -5.4732818171032704E-006
   8.5700000000000026E-002    -3.9742299122735858E-006
   8.6800000000000016E-002     3.8347835129570740E-007
   8.7900000000000006E-002     4.5320166464080103E-006
   8.9000000000000024E-002     8.9245868366560899E-006
   9.0100000000000013E-002     1.0109883078257553E-005
   9.1200000000000003E-002     6.1356536207313184E-006
   9.2300000000000021E-002    -3.8347834561136551E-006
   9.3400000000000011E-002    -1.3944666534371208E-005
   9.4500000000000028E-002    -1.7430833395337686E-005
   9.5600000000000018E-002    -1.1295180229353718E-005
   9.6700000000000008E-002     1.1155733545820112E-006
   9.7800000000000026E-002     1.2550200153782498E-005
   9.8900000000000016E-002     1.8964747141581029E-005
  0.10000000000000001          1.5060240002640057E-005
  0.10110000000000002          6.6934399001183920E-006
  0.10220000000000001          6.1356536207313184E-006
  0.10330000000000003         -8.9245868366560899E-006
  0.10440000000000002         -2.6773759600473568E-005
  0.10550000000000001         -3.6535027902573347E-005
  0.10660000000000003         -3.4024986234726384E-005
  0.10770000000000002         -1.4502453268505633E-005
  0.10880000000000001          1.5618026736774482E-005
  0.10990000000000003          4.1834002331597731E-005
  0.11100000000000002          4.2949573980877176E-005
  0.11210000000000001          5.3547519200947136E-005
  0.11320000000000002          2.5100400307564996E-005
  0.11430000000000001         -1.0040160304924939E-005
  0.11540000000000003         -7.1396694693248719E-005
  0.11650000000000002         -3.6813918995903805E-005
  0.11760000000000001         -3.0120480005280115E-005
  0.11870000000000003          4.4622935092775151E-005
  0.11980000000000002          8.9245868366560899E-006
  0.12090000000000001          6.0240960010560229E-005
  0.12200000000000003          7.4743416917044669E-005
  0.12310000000000001          5.4663094488205388E-005
  0.12420000000000003         -8.2552425737958401E-005
  0.12530000000000002         -8.1436854088678956E-005
  0.12640000000000001         -1.1378848284948617E-004
  0.12750000000000003         -9.8170457931701094E-005
  0.12860000000000002         -3.3467200410086662E-005
  0.12970000000000001          3.7929494283162057E-005
  0.13080000000000003          1.6287370817735791E-004
  0.13190000000000002          1.1378848284948617E-004
  0.13300000000000001          3.5698347346624359E-005
  0.13410000000000000          0.0000000000000000     
  0.13520000000000004         -1.1601962614804506E-004
  0.13630000000000003         -1.1825077672256157E-004
  0.13740000000000002         -1.8518517026677728E-004
  0.13850000000000001         -8.7014719611033797E-005
  0.13960000000000000          2.2311467091640225E-006
  0.14070000000000005          1.7179829592350870E-004
  0.14180000000000004          2.3427041014656425E-004
  0.14290000000000003          2.8112449217587709E-004
  0.14400000000000002          6.4703257521614432E-005
  0.14510000000000001         -1.6733600932639092E-004
  0.14620000000000000         -3.2128512975759804E-004
  0.14730000000000004         -1.6175812925212085E-004
  0.14840000000000003         -8.1436854088678956E-005
  0.14950000000000002          1.0263275180477649E-004
  0.15060000000000001          3.1012939871288836E-004
  0.15170000000000000          2.9897366766817868E-004
  0.15280000000000005          3.0232037534005940E-004
  0.15390000000000004          1.6120035434141755E-004
  0.15500000000000003         -2.2255688963923603E-004
  0.15610000000000002         -6.2451191479340196E-004
  0.15720000000000001         -6.1300757806748152E-004
  0.15830000000000000         -3.0148369842208922E-004
  0.15940000000000004          3.5140561521984637E-005
  0.16050000000000003          2.6829537819139659E-004
  0.16160000000000002          5.2878179121762514E-004
  0.16270000000000001          6.0464075068011880E-004
  0.16380000000000000          1.4502453268505633E-004
  0.16490000000000005         -1.2605979281943291E-004
  0.16600000000000004         -3.1459168531000614E-004
  0.16710000000000003         -3.4136543399654329E-004
  0.16820000000000002         -2.3873269674368203E-004
  0.16930000000000001          2.2311467546387576E-005
  0.17040000000000000          2.6773760328069329E-004
  0.17150000000000004          2.9228022322058678E-004
  0.17260000000000003          2.0526550360955298E-004
  0.17370000000000002          7.5858988566324115E-005
  0.17480000000000001         -1.1601962614804506E-004
  0.17590000000000000         -2.9228022322058678E-004
  0.17700000000000005         -3.2351625850424170E-004
  0.17810000000000004         -1.8295402696821839E-004
  0.17920000000000003          3.1236053473548964E-005
  0.18030000000000002          2.6773760328069329E-004
  0.18140000000000001          4.2168673826381564E-004
  0.18250000000000000          3.9268183172680438E-004
  0.18360000000000004          2.5211958563886583E-004
  0.18470000000000003         -2.0080320609849878E-005
  0.18580000000000002         -2.2980810899753124E-004
  0.18690000000000001         -4.1276213596574962E-004
  0.18800000000000000         -4.1722442256286740E-004
  0.18910000000000005         -3.1459168531000614E-004
  0.19020000000000004         -8.0321282439399511E-005
  0.19130000000000003          1.8072288366965950E-004
  0.19240000000000002          3.2351625850424170E-004
  0.19350000000000001          3.1459168531000614E-004
  0.19460000000000005          8.0321282439399511E-005
  0.19570000000000004         -1.8853189249057323E-004
  0.19680000000000003         -3.5029003629460931E-004
  0.19790000000000002         -3.7817936390638351E-004
  0.19900000000000001         -2.6662202435545623E-004
  0.20010000000000000         -5.5778668865968939E-006
  0.20120000000000005          1.3386880164034665E-004
  0.20230000000000004          2.3650155344512314E-004
  0.20340000000000003          1.6287370817735791E-004
  0.20450000000000002          2.8112449217587709E-004
  0.20560000000000000          4.6630966244265437E-004
  0.20670000000000005          5.8009813074022532E-004
  0.20780000000000004          3.8375722942873836E-004
  0.20890000000000003          1.4502453268505633E-004
