 -0.12000000000000000          0.0000000000000000     
 -0.11889999999999999          0.0000000000000000     
 -0.11780000000000000          0.0000000000000000     
 -0.11670000000000000          7.7706785640450568E-015
 -0.11559999999999999          1.9426697257145589E-014
 -0.11449999999999999          7.7706802581109513E-015
 -0.11340000000000000         -7.7706768699791623E-015
 -0.11230000000000000          1.9426698951211484E-014
 -0.11119999999999999         -1.5541353739958325E-014
 -0.11009999999999999         -2.3312035353321992E-013
 -0.10900000000000000         -5.4394748254249503E-013
 -0.10790000000000000         -2.0203760539572180E-013
 -0.10679999999999999          3.5745126476804945E-013
 -0.10569999999999999          6.9936114191482268E-013
 -0.10460000000000000          1.7872561069998127E-012
 -0.10349999999999999          8.5477447602649859E-013
 -0.10239999999999999         -4.5536178994165510E-012
 -0.10130000000000000         -7.4753935680460515E-012
 -0.10020000000000000         -2.6264901711869904E-012
  -9.9099999999999994E-002     2.9683980967698531E-012
  -9.7999999999999990E-002     4.9576918091653877E-012
  -9.6899999999999986E-002     9.1849410022160072E-012
  -9.5799999999999996E-002     1.0148505300011657E-011
  -9.4699999999999993E-002    -4.5536187667782890E-012
  -9.3599999999999989E-002    -2.0965292002461666E-011
  -9.2499999999999999E-002    -1.2013470079841326E-011
  -9.1399999999999995E-002     9.8687611901904226E-012
  -9.0299999999999991E-002     1.4841995688019693E-011
  -8.9200000000000002E-002    -5.7503047462548196E-013
  -8.8099999999999984E-002    -3.8371611443821507E-011
  -8.6999999999999994E-002    -5.7269897157929961E-011
  -8.5899999999999990E-002     2.5285794291729502E-011
  -8.4799999999999986E-002     1.4315144902798949E-010
  -8.3699999999999997E-002     6.6066319082125347E-011
  -8.2599999999999993E-002    -9.9045056878299675E-011
  -8.1499999999999989E-002     1.2355394485297211E-011
  -8.0399999999999999E-002     1.6354172183152826E-010
  -7.9299999999999995E-002     1.8323287331867277E-011
  -7.8199999999999992E-002    -1.7484000358614082E-011
  -7.7100000000000002E-002     3.3263169996189390E-010
  -7.5999999999999984E-002     5.4747545386035767E-010
  -7.4899999999999994E-002     1.8940260471111969E-010
  -7.3799999999999991E-002    -6.1427202213693022E-010
  -7.2699999999999987E-002    -1.3065462045602771E-009
  -7.1599999999999997E-002    -1.0439593634004041E-009
  -7.0499999999999993E-002     2.6101726335880926E-010
  -6.9399999999999989E-002     9.4533425532006277E-010
  -6.8300000000000000E-002     6.7479033472039873E-010
  -6.7199999999999996E-002    -2.0049895077534075E-010
  -6.6099999999999992E-002    -6.4610072847415267E-010
  -6.5000000000000002E-002    -4.3921416503778232E-010
  -6.3899999999999985E-002     1.3431928902463142E-009
  -6.2799999999999995E-002     2.7118267631465187E-009
  -6.1699999999999991E-002     1.9479378110531798E-009
  -6.0599999999999994E-002     2.0434238745536959E-009
  -5.9499999999999990E-002     5.4747495425999659E-010
  -5.8399999999999994E-002    -1.3622470929064434E-009
  -5.7299999999999990E-002     1.5023358113097629E-009
  -5.6199999999999986E-002     1.0187273247197481E-010
  -5.5099999999999996E-002    -7.5370145680153655E-009
  -5.3999999999999992E-002    -1.9377289106614626E-008
  -5.2899999999999989E-002    -3.5673583198558845E-008
  -5.1799999999999985E-002    -2.3960621930996240E-008
  -5.0699999999999995E-002     2.4419001931619277E-008
  -4.9599999999999991E-002     6.3377328274327738E-008
  -4.8499999999999988E-002     5.3319457293810046E-008
  -4.7399999999999998E-002     1.5125017682748876E-008
  -4.6299999999999994E-002    -2.7398124657906919E-008
  -4.5199999999999990E-002    -5.0569418874601979E-008
  -4.4099999999999986E-002    -4.2268339939255384E-009
  -4.2999999999999997E-002     9.4060190747313754E-008
  -4.1899999999999993E-002     1.0857407062303537E-007
  -4.0799999999999989E-002    -2.8925917661126732E-008
  -3.9699999999999985E-002    -1.9036107801184698E-007
  -3.8599999999999995E-002    -2.2600923443860665E-007
  -3.7499999999999992E-002    -3.9620374536752934E-008
  -3.6399999999999988E-002     1.3912959673234582E-007
  -3.5299999999999984E-002     8.2092562081470533E-008
  -3.4199999999999994E-002     7.3944413259141584E-008
  -3.3099999999999991E-002     2.2519438402923697E-007
  -3.1999999999999987E-002     2.8630546466956730E-007
  -3.0899999999999997E-002     1.2894439294086624E-007
  -2.9799999999999993E-002    -1.9545370832929621E-007
  -2.8699999999999989E-002    -2.9068519324937370E-007
  -2.7599999999999986E-002    -1.8425002679123281E-007
  -2.6499999999999996E-002    -1.7559261777932988E-007
  -2.5399999999999992E-002     2.4546253030166554E-008
  -2.4299999999999988E-002     2.7153697601534077E-007
  -2.3199999999999985E-002     9.1768484367094061E-008
  -2.2099999999999995E-002    -2.6318517143408826E-007
  -2.0999999999999991E-002    -1.0175000397794065E-007
  -1.9899999999999987E-002    -2.2687501655127562E-008
  -1.8799999999999983E-002    -2.4994440650516481E-007
  -1.7699999999999994E-002    -2.2320830339594977E-007
  -1.6599999999999990E-002     2.0507866338448366E-007
  -1.5499999999999986E-002     4.3424529394542333E-007
  -1.4399999999999996E-002    -3.3254622167078196E-008
  -1.3299999999999992E-002    -9.6010637662402587E-007
  -1.2199999999999989E-002    -1.4062173931961297E-006
  -1.1099999999999985E-002    -2.9603239681819105E-007
  -9.9999999999999950E-003     1.8958190821649623E-006
  -8.8999999999999913E-003     3.1873005355009809E-006
  -7.7999999999999875E-003     2.0547081476252060E-006
  -6.6999999999999837E-003    -1.9418052943365183E-007
  -5.5999999999999939E-003    -1.4530693306369358E-006
  -4.4999999999999901E-003    -9.7232873486063909E-007
  -3.3999999999999864E-003     4.0470808926329482E-007
  -2.2999999999999826E-003     3.3952295552808209E-007
  -1.1999999999999927E-003    -1.5997360378605663E-006
  -9.9999999999988987E-005    -3.0501064429699909E-006
   1.0000000000000148E-003    -2.5041806566150626E-006
   2.1000000000000185E-003    -1.7381057659804355E-007
   3.2000000000000084E-003     3.1261888580047525E-006
   4.3000000000000121E-003     4.4461885408964008E-006
   5.4000000000000159E-003     1.3335964013094781E-006
   6.5000000000000058E-003    -3.1804770515009295E-006
   7.6000000000000234E-003    -5.5434397836506832E-006
   8.7000000000000133E-003    -4.5167735152062960E-006
   9.8000000000000032E-003    -1.6566309568588622E-007
   1.0900000000000021E-002     4.1854473238345236E-006
   1.2000000000000011E-002     5.3261883294908330E-006
   1.3100000000000001E-002     3.2891516639210749E-006
   1.4200000000000018E-002     8.9359645016884315E-007
   1.5300000000000008E-002     3.8841133687128604E-007
   1.6400000000000026E-002     6.9804093527636724E-007
   1.7500000000000016E-002    -3.8566264493056224E-007
   1.8600000000000005E-002    -3.2619584544590907E-006
   1.9700000000000023E-002    -6.1301061577978544E-006
   2.0800000000000013E-002    -6.2441804402624257E-006
   2.1900000000000003E-002    -1.4082550023886142E-006
   2.3000000000000020E-002     5.8069290389539674E-006
   2.4100000000000010E-002     8.9439654402667657E-006
   2.5200000000000000E-002     5.9877161220356356E-006
   2.6300000000000018E-002     4.8924471229838673E-007
   2.7400000000000008E-002    -2.4277917418658035E-006
   2.8500000000000025E-002    -1.5722362149972469E-006
   2.9600000000000015E-002    -1.0018659395427676E-006
   3.0700000000000005E-002    -3.2833470413606847E-006
   3.1800000000000023E-002    -7.3900127972592600E-006
   3.2900000000000013E-002    -9.1500123744481243E-006
   3.4000000000000002E-002    -5.2389018492249306E-006
   3.5100000000000020E-002     3.4470226637495216E-006
   3.6200000000000010E-002     1.1546280802576803E-005
   3.7300000000000028E-002     1.2621836503967643E-005
   3.8400000000000017E-002     6.6573929871083237E-006
   3.9500000000000007E-002    -2.4087512429105118E-008
   4.0600000000000025E-002    -2.0122354271734366E-006
   4.1700000000000015E-002    -1.4907540162312216E-006
   4.2800000000000005E-002    -4.0003833419177681E-006
   4.3900000000000022E-002    -9.1174197223153897E-006
   4.5000000000000012E-002    -8.5307528934208676E-006
   4.6100000000000002E-002    -1.7514944374852348E-006
   4.7200000000000020E-002     4.5388751459540799E-006
   4.8300000000000010E-002     8.4173934737918898E-006
   4.9400000000000027E-002     8.4825787780573592E-006
   5.0500000000000017E-002     5.1581346269813366E-006
   5.1600000000000007E-002     2.1270238903525751E-006
   5.2700000000000025E-002     2.0292461613280466E-006
   5.3800000000000014E-002     1.7848017250798875E-006
   5.4900000000000004E-002    -2.3707532363914652E-006
   5.6000000000000022E-002    -9.1011224867543206E-006
   5.7100000000000012E-002    -1.3973713976156432E-005
   5.8200000000000002E-002    -1.2555936336866580E-005
   5.9300000000000019E-002    -2.9329748940654099E-006
   6.0400000000000009E-002     8.3359118434600532E-006
   6.1500000000000027E-002     1.2352948033367284E-005
   6.2600000000000017E-002     7.3499859354342334E-006
   6.3700000000000007E-002    -5.6390194913547020E-007
   6.4800000000000024E-002    -3.1809850042918697E-006
   6.5900000000000014E-002     1.0789681255118921E-006
   6.7000000000000004E-002     5.6643375501153059E-006
   6.8100000000000022E-002     2.5843382900347933E-006
   6.9200000000000012E-002    -6.1341793298197445E-006
   7.0300000000000029E-002    -1.0281586583005264E-005
   7.1400000000000019E-002    -4.4149205677967984E-006
   7.2500000000000009E-002     5.5747082114976365E-006
   7.3600000000000027E-002     9.4858187367208302E-006
   7.4700000000000016E-002     3.7495237847906537E-006
   7.5800000000000006E-002    -5.4741785788792185E-006
   7.6900000000000024E-002    -9.9882518043159507E-006
   7.8000000000000014E-002    -7.8208449849626049E-006
   7.9100000000000004E-002    -2.9971420190122444E-006
   8.0200000000000021E-002    -1.0578830824670149E-006
   8.1300000000000011E-002    -1.3675127092938055E-006
   8.2400000000000029E-002     1.4191534773999592E-006
   8.3500000000000019E-002     9.1110050561837852E-006
   8.4600000000000009E-002     1.7568781913723797E-005
   8.5700000000000026E-002     1.8106558854924515E-005
   8.6800000000000016E-002     6.4873011069721542E-006
   8.7900000000000006E-002    -1.0623807611409575E-005
   8.9000000000000024E-002    -2.0026769561809488E-005
   9.0100000000000013E-002    -1.4583807569579221E-005
   9.1200000000000003E-002    -6.8306871980894357E-007
   9.2300000000000021E-002     8.2717451732605696E-006
   9.3400000000000011E-002     5.1347083172004204E-006
   9.4500000000000028E-002    -4.5615865928994026E-006
   9.5600000000000018E-002    -8.1141779446625151E-006
   9.6700000000000008E-002     4.0063559936243109E-007
   9.7800000000000026E-002     1.2956930731888860E-005
   9.8900000000000016E-002     1.6656189472996630E-005
  0.10000000000000001          5.9291533034411259E-006
  0.10110000000000002         -1.0941585969703738E-005
  0.10220000000000001         -1.9321954823681153E-005
  0.10330000000000003         -1.2363436326268129E-005
  0.10440000000000002          2.5456361072428990E-006
  0.10550000000000001          1.1060449651267845E-005
  0.10660000000000003          6.5698018261173274E-006
  0.10770000000000002         -3.7992244870110881E-006
  0.10880000000000001         -7.9364463090314530E-006
  0.10990000000000003         -1.5736986824776977E-006
  0.11100000000000002          7.8221964940894395E-006
  0.11210000000000001          9.9748358479700983E-006
  0.11320000000000002          3.3972441997320857E-006
  0.11430000000000001         -3.4023846637865063E-006
  0.11540000000000003         -2.1312737317202846E-006
  0.11650000000000002          5.2590953600883950E-006
  0.11760000000000001          8.3452059698174708E-006
  0.11870000000000003          4.0483655538992025E-007
  0.11980000000000002         -1.2597569366334938E-005
  0.12090000000000001         -1.6802012396510690E-005
  0.12200000000000003         -5.4740503401262686E-006
  0.12310000000000001          1.2189095286885276E-005
  0.12420000000000003          1.9400205928832293E-005
  0.12530000000000002          8.6650225057383068E-006
  0.12640000000000001         -9.6703452072688378E-006
  0.12750000000000003         -1.6942565707722679E-005
  0.12860000000000002         -5.4007159633329138E-006
  0.12970000000000001          1.2890855032310355E-005
  0.13080000000000003          1.7678908989182673E-005
  0.13190000000000002          9.9557837529573590E-007
  0.13300000000000001         -2.3133121430873871E-005
  0.13410000000000000         -3.0833121854811907E-005
  0.13520000000000004         -1.2280810551601462E-005
  0.13630000000000003          1.7292888514930382E-005
  0.13740000000000002          3.1520572520093992E-005
  0.13850000000000001          1.8413260477245785E-005
  0.13960000000000000         -8.0936806625686586E-006
  0.14070000000000005         -2.1738771465606987E-005
  0.14180000000000004         -9.8455320767243393E-006
  0.14290000000000003          1.4251594620873220E-005
  0.14400000000000002          2.4881361241568811E-005
  0.14510000000000001          9.6361773103126325E-006
  0.14620000000000000         -1.8052243831334636E-005
  0.14730000000000004         -3.2092008041217923E-005
  0.14840000000000003         -1.9340157450642437E-005
  0.14950000000000002          8.2306260082987137E-006
  0.15060000000000001          2.5639141313149594E-005
  0.15170000000000000          1.8975993953063153E-005
  0.15280000000000005         -2.2341419025906362E-006
  0.15390000000000004         -1.6195483112824149E-005
  0.15500000000000003         -1.0971503797918558E-005
  0.15610000000000002          5.1531692406570073E-006
  0.15720000000000001          1.4108491086517461E-005
  0.15830000000000000          6.8841400207020342E-006
  0.15940000000000004         -8.1601410784060135E-006
  0.16050000000000003         -1.5374816939583980E-005
  0.16160000000000002         -8.5250267147785053E-006
  0.16270000000000001          3.9123556234699208E-006
  0.16380000000000000          8.9718460003496148E-006
  0.16490000000000005          3.1678191589890048E-006
  0.16600000000000004         -4.7165322030195966E-006
  0.16710000000000003         -4.4697962948703207E-006
  0.16820000000000002          3.6760591228812700E-006
  0.16930000000000001          9.5246468845289201E-006
  0.17040000000000000          5.0439298320270609E-006
  0.17150000000000004         -5.8283721955376677E-006
  0.17260000000000003         -1.0835663488251157E-005
  0.17370000000000002         -2.8183962967887055E-006
  0.17480000000000001          1.1487585652503185E-005
  0.17590000000000000          1.7468453734181821E-005
  0.17700000000000005          7.7573895396199077E-006
  0.17810000000000004         -9.4404213086818345E-006
  0.17920000000000003         -1.7936901713255793E-005
  0.18030000000000002         -9.7337542683817446E-006
  0.18140000000000001          6.7460005084285513E-006
  0.18250000000000000          1.5086519852047786E-005
  0.18360000000000004          7.5134539656573907E-006
  0.18470000000000003         -7.4158610914309975E-006
  0.18580000000000002         -1.3938771189714316E-005
  0.18690000000000001         -5.3617004596162587E-006
  0.18800000000000000          9.1616711870301515E-006
  0.18910000000000005          1.4095692677074112E-005
  0.19020000000000004          3.5552366171032190E-006
  0.19130000000000003         -1.2618644177564420E-005
  0.19240000000000002         -1.8868209735956043E-005
  0.19350000000000001         -9.5939640232245438E-006
  0.19460000000000005          5.7463867051410489E-006
  0.19570000000000004          1.2901668924314436E-005
  0.19680000000000003          7.2886773523350712E-006
  0.19790000000000002         -2.2139720385894179E-006
  0.19900000000000001         -3.5591804135037819E-006
  0.20010000000000000          5.2435239012993407E-006
  0.20120000000000005          1.4011789062351454E-005
  0.20230000000000004          1.1443595212767832E-005
  0.20340000000000003         -2.5304766495537478E-006
  0.20450000000000002         -1.6212614355026744E-005
  0.20560000000000000         -1.7749271137290634E-005
  0.20670000000000005         -6.6992060965276323E-006
  0.20780000000000004          6.1530313359980937E-006
  0.20890000000000003          1.0196676157647744E-005
