 -0.12000000000000000          0.0000000000000000     
 -0.11889999999999999          0.0000000000000000     
 -0.11780000000000000          0.0000000000000000     
 -0.11670000000000000          0.0000000000000000     
 -0.11559999999999999          0.0000000000000000     
 -0.11449999999999999          0.0000000000000000     
 -0.11340000000000000          0.0000000000000000     
 -0.11230000000000000          0.0000000000000000     
 -0.11119999999999999          0.0000000000000000     
 -0.11009999999999999          0.0000000000000000     
 -0.10900000000000000         -4.4562059201154977E-027
 -0.10790000000000000          8.4372741377429758E-027
 -0.10679999999999999          2.1483564256662537E-025
 -0.10569999999999999          3.4463639363350109E-025
 -0.10460000000000000         -2.8889143422806448E-024
 -0.10349999999999999         -1.0974916114499691E-023
 -0.10239999999999999          1.2226842315389962E-023
 -0.10130000000000000          1.5252648321642334E-022
 -0.10020000000000000          2.5971237180081483E-022
  -9.9099999999999994E-002    -6.6898696521527107E-022
  -9.7999999999999990E-002    -3.6722836775069383E-021
  -9.6899999999999986E-002    -4.3651391250899474E-021
  -9.5799999999999996E-002     1.2819686330818737E-020
  -9.4699999999999993E-002     5.6196931832142238E-020
  -9.3599999999999989E-002     6.1937636369094142E-020
  -9.2499999999999999E-002    -1.4382266858641919E-019
  -9.1399999999999995E-002    -6.2636783639990739E-019
  -9.0299999999999991E-002    -7.5951785883164943E-019
  -8.9200000000000002E-002     1.0058141949417636E-018
  -8.8099999999999984E-002     5.3248610423855833E-018
  -8.6999999999999994E-002     7.6447304293211771E-018
  -8.5899999999999990E-002    -3.4888923137935108E-018
  -8.4799999999999986E-002    -3.4838220275108057E-017
  -8.3699999999999997E-002    -6.1182579443607203E-017
  -8.2599999999999993E-002    -1.1499517815271394E-017
  -8.1499999999999989E-002     1.7242300612493064E-016
  -8.0399999999999999E-002     3.8686196986766758E-016
  -7.9299999999999995E-002     2.6332486148858804E-016
  -7.8199999999999992E-002    -5.9850749835969864E-016
  -7.7100000000000002E-002    -1.9280413820121824E-015
  -7.5999999999999984E-002    -2.1417541473515468E-015
  -7.4899999999999994E-002     9.7822035133386231E-016
  -7.3799999999999991E-002     7.4514496339168033E-015
  -7.2699999999999987E-002     1.1774320396711752E-014
  -7.1599999999999997E-002     3.9271632278591040E-015
  -7.0499999999999993E-002    -2.1009810305893349E-014
  -6.9399999999999989E-002    -4.8488478992603570E-014
  -6.8300000000000000E-002    -4.1450831211441858E-014
  -6.7199999999999996E-002     3.3040119305858401E-014
  -6.6099999999999992E-002     1.5173615402347407E-013
  -6.5000000000000002E-002     2.0357789076459049E-013
  -6.3899999999999985E-002     4.5131650153185099E-014
  -6.2799999999999995E-002    -3.4154206155975753E-013
  -6.1699999999999991E-002    -6.9718503973442703E-013
  -6.0599999999999994E-002    -5.4596691750896653E-013
  -5.9499999999999990E-002     4.0981167027595578E-013
  -5.8399999999999994E-002     1.7586288328375055E-012
  -5.7299999999999990E-002     2.2555709470323260E-012
  -5.6199999999999986E-002     6.0180853356239794E-013
  -5.5099999999999996E-002    -3.0754730359627835E-012
  -5.3999999999999992E-002    -6.2491904012640376E-012
  -5.2899999999999989E-002    -5.0477577846763655E-012
  -5.1799999999999985E-002     2.3918159119951099E-012
  -5.0699999999999995E-002     1.2463228366010881E-011
  -4.9599999999999991E-002     1.6330379756790414E-011
  -4.8499999999999988E-002     6.0271397248068403E-012
  -4.7399999999999998E-002    -1.6553928366969117E-011
  -4.6299999999999994E-002    -3.5748848326022653E-011
  -4.5199999999999990E-002    -3.0454874733187864E-011
  -4.4099999999999986E-002     7.1910290222465534E-012
  -4.2999999999999997E-002     5.6761543382188862E-011
  -4.1899999999999993E-002     7.5717584979706487E-011
  -4.0799999999999989E-002     3.1249169918368125E-011
  -3.9699999999999985E-002    -6.2290908542372847E-011
  -3.8599999999999995E-002    -1.3594490810842075E-010
  -3.7499999999999992E-002    -1.1018125301021087E-010
  -3.6399999999999988E-002     3.0946564755218731E-011
  -3.5299999999999984E-002     1.9701590359133547E-010
  -3.4199999999999994E-002     2.3622620526353444E-010
  -3.3099999999999991E-002     5.9976121291605011E-011
  -3.1999999999999987E-002    -2.4434843037823839E-010
  -3.0899999999999997E-002    -4.2889336526741317E-010
  -2.9799999999999993E-002    -2.6443289224964417E-010
  -2.8699999999999989E-002     2.2927917897597183E-010
  -2.7599999999999986E-002     7.0665701068506337E-010
  -2.6499999999999996E-002     7.0371669602664610E-010
  -2.5399999999999992E-002     3.3476499350371114E-011
  -2.4299999999999988E-002    -9.3963015146414364E-010
  -2.3199999999999985E-002    -1.4440917350810878E-009
  -2.2099999999999995E-002    -8.6608209493022059E-010
  -2.0999999999999991E-002     6.5247068858909074E-010
  -1.9899999999999987E-002     2.1139399120073676E-009
  -1.8799999999999983E-002     2.2910024988220812E-009
  -1.7699999999999994E-002     7.1403527535096600E-010
  -1.6599999999999990E-002    -1.7574731669967036E-009
  -1.5499999999999986E-002    -3.3706373248065802E-009
  -1.4399999999999996E-002    -2.7571473992793472E-009
  -1.3299999999999992E-002    -1.1751666306736297E-010
  -1.2199999999999989E-002     2.7226128018753570E-009
  -1.1099999999999985E-002     3.6212923770762018E-009
  -9.9999999999999950E-003     1.8781740607209940E-009
  -8.8999999999999913E-003    -1.0228140556733933E-009
  -7.7999999999999875E-003    -2.4969852852052554E-009
  -6.6999999999999837E-003    -1.0932780236672102E-009
  -5.5999999999999939E-003     1.9410153484500370E-009
  -4.4999999999999901E-003     3.3160616474958715E-009
  -3.3999999999999864E-003     4.3333048260763007E-010
  -2.2999999999999826E-003    -5.8268723179821791E-009
  -1.1999999999999927E-003    -1.0757204904621176E-008
  -9.9999999999988987E-005    -8.8162037670258542E-009
   1.0000000000000148E-003     1.7909123073422961E-009
   2.1000000000000185E-003     1.6381802581122429E-008
   3.2000000000000084E-003     2.5540167314375140E-008
   4.3000000000000121E-003     2.0918960785820673E-008
   5.4000000000000159E-003     1.5046612844571428E-009
   6.5000000000000058E-003    -2.4158593348033719E-008
   7.6000000000000234E-003    -4.1956813134902404E-008
   8.7000000000000133E-003    -4.0405954138122979E-008
   9.8000000000000032E-003    -1.7930368301222188E-008
   1.0900000000000021E-002     1.5654434193379529E-008
   1.2000000000000011E-002     4.4618047922995174E-008
   1.3100000000000001E-002     5.6200075704282426E-008
   1.4200000000000018E-002     4.6994848901249497E-008
   1.5300000000000008E-002     2.2790439757613967E-008
   1.6400000000000026E-002    -7.2533214989789485E-009
   1.7500000000000016E-002    -3.6824591376216631E-008
   1.8600000000000005E-002    -6.3564492336354306E-008
   1.9700000000000023E-002    -8.4111732689962082E-008
   2.0800000000000013E-002    -8.8283393040455849E-008
   2.1900000000000003E-002    -6.0094656362252863E-008
   2.3000000000000020E-002     1.0989090526436485E-008
   2.4100000000000010E-002     1.1425805013232093E-007
   2.5200000000000000E-002     2.1019295104451885E-007
   2.6300000000000018E-002     2.4211175286836806E-007
   2.7400000000000008E-002     1.6623101828372455E-007
   2.8500000000000025E-002    -1.5459917790394684E-008
   2.9600000000000015E-002    -2.4182378410841920E-007
   3.0700000000000005E-002    -4.1257743532696622E-007
   3.1800000000000023E-002    -4.3544849859245005E-007
   3.2900000000000013E-002    -2.7549168635232490E-007
   3.4000000000000002E-002     2.2187563786246756E-008
   3.5100000000000020E-002     3.4995053965758416E-007
   3.6200000000000010E-002     5.8484772580413846E-007
   3.7300000000000028E-002     6.3849142861727159E-007
   3.8400000000000017E-002     4.8481911107955966E-007
   3.9500000000000007E-002     1.5895345484295831E-007
   4.0600000000000025E-002    -2.6087064952662331E-007
   4.1700000000000015E-002    -6.7133163383914507E-007
   4.2800000000000005E-002    -9.5605150818300899E-007
   4.3900000000000022E-002    -1.0009481457018410E-006
   4.5000000000000012E-002    -7.2584077770443400E-007
   4.6100000000000002E-002    -1.3116391528456006E-007
   4.7200000000000020E-002     6.6314964897173923E-007
   4.8300000000000010E-002     1.4201200428942684E-006
   4.9400000000000027E-002     1.8493639117878047E-006
   5.0500000000000017E-002     1.7182600231535616E-006
   5.1600000000000007E-002     9.6376743385917507E-007
   5.2700000000000025E-002    -2.5209550358340493E-007
   5.3800000000000014E-002    -1.5777013686602004E-006
   5.4900000000000004E-002    -2.5888325581036042E-006
   5.6000000000000022E-002    -2.9373532015597448E-006
   5.7100000000000012E-002    -2.4678602130734362E-006
   5.8200000000000002E-002    -1.2587505580086145E-006
   5.9300000000000019E-002     4.1551595586497569E-007
   6.0400000000000009E-002     2.1691319034289336E-006
   6.1500000000000027E-002     3.5956231840827968E-006
   6.2600000000000017E-002     4.3416152948339004E-006
   6.3700000000000007E-002     4.1672296902106609E-006
   6.4800000000000024E-002     3.0060091376071796E-006
   6.5900000000000014E-002     1.0186382723986753E-006
   6.7000000000000004E-002    -1.3964680647404748E-006
   6.8100000000000022E-002    -3.6833455396845238E-006
   6.9200000000000012E-002    -5.3134108384256251E-006
   7.0300000000000029E-002    -6.0212305470486172E-006
   7.1400000000000019E-002    -5.9799808695970569E-006
   7.2500000000000009E-002    -5.8087516663363203E-006
   7.3600000000000027E-002    -6.3819470597081818E-006
   7.4700000000000016E-002    -8.5224373833625577E-006
   7.5800000000000006E-002    -1.2731467904814053E-005
   7.6900000000000024E-002    -1.9087052351096645E-005
   7.8000000000000014E-002    -2.7339454391039908E-005
   7.9100000000000004E-002    -3.7118745240150020E-005
   8.0200000000000021E-002    -4.8125246394192800E-005
   8.1300000000000011E-002    -6.0225956985959783E-005
   8.2400000000000029E-002    -7.3480579885654151E-005
   8.3500000000000019E-002    -8.8183944171760231E-005
   8.4600000000000009E-002    -1.0498404299141839E-004
   8.5700000000000026E-002    -1.2503768084570765E-004
   8.6800000000000016E-002    -1.5007957699708641E-004
   8.7900000000000006E-002    -1.8228893168270588E-004
   8.9000000000000024E-002    -2.2394632105715573E-004
   9.0100000000000013E-002    -2.7702178340405226E-004
   9.1200000000000003E-002    -3.4291512565687299E-004
   9.2300000000000021E-002    -4.2252149432897568E-004
   9.3400000000000011E-002    -5.1663769409060478E-004
   9.4500000000000028E-002    -6.2654499197378755E-004
   9.5600000000000018E-002    -7.5451459269970655E-004
   9.6700000000000008E-002    -9.0402533533051610E-004
   9.7800000000000026E-002    -1.0796438436955214E-003
   9.8900000000000016E-002    -1.2866856995970011E-003
  0.10000000000000001         -1.5308791771531105E-003
  0.10110000000000002         -1.8182119820266962E-003
  0.10220000000000001         -2.1549954544752836E-003
  0.10330000000000003         -2.5480380281805992E-003
  0.10440000000000002         -3.0047544278204441E-003
  0.10550000000000001         -3.5331633407622576E-003
  0.10660000000000003         -4.1418028995394707E-003
  0.10770000000000002         -4.8397202044725418E-003
  0.10880000000000001         -5.6366571225225925E-003
  0.10990000000000003         -6.5433168783783913E-003
  0.11100000000000002         -7.5715668499469757E-003
  0.11210000000000001         -8.7343566119670868E-003
  0.11320000000000002         -1.0045310482382774E-002
  0.11430000000000001         -1.1518158949911594E-002
  0.11540000000000003         -1.3166314922273159E-002
  0.11650000000000002         -1.5002758242189884E-002
  0.11760000000000001         -1.7040157690644264E-002
  0.11870000000000003         -1.9290976226329803E-002
  0.11980000000000002         -2.1767359226942062E-002
  0.12090000000000001         -2.4480681866407394E-002
  0.12200000000000003         -2.7440816164016724E-002
  0.12310000000000001         -3.0655540525913239E-002
  0.12420000000000003         -3.4130021929740906E-002
  0.12530000000000002         -3.7866398692131042E-002
  0.12640000000000001         -4.1863352060317993E-002
  0.12750000000000003         -4.6115532517433167E-002
  0.12860000000000002         -5.0612915307283401E-002
  0.12970000000000001         -5.5340174585580826E-002
  0.13080000000000003         -6.0276232659816742E-002
  0.13190000000000002         -6.5394103527069092E-002
  0.13300000000000001         -7.0660553872585297E-002
  0.13410000000000000         -7.6035812497138977E-002
  0.13520000000000004         -8.1473343074321747E-002
  0.13630000000000003         -8.6919441819190979E-002
  0.13740000000000002         -9.2312522232532501E-002
  0.13850000000000001         -9.7582720220088959E-002
  0.13960000000000000        -0.10265210270881653     
  0.14070000000000005        -0.10743527859449387     
  0.14180000000000004        -0.11183993518352509     
  0.14290000000000003        -0.11576745659112930     
  0.14400000000000002        -0.11911436170339584     
  0.14510000000000001        -0.12177318334579468     
  0.14620000000000000        -0.12363339960575104     
  0.14730000000000004        -0.12458296865224838     
  0.14840000000000003        -0.12451040744781494     
  0.14950000000000002        -0.12330674380064011     
  0.15060000000000001        -0.12086756527423859     
  0.15170000000000000        -0.11709532141685486     
  0.15280000000000005        -0.11190084367990494     
  0.15390000000000004        -0.10520567744970322     
  0.15500000000000003         -9.6944436430931091E-002
  0.15610000000000002         -8.7067164480686188E-002
  0.15720000000000001         -7.5541697442531586E-002
  0.15830000000000000         -6.2355596572160721E-002
  0.15940000000000004         -4.7518432140350342E-002
  0.16050000000000003         -3.1063433736562729E-002
  0.16160000000000002         -1.3048857450485229E-002
  0.16270000000000001          6.4412839710712433E-003
  0.16380000000000000          2.7297198772430420E-002
  0.16490000000000005          4.9382694065570831E-002
  0.16600000000000004          7.2535023093223572E-002
  0.16710000000000003          9.6565969288349152E-002
  0.16820000000000002         0.12126356363296509     
  0.16930000000000001         0.14639419317245483     
  0.17040000000000000         0.17170466482639313     
  0.17150000000000004         0.19692499935626984     
  0.17260000000000003         0.22177173197269440     
  0.17370000000000002         0.24595132470130920     
  0.17480000000000001         0.26916506886482239     
  0.17590000000000000         0.29111367464065552     
  0.17700000000000005         0.31150197982788086     
  0.17810000000000004         0.33004406094551086     
  0.17920000000000003         0.34646770358085632     
  0.18030000000000002         0.36051911115646362     
  0.18140000000000001         0.37196761369705200     
  0.18250000000000000         0.38060992956161499     
  0.18360000000000004         0.38627430796623230     
  0.18470000000000003         0.38882452249526978     
  0.18580000000000002         0.38816285133361816     
  0.18690000000000001         0.38423234224319458     
  0.18800000000000000         0.37701752781867981     
  0.18910000000000005         0.36654558777809143     
  0.19020000000000004         0.35288718342781067     
  0.19130000000000003         0.33615553379058838     
  0.19240000000000002         0.31650525331497192     
  0.19350000000000001         0.29413014650344849     
  0.19460000000000005         0.26926103234291077     
  0.19570000000000004         0.24216172099113464     
  0.19680000000000003         0.21312426030635834     
  0.19790000000000002         0.18246506154537201     
  0.19900000000000001         0.15052051842212677     
  0.20010000000000000         0.11764142662286758     
  0.20120000000000005          8.4187172353267670E-002
  0.20230000000000004          5.0519652664661407E-002
  0.20340000000000003          1.6997072845697403E-002
  0.20450000000000002         -1.6029199585318565E-002
  0.20560000000000000         -4.8220679163932800E-002
  0.20670000000000005         -7.9258352518081665E-002
  0.20780000000000004        -0.10884492099285126     
  0.20890000000000003        -0.13670884072780609     
