 -0.12000000000000000          0.0000000000000000
 -0.11889999999999999          0.0000000000000000
 -0.11780000000000000          0.0000000000000000
 -0.11670000000000000          0.0000000000000000
 -0.11559999999999999          0.0000000000000000
 -0.11449999999999999          0.0000000000000000
 -0.11340000000000000          0.0000000000000000
 -0.11230000000000000          0.0000000000000000
 -0.11119999999999999          0.0000000000000000
 -0.11009999999999999          0.0000000000000000
 -0.10900000000000000          0.0000000000000000
 -0.10790000000000000         -2.1988826713840481E-032
 -0.10679999999999999          1.3743027716409839E-033
 -0.10569999999999999          1.4567598212198097E-031
 -0.10460000000000000          9.0566479476617503E-031
 -0.10349999999999999         -5.7885592422062010E-030
 -0.10239999999999999         -8.9645711930431963E-030
 -0.10130000000000000          4.7468376531402589E-030
 -0.10020000000000000         -3.2204010249364753E-029
  -9.9099999999999994E-002    -1.3951910777389942E-028
  -9.7999999999999990E-002     2.0349695978248788E-028
  -9.6899999999999986E-002     7.2664547170453210E-028
  -9.5799999999999996E-002     2.3305890109323824E-027
  -9.4699999999999993E-002     1.5928103159983310E-027
  -9.3599999999999989E-002    -7.7913280196031855E-027
  -9.2499999999999999E-002    -2.2939705345277701E-026
  -9.1399999999999995E-002    -2.9441724956214696E-026
  -9.0299999999999991E-002     6.2048322886321159E-026
  -8.9200000000000002E-002     1.5196622641153393E-026
  -8.8099999999999984E-002     1.4458834316569620E-026
  -8.6999999999999994E-002    -3.5519026786161355E-025
  -8.5899999999999990E-002     1.2983245341450429E-026
  -8.4799999999999986E-002     5.6561238157494709E-025
  -8.3699999999999997E-002     1.1182414931565405E-024
  -8.2599999999999993E-002    -1.6493310535439136E-024
  -8.1499999999999989E-002     2.2234995191045009E-024
  -8.0399999999999999E-002     4.6206856991551329E-024
  -7.9299999999999995E-002     7.0178714847753122E-024
  -7.8199999999999992E-002    -3.8657493627326981E-024
  -7.7100000000000002E-002    -2.0651952513797270E-023
  -7.5999999999999984E-002    -3.7438152114987768E-023
  -7.4899999999999994E-002     4.0216939897177749E-023
  -7.3799999999999991E-002     1.2082332463884336E-022
  -7.2699999999999987E-002     1.3059872489327385E-022
  -7.1599999999999997E-002     1.6398445436193059E-022
  -7.0499999999999993E-002     5.5708233788778819E-023
  -6.9399999999999989E-002    -1.8242476590818109E-022
  -6.8300000000000000E-002    -1.8445456181529993E-022
  -6.7199999999999996E-002    -1.8648433247886980E-022
  -6.6099999999999992E-002     3.6848639515959727E-025
  -6.5000000000000002E-002     1.0371930055200400E-021
  -6.3899999999999985E-002     7.5183942312527453E-022
  -6.2799999999999995E-002     1.0331336408977431E-021
  -6.1699999999999991E-002     1.3144277576960157E-021
  -6.0599999999999994E-002    -1.2375168234192941E-021
  -5.9499999999999990E-002    -2.3728419041165189E-021
  -5.8399999999999994E-002     2.6948457874630099E-022
  -5.7299999999999990E-002     8.2005248055957999E-021
  -5.6199999999999986E-002     1.4620502952992860E-020
  -5.5099999999999996E-002     4.0410495187536011E-021
  -5.3999999999999992E-002    -1.2582646578740443E-020
  -5.2899999999999989E-002    -2.4673159467103048E-020
  -5.1799999999999985E-002    -3.9785794494886613E-020
  -5.0699999999999995E-002    -2.4677214590809119E-020
  -4.9599999999999991E-002     2.7452353847136242E-020
  -4.8499999999999988E-002     9.7714645428084557E-020
  -4.7399999999999998E-002     1.3171147779832989E-019
  -4.6299999999999994E-002     6.2956167121785413E-020
  -4.5199999999999990E-002    -8.8907472500473475E-020
  -4.4099999999999986E-002    -2.7703659072048095E-019
  -4.2999999999999997E-002    -2.9592691436935444E-019
  -4.1899999999999993E-002     1.1571907802795936E-020
  -4.0799999999999989E-002     4.2786713345644939E-019
  -3.9699999999999985E-002     7.4745451527211749E-019
  -3.8599999999999995E-002     6.0767939651928512E-019
  -3.7499999999999992E-002    -2.0905097806626559E-019
  -3.6399999999999988E-002    -1.0620468635613076E-018
  -3.5299999999999984E-002    -1.3106184633438254E-018
  -3.4199999999999994E-002    -3.5034154340008340E-019
  -3.3099999999999991E-002     1.3352446641552948E-018
  -3.1999999999999987E-002     2.1504599023525898E-018
  -3.0899999999999997E-002     8.7176978347269863E-019
  -2.9799999999999993E-002    -1.9058923737227114E-018
  -2.8699999999999989E-002    -3.7164761700864504E-018
  -2.7599999999999986E-002    -2.0455756754275504E-018
  -2.6499999999999996E-002     3.3002246169842003E-018
  -2.5399999999999992E-002     8.2108404328432809E-018
  -2.4299999999999988E-002     7.4156907351501442E-018
  -2.3199999999999985E-002    -1.8897532527911893E-018
  -2.2099999999999995E-002    -1.5450342524700243E-017
  -2.0999999999999991E-002    -2.1274302842004397E-017
  -1.9899999999999987E-002    -9.7875492507653083E-018
  -1.8799999999999983E-002     1.9106623107249984E-017
  -1.7699999999999994E-002     4.5679805248599674E-017
  -1.6599999999999990E-002     4.5948447041777295E-017
  -1.5499999999999986E-002     8.8878439236454688E-018
  -1.4399999999999996E-002    -4.8674834340752074E-017
  -1.3299999999999992E-002    -8.9990586878754684E-017
  -1.2199999999999989E-002    -7.6376266022205717E-017
  -1.1099999999999985E-002    -8.6889698520530197E-019
  -9.9999999999999950E-003     1.0016935533613001E-016
  -8.8999999999999913E-003     1.6097712931802208E-016
  -7.7999999999999875E-003     1.3513463055332621E-016
  -6.6999999999999837E-003     1.0263259993863942E-017
  -5.5999999999999939E-003    -1.5251759951555657E-016
  -4.4999999999999901E-003    -2.5959471367733732E-016
  -3.3999999999999864E-003    -2.1658118947568187E-016
  -2.2999999999999826E-003    -9.5511038085700881E-018
  -1.1999999999999927E-003     2.5008806586360828E-016
  -9.9999999999988987E-005     3.8516750692646495E-016
   1.0000000000000148E-003     2.3863358637832917E-016
   2.1000000000000185E-003    -1.6475648444955237E-016
   3.2000000000000084E-003    -5.5576796284670035E-016
   4.3000000000000121E-003    -5.2900140407610924E-016
   5.4000000000000159E-003     1.3603717062840527E-016
   6.5000000000000058E-003     1.1260142598608185E-015
   7.6000000000000234E-003     1.6084683447491069E-015
   8.7000000000000133E-003     7.3546473205727929E-016
   9.8000000000000032E-003    -1.4682392874740789E-015
   1.0900000000000021E-002    -3.6194306524074595E-015
   1.2000000000000011E-002    -3.6229335571608297E-015
   1.3100000000000001E-002    -4.3275495610373442E-016
   1.4200000000000018E-002     4.6018359817754685E-015
   1.5300000000000008E-002     7.7982037466990325E-015
   1.6400000000000026E-002     5.9131530984082685E-015
   1.7500000000000016E-002    -7.7479818927069042E-016
   1.8600000000000005E-002    -7.7969721607937248E-015
   1.9700000000000023E-002    -9.8553232089938769E-015
   2.0800000000000013E-002    -5.7646004601188093E-015
   2.1900000000000003E-002     3.4371061752362609E-017
   2.3000000000000020E-002     2.2435456965131219E-015
   2.4100000000000010E-002     1.6303974983579287E-015
   2.5200000000000000E-002     5.8263389975782807E-015
   2.6300000000000018E-002     1.9207207303589477E-014
   2.7400000000000008E-002     3.1003614931433832E-014
   2.8500000000000025E-002     1.8686492105199001E-014
   2.9600000000000015E-002    -2.9033456953701797E-014
   3.0700000000000005E-002    -8.8463565357625729E-014
   3.1800000000000023E-002    -1.0165337267688951E-013
   3.2900000000000013E-002    -2.1731290947507934E-014
   3.4000000000000002E-002     1.2406975403653209E-013
   3.5100000000000020E-002     2.2096292352259683E-013
   3.6200000000000010E-002     1.5408708380418301E-013
   3.7300000000000028E-002    -8.2623273186307328E-014
   3.8400000000000017E-002    -3.2230449320720667E-013
   3.9500000000000007E-002    -3.2847563644772260E-013
   4.0600000000000025E-002    -1.7160169227432853E-014
   4.1700000000000015E-002     3.9783850042454660E-013
   4.2800000000000005E-002     5.1708745792133914E-013
   4.3900000000000022E-002     1.0529408291451436E-013
   4.5000000000000012E-002    -5.9645577322672838E-013
   4.6100000000000002E-002    -9.6784537849392560E-013
   4.7200000000000020E-002    -4.8719052880494274E-013
   4.8300000000000010E-002     7.8014970785605930E-013
   4.9400000000000027E-002     1.8763679845990033E-012
   5.0500000000000017E-002     1.6970945048572217E-012
   5.1600000000000007E-002    -1.6963107351067319E-013
   5.2700000000000025E-002    -2.6004250835987008E-012
   5.3800000000000014E-002    -3.5576693500904977E-012
   5.4900000000000004E-002    -1.6216861837767271E-012
   5.6000000000000022E-002     2.2568474866702104E-012
   5.7100000000000012E-002     5.3399810615029075E-012
   5.8200000000000002E-002     4.7344871079157969E-012
   5.9300000000000019E-002     4.7839293290663498E-013
   6.0400000000000009E-002    -4.3797968724001990E-012
   6.1500000000000027E-002    -5.6761162610385885E-012
   6.2600000000000017E-002    -2.7514286422142264E-012
   6.3700000000000007E-002     2.8351548539418125E-012
   6.4800000000000024E-002     7.0020608235188408E-012
   6.5900000000000014E-002     4.9578752561729722E-012
   6.7000000000000004E-002    -2.8917792639637785E-012
   6.8100000000000022E-002    -1.0766785032978454E-011
   6.9200000000000012E-002    -8.7040452970144067E-012
   7.0300000000000029E-002     1.7753563376354808E-012
   7.1400000000000019E-002     1.0023836795325369E-011
   7.2500000000000009E-002     1.4621717031593207E-011
   7.3600000000000027E-002     1.1512774240884927E-011
   7.4700000000000016E-002     4.9419669745365269E-013
   7.5800000000000006E-002    -1.6405904412764016E-011
   7.6900000000000024E-002    -2.3165448725936955E-011
   7.8000000000000014E-002    -1.2483236666582798E-011
   7.9100000000000004E-002     1.1787322853895610E-011
   8.0200000000000021E-002     3.5449448931856864E-011
   8.1300000000000011E-002     4.0452950017533240E-011
   8.2400000000000029E-002     1.5440400694122225E-011
   8.3500000000000019E-002    -1.7684595107758661E-011
   8.4600000000000009E-002    -4.5130874731791337E-011
   8.5700000000000026E-002    -3.4854286123930933E-011
   8.6800000000000016E-002     5.4383528930168623E-012
   8.7900000000000006E-002     3.7618547166218264E-011
   8.9000000000000024E-002     6.0063801154974783E-011
   9.0100000000000013E-002     5.9794211249020179E-011
   9.1200000000000003E-002     3.5998527075919995E-011
   9.2300000000000021E-002     9.7691108674746729E-012
   9.3400000000000011E-002    -6.7253702606961951E-012
   9.4500000000000028E-002    -2.1274943612370478E-012
   9.5600000000000018E-002     3.9787631522791855E-011
   9.6700000000000008E-002     6.0610405583361171E-011
   9.7800000000000026E-002     4.0870952455751564E-011
   9.8900000000000016E-002    -2.7543172603783361E-011
  0.10000000000000001          1.4371965423309874E-011
  0.10110000000000002          1.7959628229036184E-010
  0.10220000000000001          3.7078043413352191E-010
  0.10330000000000003          5.3275983624700984E-010
  0.10440000000000002          5.6494009470497986E-010
  0.10550000000000001          1.1361858676117720E-010
  0.10660000000000003         -3.7015274179097446E-010
  0.10770000000000002         -3.9638214932580240E-010
  0.10880000000000001         -9.8113725477411151E-011
  0.10990000000000003          1.3525514042100895E-010
  0.11100000000000002          2.5829474670224783E-010
  0.11210000000000001          1.7896767401381908E-011
  0.11320000000000002         -2.6793089968890627E-010
  0.11430000000000001         -2.8118035677593411E-010
  0.11540000000000003          5.8171434336173888E-010
  0.11650000000000002          1.4121592784022141E-009
  0.11760000000000001          1.4443396478824866E-009
  0.11870000000000003          6.9123529122805394E-010
  0.11980000000000002         -6.8359061466960469E-011
  0.12090000000000001         -3.9961622899653548E-010
  0.12200000000000003         -3.4796604486686533E-010
  0.12310000000000001         -5.2346427192873080E-010
  0.12420000000000003         -5.8214333353845404E-010
  0.12530000000000002         -4.1367390068991483E-010
  0.12640000000000001          5.0088502789868983E-011
  0.12750000000000003          4.0027667291830937E-010
  0.12860000000000002          9.2893864822585215E-010
  0.12970000000000001          1.4024360561748495E-009
  0.13080000000000003          1.4021666050467729E-009
  0.13190000000000002          1.0871342714935395E-009
  0.13300000000000001          2.5898980182681441E-010
  0.13410000000000000         -9.0176494049742928E-010
  0.13520000000000004         -1.7672266983126406E-009
  0.13630000000000003         -2.7235478317066963E-009
  0.13740000000000002         -2.6998856483828604E-009
  0.13850000000000001         -2.7281430448056199E-009
  0.13960000000000000         -2.0879349360569677E-009
  0.14070000000000005         -8.1171103172295034E-010
  0.14180000000000004          6.5921146319425361E-010
  0.14290000000000003          1.1955803014274125E-009
  0.14400000000000002          1.0569937147764108E-009
  0.14510000000000001          3.4729091824559077E-010
  0.14620000000000000         -2.7155247495080914E-010
  0.14730000000000004         -1.2458109543977969E-010
  0.14840000000000003          5.4158677542659461E-010
  0.14950000000000002          9.2219665237536219E-010
  0.15060000000000001          6.5381089431326700E-010
  0.15170000000000000          3.5946520759999601E-010
  0.15280000000000005          1.6895883303558179E-010
  0.15390000000000004          2.8997038103995010E-010
  0.15500000000000003          5.1482118568202395E-010
  0.15610000000000002          6.6179250968190217E-010
  0.15720000000000001          3.1552715995530889E-010
  0.15830000000000000         -2.1245698256233680E-010
  0.15940000000000004         -2.9912408661125767E-010
  0.16050000000000003         -2.2353618955861521E-011
  0.16160000000000002          2.2845701719287348E-010
  0.16270000000000001          1.1990797244010309E-011
  0.16380000000000000         -7.4676306804910553E-011
  0.16490000000000005         -3.1544288014995203E-011
  0.16600000000000004          2.4522617270150704E-010
  0.16710000000000003          3.2729791099583849E-010
  0.16820000000000002          1.6275131242693419E-010
  0.16930000000000001         -4.3013242967404608E-010
  0.17040000000000000         -1.0749358070327730E-009
  0.17150000000000004         -1.0318037535483882E-009
  0.17260000000000003          8.2170992232732942E-011
  0.17370000000000002          1.4168044515372458E-009
  0.17480000000000001          1.5702656952498728E-009
  0.17590000000000000          4.5899678502436814E-010
  0.17700000000000005         -2.1498294255906103E-009
  0.17810000000000004         -3.6878127218642476E-009
  0.17920000000000003         -3.1944398237726546E-009
  0.18030000000000002         -8.7089924161176668E-010
  0.18140000000000001          7.5172612579166298E-010
  0.18250000000000000         -1.5673129460935797E-010
  0.18360000000000004         -1.9867625322689264E-009
  0.18470000000000003         -2.8952200636922498E-009
  0.18580000000000002         -1.8956305414263852E-009
  0.18690000000000001          1.9427176534136947E-010
  0.18800000000000000          1.4404798465150748E-009
  0.18910000000000005          1.2329376408715120E-009
  0.19020000000000004          6.4881822137152767E-011
  0.19130000000000003         -1.3368124385237934E-009
  0.19240000000000002         -2.0635515518563352E-009
  0.19350000000000001         -1.3365401008158528E-009
  0.19460000000000005         -1.6821163906222125E-010
  0.19570000000000004          3.5112121543612318E-010
  0.19680000000000003         -4.4051709502390679E-010
  0.19790000000000002         -1.8162514825448284E-009
  0.19900000000000001         -2.6727895452438588E-009
  0.20010000000000000         -2.4779545082509458E-009
  0.20120000000000005         -1.6990234774638679E-009
  0.20230000000000004         -1.1796905674543723E-009
  0.20340000000000003         -1.4261725134190328E-009
  0.20450000000000002         -2.2567505642001606E-009
  0.20560000000000000         -3.1911679965190842E-009
  0.20670000000000005         -3.6712886064549366E-009
  0.20780000000000004         -3.6711522710675126E-009
  0.20890000000000003         -3.3854576919623014E-009
