 -0.12000000000000000          0.0000000000000000
 -0.11889999999999999          0.0000000000000000
 -0.11780000000000000          0.0000000000000000
 -0.11670000000000000         -1.7426069268133837E-012
 -0.11559999999999999         -3.0767560808137029E-012
 -0.11449999999999999          1.7930163647220110E-012
 -0.11340000000000000         -2.3394313829888658E-012
 -0.11230000000000000         -6.2024878288990948E-011
 -0.11119999999999999         -1.8189413864000414E-010
 -0.11009999999999999         -2.1507799707887187E-010
 -0.10900000000000000          7.5649875252992160E-011
 -0.10790000000000000          6.7871769315885899E-010
 -0.10679999999999999          1.0274628925444063E-009
 -0.10569999999999999          2.9057017902900384E-010
 -0.10460000000000000         -1.6550151249461464E-009
 -0.10349999999999999         -3.4579301644299676E-009
 -0.10239999999999999         -2.9432802861606433E-009
 -0.10130000000000000          7.9153250620578319E-010
 -0.10020000000000000          5.6653077784574180E-009
  -9.9099999999999994E-002     7.5087429607378908E-009
  -9.7999999999999990E-002     3.5892229188760894E-009
  -9.6899999999999986E-002    -4.2618126805393786E-009
  -9.5799999999999996E-002    -1.0423998553221736E-008
  -9.4699999999999993E-002    -1.0226015589864801E-008
  -9.3599999999999989E-002    -4.3309515973533053E-009
  -9.2499999999999999E-002     1.9630836955997211E-009
  -9.1399999999999995E-002     4.3192831533644949E-009
  -9.0299999999999991E-002     4.0367069686908508E-009
  -8.9200000000000002E-002     6.1163372144790173E-009
  -8.8099999999999984E-002     1.1950328726584303E-008
  -8.6999999999999994E-002     1.4768389178243524E-008
  -8.5899999999999990E-002     4.6446277934819591E-009
  -8.4799999999999986E-002    -1.9937614226250844E-008
  -8.3699999999999997E-002    -4.5625380806768590E-008
  -8.2599999999999993E-002    -5.1769809772395092E-008
  -8.1499999999999989E-002    -2.7625054244140301E-008
  -8.0399999999999999E-002     1.6303353334023996E-008
  -7.9299999999999995E-002     5.4569905927337459E-008
  -7.8199999999999992E-002     6.6078072791242448E-008
  -7.7100000000000002E-002     4.8473168590135174E-008
  -7.5999999999999984E-002     1.4200067788294746E-008
  -7.4899999999999994E-002    -2.6569948019528056E-008
  -7.3799999999999991E-002    -7.7269866949336574E-008
  -7.2699999999999987E-002    -1.4819259774867533E-007
  -7.1599999999999997E-002    -2.4006988041946897E-007
  -7.0499999999999993E-002    -3.3880277783282509E-007
  -6.9399999999999989E-002    -4.3114422965118138E-007
  -6.8300000000000000E-002    -5.2681190254588728E-007
  -6.7199999999999996E-002    -6.6159077505290043E-007
  -6.6099999999999992E-002    -8.7315140717691975E-007
  -6.5000000000000002E-002    -1.1710167200362775E-006
  -6.3899999999999985E-002    -1.5324686728490633E-006
  -6.2799999999999995E-002    -1.9328683720232220E-006
  -6.1699999999999991E-002    -2.3832722035876941E-006
  -6.0599999999999994E-002    -2.9378040835581487E-006
  -5.9499999999999990E-002    -3.6619117054215167E-006
  -5.8399999999999994E-002    -4.5930828491691500E-006
  -5.7299999999999990E-002    -5.7352822295797523E-006
  -5.6199999999999986E-002    -7.0945279730949551E-006
  -5.5099999999999996E-002    -8.7191383499884978E-006
  -5.3999999999999992E-002    -1.0701214705477469E-005
  -5.2899999999999989E-002    -1.3136130291968584E-005
  -5.1799999999999985E-002    -1.6083713489933871E-005
  -5.0699999999999995E-002    -1.9577515558921732E-005
  -4.9599999999999991E-002    -2.3680413505644538E-005
  -4.8499999999999988E-002    -2.8534286684589460E-005
  -4.7399999999999998E-002    -3.4353070077486336E-005
  -4.6299999999999994E-002    -4.1364506614627317E-005
  -4.5199999999999990E-002    -4.9759873945731670E-005
  -4.4099999999999986E-002    -5.9704983868869022E-005
  -4.2999999999999997E-002    -7.1403264882974327E-005
  -4.1899999999999993E-002    -8.5146850324235857E-005
  -4.0799999999999989E-002    -1.0130359441973269E-004
  -3.9699999999999985E-002    -1.2025687465211377E-004
  -3.8599999999999995E-002    -1.4236847346182913E-004
  -3.7499999999999992E-002    -1.6801354649942368E-004
  -3.6399999999999988E-002    -1.9765907200053334E-004
  -3.5299999999999984E-002    -2.3190565116237849E-004
  -3.4199999999999994E-002    -2.7144490741193295E-004
  -3.3099999999999991E-002    -3.1697301892563701E-004
  -3.1999999999999987E-002    -3.6915065720677376E-004
  -3.0899999999999997E-002    -4.2865757131949067E-004
  -2.9799999999999993E-002    -4.9629213754087687E-004
  -2.8699999999999989E-002    -5.7301495689898729E-004
  -2.7599999999999986E-002    -6.5988965798169374E-004
  -2.6499999999999996E-002    -7.5797713361680508E-004
  -2.5399999999999992E-002    -8.6829060455784202E-004
  -2.4299999999999988E-002    -9.9185388535261154E-004
  -2.3199999999999985E-002    -1.1297975433990359E-003
  -2.2099999999999995E-002    -1.2833825312554836E-003
  -2.0999999999999991E-002    -1.4539159601554275E-003
  -1.9899999999999987E-002    -1.6426355578005314E-003
  -1.8799999999999983E-002    -1.8506766064092517E-003
  -1.7699999999999994E-002    -2.0791434217244387E-003
  -1.6599999999999990E-002    -2.3291970137506723E-003
  -1.5499999999999986E-002    -2.6020414661616087E-003
  -1.4399999999999996E-002    -2.8987966943532228E-003
  -1.3299999999999992E-002    -3.2203653827309608E-003
  -1.2199999999999989E-002    -3.5674122627824545E-003
  -1.1099999999999985E-002    -3.9404616691172123E-003
  -9.9999999999999950E-003    -4.3399850837886333E-003
  -8.8999999999999913E-003    -4.7663641162216663E-003
  -7.7999999999999875E-003    -5.2197286859154701E-003
  -6.6999999999999837E-003    -5.6998175568878651E-003
  -5.5999999999999939E-003    -6.2059760093688965E-003
  -4.4999999999999901E-003    -6.7372815683484077E-003
  -3.3999999999999864E-003    -7.2926394641399384E-003
  -2.2999999999999826E-003    -7.8707328066229820E-003
  -1.1999999999999927E-003    -8.4698563441634178E-003
  -9.9999999999988987E-005    -9.0878000482916832E-003
   1.0000000000000148E-003    -9.7219096496701241E-003
   2.1000000000000185E-003    -1.0369258932769299E-002
   3.2000000000000084E-003    -1.1026776395738125E-002
   4.3000000000000121E-003    -1.1691189371049404E-002
   5.4000000000000159E-003    -1.2358867563307285E-002
   6.5000000000000058E-003    -1.3025746680796146E-002
   7.6000000000000234E-003    -1.3687453232705593E-002
   8.7000000000000133E-003    -1.4339557848870754E-002
   9.8000000000000032E-003    -1.4977734535932541E-002
   1.0900000000000021E-002    -1.5597710385918617E-002
   1.2000000000000011E-002    -1.6195137053728104E-002
   1.3100000000000001E-002    -1.6765555366873741E-002
   1.4200000000000018E-002    -1.7304565757513046E-002
   1.5300000000000008E-002    -1.7808116972446442E-002
   1.6400000000000026E-002    -1.8272656947374344E-002
   1.7500000000000016E-002    -1.8695056438446045E-002
   1.8600000000000005E-002    -1.9072469323873520E-002
   1.9700000000000023E-002    -1.9402299076318741E-002
   2.0800000000000013E-002    -1.9682396203279495E-002
   2.1900000000000003E-002    -1.9911292940378189E-002
   2.3000000000000020E-002    -2.0088285207748413E-002
   2.4100000000000010E-002    -2.0213291049003601E-002
   2.5200000000000000E-002    -2.0286615937948227E-002
   2.6300000000000018E-002    -2.0308893173933029E-002
   2.7400000000000008E-002    -2.0281225442886353E-002
   2.8500000000000025E-002    -2.0205328240990639E-002
   2.9600000000000015E-002    -2.0083490759134293E-002
   3.0700000000000005E-002    -1.9918305799365044E-002
   3.1800000000000023E-002    -1.9712369889020920E-002
   3.2900000000000013E-002    -1.9468186423182487E-002
   3.4000000000000002E-002    -1.9188245758414268E-002
   3.5100000000000020E-002    -1.8875097855925560E-002
   3.6200000000000010E-002    -1.8531212583184242E-002
   3.7300000000000028E-002    -1.8158663064241409E-002
   3.8400000000000017E-002    -1.7758810892701149E-002
   3.9500000000000007E-002    -1.7332252115011215E-002
   4.0600000000000025E-002    -1.6878945752978325E-002
   4.1700000000000015E-002    -1.6398321837186813E-002
   4.2800000000000005E-002    -1.5889151021838188E-002
   4.3900000000000022E-002    -1.5349263325333595E-002
   4.5000000000000012E-002    -1.4775359071791172E-002
   4.6100000000000002E-002    -1.4163129031658173E-002
   4.7200000000000020E-002    -1.3507556170225143E-002
   4.8300000000000010E-002    -1.2803153134882450E-002
   4.9400000000000027E-002    -1.2043954804539680E-002
   5.0500000000000017E-002    -1.1223384179174900E-002
   5.1600000000000007E-002    -1.0334251448512077E-002
   5.2700000000000025E-002    -9.3690576031804085E-003
   5.3800000000000014E-002    -8.3204712718725204E-003
   5.4900000000000004E-002    -7.1816849522292614E-003
   5.6000000000000022E-002    -5.9465081430971622E-003
   5.7100000000000012E-002    -4.6093193814158440E-003
   5.8200000000000002E-002    -3.1651707831770182E-003
   5.9300000000000019E-002    -1.6101672081276774E-003
   6.0400000000000009E-002     5.8044599427375942E-005
   6.1500000000000027E-002     1.8399615073576570E-003
   6.2600000000000017E-002     3.7342000287026167E-003
   6.3700000000000007E-002     5.7376180775463581E-003
   6.4800000000000024E-002     7.8453142195940018E-003
   6.5900000000000014E-002     1.0050394572317600E-002
   6.7000000000000004E-002     1.2343694455921650E-002
   6.8100000000000022E-002     1.4713709242641926E-002
   6.9200000000000012E-002     1.7146810889244080E-002
   7.0300000000000029E-002     1.9627597182989120E-002
   7.1400000000000019E-002     2.2139098495244980E-002
   7.2500000000000009E-002     2.4662798270583153E-002
   7.3600000000000027E-002     2.7178656309843063E-002
   7.4700000000000016E-002     2.9665350914001465E-002
   7.5800000000000006E-002     3.2100740820169449E-002
   7.6900000000000024E-002     3.4462399780750275E-002
   7.8000000000000014E-002     3.6727942526340485E-002
   7.9100000000000004E-002     3.8875203579664230E-002
   8.0200000000000021E-002     4.0882430970668793E-002
   8.1300000000000011E-002     4.2728666216135025E-002
   8.2400000000000029E-002     4.4394265860319138E-002
   8.3500000000000019E-002     4.5861374586820602E-002
   8.4600000000000009E-002     4.7114167362451553E-002
   8.5700000000000026E-002     4.8138901591300964E-002
   8.6800000000000016E-002     4.8924017697572708E-002
   8.7900000000000006E-002     4.9460455775260925E-002
   8.9000000000000024E-002     4.9741994589567184E-002
   9.0100000000000013E-002     4.9765445291996002E-002
   9.1200000000000003E-002     4.9530569463968277E-002
   9.2300000000000021E-002     4.9039833247661591E-002
   9.3400000000000011E-002     4.8298288136720657E-002
   9.4500000000000028E-002     4.7313619405031204E-002
   9.5600000000000018E-002     4.6096261590719223E-002
   9.6700000000000008E-002     4.4659268110990524E-002
   9.7800000000000026E-002     4.3017927557229996E-002
   9.8900000000000016E-002     4.1189245879650116E-002
  0.10000000000000001          3.9191640913486481E-002
  0.10110000000000002          3.7044815719127655E-002
  0.10220000000000001          3.4769706428050995E-002
  0.10330000000000003          3.2388214021921158E-002
  0.10440000000000002          2.9922716319561005E-002
  0.10550000000000001          2.7395507320761681E-002
  0.10660000000000003          2.4828456342220306E-002
  0.10770000000000002          2.2242901846766472E-002
  0.10880000000000001          1.9659632816910744E-002
  0.10990000000000003          1.7098672688007355E-002
  0.11100000000000002          1.4578907750546932E-002
  0.11210000000000001          1.2117683887481689E-002
  0.11320000000000002          9.7306277602910995E-003
  0.11430000000000001          7.4316891841590405E-003
  0.11540000000000003          5.2332440391182899E-003
  0.11650000000000002          3.1460600439459085E-003
  0.11760000000000001          1.1791146825999022E-003
  0.11870000000000003         -6.6055066417902708E-004
  0.11980000000000002         -2.3677956778556108E-003
  0.12090000000000001         -3.9391797035932541E-003
  0.12200000000000003         -5.3727603517472744E-003
  0.12310000000000001         -6.6680330783128738E-003
  0.12420000000000003         -7.8259585425257683E-003
  0.12530000000000002         -8.8489186018705368E-003
  0.12640000000000001         -9.7405193373560905E-003
  0.12750000000000003         -1.0505313985049725E-002
  0.12860000000000002         -1.1148595251142979E-002
  0.12970000000000001         -1.1676346883177757E-002
  0.13080000000000003         -1.2095239944756031E-002
  0.13190000000000002         -1.2412525713443756E-002
  0.13300000000000001         -1.2635783292353153E-002
  0.13410000000000000         -1.2772650457918644E-002
  0.13520000000000004         -1.2830695137381554E-002
  0.13630000000000003         -1.2817460112273693E-002
  0.13740000000000002         -1.2740528210997581E-002
  0.13850000000000001         -1.2607445009052753E-002
  0.13960000000000000         -1.2425482273101807E-002
  0.14070000000000005         -1.2201423756778240E-002
  0.14180000000000004         -1.1941524222493172E-002
  0.14290000000000003         -1.1651645414531231E-002
  0.14400000000000002         -1.1337396688759327E-002
  0.14510000000000001         -1.1004109866917133E-002
  0.14620000000000000         -1.0656655766069889E-002
  0.14730000000000004         -1.0299284942448139E-002
  0.14840000000000003         -9.9356388673186302E-003
  0.14950000000000002         -9.5689315348863602E-003
  0.15060000000000001         -9.2021310701966286E-003
  0.15170000000000000         -8.8379858061671257E-003
  0.15280000000000005         -8.4788901731371880E-003
  0.15390000000000004         -8.1267543137073517E-003
  0.15500000000000003         -7.7830310910940170E-003
  0.15610000000000002         -7.4488692916929722E-003
  0.15720000000000001         -7.1252705529332161E-003
  0.15830000000000000         -6.8131159059703350E-003
  0.15940000000000004         -6.5130791626870632E-003
  0.16050000000000003         -6.2255538068711758E-003
  0.16160000000000002         -5.9506767429411411E-003
  0.16270000000000001         -5.6884381920099258E-003
  0.16380000000000000         -5.4387771524488926E-003
  0.16490000000000005         -5.2015902474522591E-003
  0.16600000000000004         -4.9766795709729195E-003
  0.16710000000000003         -4.7637289389967918E-003
  0.16820000000000002         -4.5623364858329296E-003
  0.16930000000000001         -4.3720724061131477E-003
  0.17040000000000000         -4.1925045661628246E-003
  0.17150000000000004         -4.0231705643236637E-003
  0.17260000000000003         -3.8635507225990295E-003
  0.17370000000000002         -3.7130906712263823E-003
  0.17480000000000001         -3.5712621174752712E-003
  0.17590000000000000         -3.4375966060906649E-003
  0.17700000000000005         -3.3116554841399193E-003
  0.17810000000000004         -3.1929709948599339E-003
  0.17920000000000003         -3.0810309108346701E-003
  0.18030000000000002         -2.9753299895673990E-003
  0.18140000000000001         -2.8754442464560270E-003
  0.18250000000000000         -2.7810495812445879E-003
  0.18360000000000004         -2.6918596122413874E-003
  0.18470000000000003         -2.6075472123920918E-003
  0.18580000000000002         -2.5277249515056610E-003
  0.18690000000000001         -2.4520074948668480E-003
  0.18800000000000000         -2.3800879716873169E-003
  0.18910000000000005         -2.3117510136216879E-003
  0.19020000000000004         -2.2468103561550379E-003
  0.19130000000000003         -2.1850359626114368E-003
  0.19240000000000002         -2.1261468064039946E-003
  0.19350000000000001         -2.0698676817119122E-003
  0.19460000000000005         -2.0159906707704067E-003
  0.19570000000000004         -1.9643732812255621E-003
  0.19680000000000003         -1.9148844294250011E-003
  0.19790000000000002         -1.8673533340916038E-003
  0.19900000000000001         -1.8215731251984835E-003
  0.20010000000000000         -1.7773456638678908E-003
  0.20120000000000005         -1.7345137894153595E-003
  0.20230000000000004         -1.6929501434788108E-003
  0.20340000000000003         -1.6525236424058676E-003
  0.20450000000000002         -1.6130920266732574E-003
  0.20560000000000000         -1.5745294513180852E-003
  0.20670000000000005         -1.5367589658126235E-003
  0.20780000000000004         -1.4997465768828988E-003
  0.20890000000000003         -1.4634628314524889E-003
