 -0.12000000000000000          0.0000000000000000
 -0.11889999999999999          0.0000000000000000
 -0.11780000000000000          0.0000000000000000
 -0.11670000000000000          0.0000000000000000
 -0.11559999999999999          1.7095492266504908E-017
 -0.11449999999999999          5.9834222105586564E-017
 -0.11340000000000000          5.1286478453875948E-017
 -0.11230000000000000          4.2738728184720431E-017
 -0.11119999999999999         -3.4190991150454716E-017
 -0.11009999999999999         -4.2738744728332682E-017
 -0.10900000000000000          4.2738730831698392E-016
 -0.10790000000000000          7.6074945962620820E-016
 -0.10679999999999999         -2.7352787626407852E-016
 -0.10569999999999999         -1.8548611235011999E-015
 -0.10460000000000000         -2.6156108478252041E-015
 -0.10349999999999999         -6.4108165068974552E-016
 -0.10239999999999999          7.8639174097799684E-016
 -0.10130000000000000          2.5642016653992621E-017
 -0.10020000000000000          6.3253175305971981E-016
  -9.9099999999999994E-002     6.7099790147470174E-015
  -9.7999999999999990E-002     1.4975649233607384E-014
  -9.6899999999999986E-002     1.4488427412017238E-014
  -9.5799999999999996E-002     2.2395064081459030E-015
  -9.4699999999999993E-002    -2.2591695156867590E-014
  -9.3599999999999989E-002    -3.8670005104947044E-014
  -9.2499999999999999E-002    -1.4266189683580233E-014
  -9.1399999999999995E-002     5.4996195856908681E-014
  -9.0299999999999991E-002     1.1167628643669533E-013
  -8.9200000000000002E-002     9.1768593050121916E-014
  -8.8099999999999984E-002     6.7612507660772675E-015
  -8.6999999999999994E-002    -1.0012832034854424E-013
  -8.5899999999999990E-002    -2.3683244493137579E-013
  -8.4799999999999986E-002    -3.7846006710473556E-013
  -8.3699999999999997E-002    -3.2369468433782189E-013
  -8.2599999999999993E-002    -5.1201095229921889E-014
  -8.1499999999999989E-002     2.6013346750113076E-013
  -8.0399999999999999E-002     1.4421749656035737E-013
  -7.9299999999999995E-002    -2.0146193469971346E-013
  -7.8199999999999992E-002    -3.0424865101255638E-013
  -7.7100000000000002E-002    -2.0571882413701614E-013
  -7.5999999999999984E-002     3.5045500301669058E-014
  -7.4899999999999994E-002     8.6225357366284672E-013
  -7.3799999999999991E-002     2.0341068239504434E-012
  -7.2699999999999987E-002     1.4772638407684058E-012
  -7.1599999999999997E-002    -8.1785381418619796E-014
  -7.0499999999999993E-002    -2.6299114795624856E-012
  -6.9399999999999989E-002    -4.0226559062939149E-012
  -6.8300000000000000E-002    -3.2621886962569402E-012
  -6.7199999999999996E-002     1.5915773473457184E-013
  -6.6099999999999992E-002     4.0706661132150490E-012
  -6.5000000000000002E-002     6.8442985654004751E-012
  -6.3899999999999985E-002     4.7863345231657917E-012
  -6.2799999999999995E-002    -1.3679834175162053E-012
  -6.1699999999999991E-002    -9.4829491481540629E-012
  -6.0599999999999994E-002    -1.1575925114304386E-011
  -5.9499999999999990E-002    -3.3754999663460072E-012
  -5.8399999999999994E-002     2.4221335007124090E-011
  -5.7299999999999990E-002     4.4955900113663461E-011
  -5.6199999999999986E-002     4.1182366544711968E-011
  -5.5099999999999996E-002     1.6261846036424998E-011
  -5.3999999999999992E-002    -2.0002421594056408E-011
  -5.2899999999999989E-002    -6.2568769609860908E-011
  -5.1799999999999985E-002    -1.0989669591010554E-010
  -5.0699999999999995E-002    -1.4153944682959718E-010
  -4.9599999999999991E-002    -8.0471553032257503E-011
  -4.8499999999999988E-002     3.2693563134511550E-011
  -4.7399999999999998E-002     9.8803118464552142E-011
  -4.6299999999999994E-002     1.0497287761257468E-010
  -4.5199999999999990E-002     8.4813933654004359E-011
  -4.4099999999999986E-002     1.1451145587315636E-010
  -4.2999999999999997E-002     1.6941731351138856E-010
  -4.1899999999999993E-002     7.0272281049721386E-011
  -4.0799999999999989E-002    -1.7788198691803814E-010
  -3.9699999999999985E-002    -3.1511959708296899E-010
  -3.8599999999999995E-002    -2.1819984707960316E-010
  -3.7499999999999992E-002     5.7979156198317838E-011
  -3.6399999999999988E-002     1.4705631157241328E-010
  -3.5299999999999984E-002    -1.3709061663647049E-011
  -3.4199999999999994E-002    -2.9995589345688245E-010
  -3.3099999999999991E-002    -4.4727682668721513E-010
  -3.1999999999999987E-002    -1.5989408408412231E-010
  -3.0899999999999997E-002     4.8936821261946761E-010
  -2.9799999999999993E-002     6.3446398135269533E-010
  -2.8699999999999989E-002    -7.4162342933448144E-011
  -2.7599999999999986E-002    -1.1502701013910155E-009
  -2.6499999999999996E-002    -1.4779705237444318E-009
  -2.5399999999999992E-002    -1.6208789865856943E-010
  -2.4299999999999988E-002     1.8999612994008430E-009
  -2.3199999999999985E-002     3.2136033834007094E-009
  -2.2099999999999995E-002     2.2797825849352193E-009
  -2.0999999999999991E-002    -1.0155654095456157E-010
  -1.9899999999999987E-002    -1.5882801740474406E-009
  -1.8799999999999983E-002    -5.9338367552896898E-010
  -1.7699999999999994E-002     1.5117995744162727E-009
  -1.6599999999999990E-002     1.6865852048297825E-009
  -1.5499999999999986E-002    -7.6813810867548682E-010
  -1.4399999999999996E-002    -4.5673060888873351E-009
  -1.3299999999999992E-002    -6.6209366877956199E-009
  -1.2199999999999989E-002    -4.9952717517953715E-009
  -1.1099999999999985E-002    -6.7175554008258587E-010
  -9.9999999999999950E-003     4.1133536576865026E-009
  -8.8999999999999913E-003     5.4029078988548918E-009
  -7.7999999999999875E-003     4.6130552711076689E-009
  -6.6999999999999837E-003     4.0652023969300899E-009
  -5.5999999999999939E-003     4.0999421635490307E-009
  -4.4999999999999901E-003     3.7582372769406902E-009
  -3.3999999999999864E-003     1.5163846844856721E-009
  -2.2999999999999826E-003    -1.8727268624729732E-009
  -1.1999999999999927E-003    -4.4910239971329702E-009
  -9.9999999999988987E-005    -5.7648765761086906E-009
   1.0000000000000148E-003    -3.8120631096205670E-009
   2.1000000000000185E-003     4.5319481500882830E-010
   3.2000000000000084E-003     5.0769708437314875E-009
   4.3000000000000121E-003     5.6494879885349292E-009
   5.4000000000000159E-003     2.1707464714637581E-009
   6.5000000000000058E-003    -1.9891797098381403E-009
   7.6000000000000234E-003    -2.7790323375853632E-009
   8.7000000000000133E-003    -1.2026631912576136E-009
   9.8000000000000032E-003     5.8881699516177832E-010
   1.0900000000000021E-002     4.9927062484300677E-011
   1.2000000000000011E-002    -1.9947403728792779E-009
   1.3100000000000001E-002    -2.4977784285340476E-009
   1.4200000000000018E-002    -9.6816998862436776E-011
   1.5300000000000008E-002     2.4475517168554006E-009
   1.6400000000000026E-002     5.1043969051534077E-010
   1.7500000000000016E-002    -4.9401531754256212E-009
   1.8600000000000005E-002    -9.4944496709103987E-009
   1.9700000000000023E-002    -9.4059320332462448E-009
   2.0800000000000013E-002    -2.9357865027890284E-009
   2.1900000000000003E-002     6.2053215899027236E-009
   2.3000000000000020E-002     1.3096727258243845E-008
   2.4100000000000010E-002     1.3185245784086419E-008
   2.5200000000000000E-002     6.8652457052564841E-009
   2.6300000000000018E-002    -6.6699512579759812E-010
   2.7400000000000008E-002    -4.0000882606250343E-009
   2.8500000000000025E-002    -2.0091825980728117E-009
   2.9600000000000015E-002    -6.9946182179592142E-010
   3.0700000000000005E-002    -4.7137400649432948E-009
   3.1800000000000023E-002    -1.2564165707829034E-008
   3.2900000000000013E-002    -1.7187925749340138E-008
   3.4000000000000002E-002    -1.3350650363008754E-008
   3.5100000000000020E-002    -2.2354496032050974E-009
   3.6200000000000010E-002     1.1532788057877497E-008
   3.7300000000000028E-002     1.8453322425671104E-008
   3.8400000000000017E-002     1.4403192416523325E-008
   3.9500000000000007E-002     3.1826925539490958E-009
   4.0600000000000025E-002    -5.6715863117062781E-009
   4.1700000000000015E-002    -5.0609778590171572E-009
   4.2800000000000005E-002     2.4331856529613560E-009
   4.3900000000000022E-002     8.3498674641191428E-009
   4.5000000000000012E-002     8.6736617888050205E-009
   4.6100000000000002E-002     4.4084194072979699E-009
   4.7200000000000020E-002     1.3621399563845671E-009
   4.8300000000000010E-002     8.2548967661466577E-010
   4.9400000000000027E-002     3.6589129503994400E-009
   5.0500000000000017E-002     5.5601883097722293E-009
   5.1600000000000007E-002     2.8724274070413003E-009
   5.2700000000000025E-002    -4.6911847739750101E-009
   5.3800000000000014E-002    -8.1676869712055122E-009
   5.4900000000000004E-002    -5.5852265035127857E-009
   5.6000000000000022E-002     2.0523440724673492E-009
   5.7100000000000012E-002     7.4312485054406352E-009
   5.8200000000000002E-002     2.1263031335649885E-009
   5.9300000000000019E-002    -9.8470858134191985E-009
   6.0400000000000009E-002    -2.1049659792993225E-008
   6.1500000000000027E-002    -2.1245718073714670E-008
   6.2600000000000017E-002    -1.0184296961313066E-008
   6.3700000000000007E-002     2.6966056054789078E-009
   6.4800000000000024E-002     6.5204353028036621E-009
   6.5900000000000014E-002    -1.0375753589642045E-009
   6.7000000000000004E-002    -8.6135116816876689E-009
   6.8100000000000022E-002    -6.9575976091584835E-009
   6.9200000000000012E-002     3.9660190687129671E-009
   7.0300000000000029E-002     1.3222525296896492E-008
   7.1400000000000019E-002     1.0594146004905269E-008
   7.2500000000000009E-002    -3.8653440448399579E-009
   7.3600000000000027E-002    -1.8468242046765226E-008
   7.4700000000000016E-002    -1.9841806420117791E-008
   7.5800000000000006E-002    -5.2254494065095969E-009
   7.6900000000000024E-002     1.4446016827207586E-008
   7.8000000000000014E-002     2.3290223083449746E-008
   7.9100000000000004E-002     1.4567025807821210E-008
   8.0200000000000021E-002    -1.8643171451060425E-009
   8.1300000000000011E-002    -1.0766771474379766E-008
   8.2400000000000029E-002    -6.2606351214355982E-009
   8.3500000000000019E-002     4.0893519681617363E-009
   8.4600000000000009E-002     7.2331176603768199E-009
   8.5700000000000026E-002    -3.3543734456742413E-009
   8.6800000000000016E-002    -1.9964975450648126E-008
   8.7900000000000006E-002    -2.8293799303469314E-008
   8.9000000000000024E-002    -2.0919515009154566E-008
   9.0100000000000013E-002    -5.0483430769077131E-009
   9.1200000000000003E-002     5.9111266992317724E-009
   9.2300000000000021E-002     3.1751912210609134E-009
   9.3400000000000011E-002    -6.9820766945838386E-009
   9.4500000000000028E-002    -1.0614308543210882E-008
   9.5600000000000018E-002    -2.0210606521686714E-009
   9.6700000000000008E-002     1.1878260153252995E-008
   9.7800000000000026E-002     1.7657139750326678E-008
   9.8900000000000016E-002     9.0056504475910515E-009
  0.10000000000000001         -7.2643571158437226E-009
  0.10110000000000002         -1.8783996580395979E-008
  0.10220000000000001         -1.7988526224144152E-008
  0.10330000000000003         -9.6731307408504108E-009
  0.10440000000000002         -3.6970679850867327E-009
  0.10550000000000001         -3.1928928390101419E-009
  0.10660000000000003         -3.2444216202520693E-009
  0.10770000000000002          2.2879744765447185E-009
  0.10880000000000001          1.3605962578822073E-008
  0.10990000000000003          2.2198090476877042E-008
  0.11100000000000002          1.7827957776717085E-008
  0.11210000000000001          6.9960792714596209E-010
  0.11320000000000002         -1.7874020485919573E-008
  0.11430000000000001         -2.3729208820100212E-008
  0.11540000000000003         -1.3334544135545912E-008
  0.11650000000000002          3.1728597527092006E-009
  0.11760000000000001          1.1687543377547627E-008
  0.11870000000000003          6.6233396545101186E-009
  0.11980000000000002         -3.6841971695622533E-009
  0.12090000000000001         -6.0684759439766367E-009
  0.12200000000000003          3.2170215380489253E-009
  0.12310000000000001          1.4837370443387954E-008
  0.12420000000000003          1.4604204068291438E-008
  0.12530000000000002         -2.5465531905410899E-009
  0.12640000000000001         -2.5747310061774442E-008
  0.12750000000000003         -3.8053585171837767E-008
  0.12860000000000002         -3.0825088259689437E-008
  0.12970000000000001         -1.2289813611232603E-008
  0.13080000000000003          1.4682022264622674E-009
  0.13190000000000002          9.3029450809467562E-010
  0.13300000000000001         -8.3285751628636717E-009
  0.13410000000000000         -1.2778815339231642E-008
  0.13520000000000004         -4.4702797019624541E-009
  0.13630000000000003          1.0594088273307989E-008
  0.13740000000000002          1.7997365375777008E-008
  0.13850000000000001          9.2045704391807703E-009
  0.13960000000000000         -9.8844274987186509E-009
  0.14070000000000005         -2.3519463709931188E-008
  0.14180000000000004         -2.0953947910129500E-008
  0.14290000000000003         -5.4929705228801140E-009
  0.14400000000000002          8.5809883643150897E-009
  0.14510000000000001          1.0455236676421009E-008
  0.14620000000000000          1.8797927658908975E-009
  0.14730000000000004         -6.2878360296281244E-009
  0.14840000000000003         -5.7647544515759819E-009
  0.14950000000000002          1.0861787025362446E-009
  0.15060000000000001          4.2163623703572739E-009
  0.15170000000000000         -3.1165909852859386E-009
  0.15280000000000005         -1.6954412984659939E-008
  0.15390000000000004         -2.6401503205875088E-008
  0.15500000000000003         -2.4381606067436223E-008
  0.15610000000000002         -1.4258070279993262E-008
  0.15720000000000001         -5.8335754005156559E-009
  0.15830000000000000         -5.1777280241083190E-009
  0.15940000000000004         -9.0593808010908106E-009
  0.16050000000000003         -9.5491117235724232E-009
  0.16160000000000002         -3.4421032690801212E-009
  0.16270000000000001          4.1454741861457478E-009
  0.16380000000000000          5.1665622891050589E-009
  0.16490000000000005         -2.0420287683009519E-009
  0.16600000000000004         -1.0549129569881188E-008
  0.16710000000000003         -1.1888660722547684E-008
  0.16820000000000002         -5.0909427784517902E-009
  0.16930000000000001          2.1795707461080838E-009
  0.17040000000000000          1.9352008884254701E-009
  0.17150000000000004         -5.3703015368000706E-009
  0.17260000000000003         -1.0976763498149467E-008
  0.17370000000000002         -7.0323498135849150E-009
  0.17480000000000001          4.6695065591961793E-009
  0.17590000000000000          1.3662869058350680E-008
  0.17700000000000005          1.1279153611098991E-008
  0.17810000000000004         -5.3892001972144499E-010
  0.17920000000000003         -1.0883147716356234E-008
  0.18030000000000002         -1.0822777340990797E-008
  0.18140000000000001         -2.9691111791407820E-009
  0.18250000000000000          1.0551299833849725E-009
  0.18360000000000004         -6.9668488755780800E-009
  0.18470000000000003         -2.2542643307588150E-008
  0.18580000000000002         -3.1613289763754437E-008
  0.18690000000000001         -2.3603471177580104E-008
  0.18800000000000000         -2.0045431980975081E-009
  0.18910000000000005          1.8039589377849552E-008
  0.19020000000000004          2.2918250408565655E-008
  0.19130000000000003          1.1956977630234178E-008
  0.19240000000000002         -3.6032743455649552E-009
  0.19350000000000001         -1.2011224015395783E-008
  0.19460000000000005         -1.0934118499505985E-008
  0.19570000000000004         -6.9556747028798327E-009
  0.19680000000000003         -6.5926659686965650E-009
  0.19790000000000002         -9.1492022846750842E-009
  0.19900000000000001         -8.7067872911461563E-009
  0.20010000000000000         -2.0922528154443398E-009
  0.20120000000000005          6.6165339873691664E-009
  0.20230000000000004          1.0036401931756700E-008
  0.20340000000000003          5.5728559544832024E-009
  0.20450000000000002         -1.8660437639539396E-009
  0.20560000000000000         -5.3816169298670502E-009
  0.20670000000000005         -3.6502159073137364E-009
  0.20780000000000004         -2.0531891742336938E-009
  0.20890000000000003         -5.6516693547337127E-009
