 -0.12000000000000000          0.0000000000000000
 -0.11889999999999999          0.0000000000000000
 -0.11780000000000000          0.0000000000000000
 -0.11670000000000000          0.0000000000000000
 -0.11559999999999999          0.0000000000000000
 -0.11449999999999999          1.2527211340895116E-014
 -0.11340000000000000          7.6162378182819021E-014
 -0.11230000000000000          1.8928163154120888E-013
 -0.11119999999999999          1.2742638477274677E-013
 -0.11009999999999999         -6.0060851166937127E-013
 -0.10900000000000000         -2.1865992398455401E-012
 -0.10790000000000000         -3.4269718514273576E-012
 -0.10679999999999999         -1.4777877625434405E-012
 -0.10569999999999999          5.7646663358321234E-012
 -0.10460000000000000          1.5346535741553551E-011
 -0.10349999999999999          1.7845703647066444E-011
 -0.10239999999999999          4.1083455923865059E-012
 -0.10130000000000000         -2.2373293122378390E-011
 -0.10020000000000000         -4.0774177060463529E-011
  -9.9099999999999994E-002    -2.8778750167783172E-011
  -9.7999999999999990E-002     8.4860333966499483E-012
  -9.6899999999999986E-002     2.8703157163309950E-011
  -9.5799999999999996E-002    -9.9499586362639266E-012
  -9.4699999999999993E-002    -8.3380436627178209E-011
  -9.3599999999999989E-002    -8.2211741848882856E-011
  -9.2499999999999999E-002     9.9214753116074090E-011
  -9.1399999999999995E-002     4.0768840763325953E-010
  -9.0299999999999991E-002     5.6867408904662666E-010
  -8.9200000000000002E-002     2.5914822221872377E-010
  -8.8099999999999984E-002    -5.4693293893155289E-010
  -8.6999999999999994E-002    -1.3664222375635531E-009
  -8.5899999999999990E-002    -1.4406595640321227E-009
  -8.4799999999999986E-002    -3.7569210881835291E-010
  -8.3699999999999997E-002     1.3168066258052871E-009
  -8.2599999999999993E-002     2.3850610808491843E-009
  -8.1499999999999989E-002     1.7962084709987502E-009
  -8.0399999999999999E-002    -2.2405936076075772E-010
  -7.9299999999999995E-002    -2.0956419371735160E-009
  -7.8199999999999992E-002    -2.0915512682717306E-009
  -7.7100000000000002E-002     2.0999499101280796E-011
  -7.5999999999999984E-002     2.4396121193869437E-009
  -7.4899999999999994E-002     2.6803784369388489E-009
  -7.3799999999999991E-002    -1.0273929683323107E-010
  -7.2699999999999987E-002    -3.9300098846156534E-009
  -7.1599999999999997E-002    -5.3398844782072772E-009
  -7.0499999999999993E-002    -2.4298525946542397E-009
  -6.9399999999999989E-002     3.0593236761401197E-009
  -6.8300000000000000E-002     6.7811900000408030E-009
  -6.7199999999999996E-002     5.4197188099393572E-009
  -6.6099999999999992E-002    -1.6827608697249230E-010
  -6.5000000000000002E-002    -5.3125220386128778E-009
  -6.3899999999999985E-002    -5.4147511236459381E-009
  -6.2799999999999995E-002    -7.1785803978470957E-011
  -6.1699999999999991E-002     6.3334471723330583E-009
  -6.0599999999999994E-002     8.2972511690699621E-009
  -5.9499999999999990E-002     3.9381773911457666E-009
  -5.8399999999999994E-002    -3.4482757460191167E-009
  -5.7299999999999990E-002    -8.4126447851270526E-009
  -5.6199999999999986E-002    -8.1323361117369609E-009
  -5.5099999999999996E-002    -4.5831798939967895E-009
  -5.3999999999999992E-002    -2.3333569792018878E-009
  -5.2899999999999989E-002    -4.3926641480999410E-009
  -5.1799999999999985E-002    -1.0238109268777349E-008
  -5.0699999999999995E-002    -1.7708566798104801E-008
  -4.9599999999999991E-002    -2.6447578753655020E-008
  -4.8499999999999988E-002    -3.9086450868300146E-008
  -4.7399999999999998E-002    -5.8889025472266770E-008
  -4.6299999999999994E-002    -8.6441258339558352E-008
  -4.5199999999999990E-002    -1.1907485286405346E-007
  -4.4099999999999986E-002    -1.5385768301320793E-007
  -4.2999999999999997E-002    -1.9116715149861558E-007
  -4.1899999999999993E-002    -2.3518123891154153E-007
  -4.0799999999999989E-002    -2.9089442716470460E-007
  -3.9699999999999985E-002    -3.6104488858443469E-007
  -3.8599999999999995E-002    -4.4649643081403853E-007
  -3.7499999999999992E-002    -5.4981700890579690E-007
  -3.6399999999999988E-002    -6.7804937090575970E-007
  -3.5299999999999984E-002    -8.4117677091819727E-007
  -3.4199999999999994E-002    -1.0473371647198760E-006
  -3.3099999999999991E-002    -1.2997358179035335E-006
  -3.1999999999999987E-002    -1.5990875814217519E-006
  -3.0899999999999997E-002    -1.9500246117322015E-006
  -2.9799999999999993E-002    -2.3656360656210400E-006
  -2.8699999999999989E-002    -2.8657636246307151E-006
  -2.7599999999999986E-002    -3.4707098119272959E-006
  -2.6499999999999996E-002    -4.1966177077050081E-006
  -2.5399999999999992E-002    -5.0572329455556087E-006
  -2.4299999999999988E-002    -6.0704659563718266E-006
  -2.3199999999999985E-002    -7.2635358490382646E-006
  -2.2099999999999995E-002    -8.6721410214688717E-006
  -2.0999999999999991E-002    -1.0335236303200106E-005
  -1.9899999999999987E-002    -1.2291204307953900E-005
  -1.8799999999999983E-002    -1.4579219074527744E-005
  -1.7699999999999994E-002    -1.7243879081064596E-005
  -1.6599999999999990E-002    -2.0338025619719417E-005
  -1.5499999999999986E-002    -2.3921380819015913E-005
  -1.4399999999999996E-002    -2.8057990072793839E-005
  -1.3299999999999992E-002    -3.2816903205060479E-005
  -1.2199999999999989E-002    -3.8276373808095186E-005
  -1.1099999999999985E-002    -4.4526729538016464E-005
  -9.9999999999999950E-003    -5.1667438234247710E-005
  -8.8999999999999913E-003    -5.9800260734703410E-005
  -7.7999999999999875E-003    -6.9025779910660058E-005
  -6.6999999999999837E-003    -7.9448396872890158E-005
  -5.5999999999999939E-003    -9.1185947772460030E-005
  -4.4999999999999901E-003    -1.0437384032025918E-004
  -3.3999999999999864E-003    -1.1915762498563812E-004
  -2.2999999999999826E-003    -1.3567935896374131E-004
  -1.1999999999999927E-003    -1.5407064135719844E-004
  -9.9999999999988987E-005    -1.7445955273275620E-004
   1.0000000000000148E-003    -1.9698484427257962E-004
   2.1000000000000185E-003    -2.2180144469338765E-004
   3.2000000000000084E-003    -2.4906828299076913E-004
   4.3000000000000121E-003    -2.7892697750762349E-004
   5.4000000000000159E-003    -3.1148985958678475E-004
   6.5000000000000058E-003    -3.4684816903034682E-004
   7.6000000000000234E-003    -3.8509136930809398E-004
   8.7000000000000133E-003    -4.2631627015537777E-004
   9.8000000000000032E-003    -4.7061232693454565E-004
   1.0900000000000021E-002    -5.1803343528334744E-004
   1.2000000000000011E-002    -5.6857941997506128E-004
   1.3100000000000001E-002    -6.2220245573161930E-004
   1.4200000000000018E-002    -6.7882916241405306E-004
   1.5300000000000008E-002    -7.3837269315132296E-004
   1.6400000000000026E-002    -8.0071926187810837E-004
   1.7500000000000016E-002    -8.6569892539286209E-004
   1.8600000000000005E-002    -9.3306566365137719E-004
   1.9700000000000023E-002    -1.0025052441158902E-003
   2.0800000000000013E-002    -1.0736600114272955E-003
   2.1900000000000003E-002    -1.1461444258939603E-003
   2.3000000000000020E-002    -1.2195329055680437E-003
   2.4100000000000010E-002    -1.2933316460455745E-003
   2.5200000000000000E-002    -1.3669612735202374E-003
   2.6300000000000018E-002    -1.4397704537916327E-003
   2.7400000000000008E-002    -1.5110684516386214E-003
   2.8500000000000025E-002    -1.5801461079491348E-003
   2.9600000000000015E-002    -1.6462677847121146E-003
   3.0700000000000005E-002    -1.7086453241687725E-003
   3.1800000000000023E-002    -1.7664253013910936E-003
   3.2900000000000013E-002    -1.8187099630543552E-003
   3.4000000000000002E-002    -1.8645964752273128E-003
   3.5100000000000020E-002    -1.9032055657067647E-003
   3.6200000000000010E-002    -1.9336771552714424E-003
   3.7300000000000028E-002    -1.9551488283319923E-003
   3.8400000000000017E-002    -1.9667474487442944E-003
   3.9500000000000007E-002    -1.9676123403610623E-003
   4.0600000000000025E-002    -1.9569381824398949E-003
   4.1700000000000015E-002    -1.9340047484346730E-003
   4.2800000000000005E-002    -1.8981741078609139E-003
   4.3900000000000022E-002    -1.8488693092902609E-003
   4.5000000000000012E-002    -1.7855658793598204E-003
   4.6100000000000002E-002    -1.7078159950557562E-003
   4.7200000000000020E-002    -1.6152893136533292E-003
   4.8300000000000010E-002    -1.5077980234871281E-003
   4.9400000000000027E-002    -1.3852878874786271E-003
   5.0500000000000017E-002    -1.2478121866238484E-003
   5.1600000000000007E-002    -1.0955185946656099E-003
   5.2700000000000025E-002    -9.2866672404660683E-004
   5.3800000000000014E-002    -7.4765994240744030E-004
   5.4900000000000004E-002    -5.5306240093672110E-004
   5.6000000000000022E-002    -3.4558303411239260E-004
   5.7100000000000012E-002    -1.2604184041008947E-004
   5.8200000000000002E-002     1.0464812312532639E-004
   5.9300000000000019E-002     3.4546997169832472E-004
   6.0400000000000009E-002     5.9527953911161721E-004
   6.1500000000000027E-002     8.5280036620784499E-004
   6.2600000000000017E-002     1.1166486099056156E-003
   6.3700000000000007E-002     1.3853722121759766E-003
   6.4800000000000024E-002     1.6574686494251127E-003
   6.5900000000000014E-002     1.9313770663539748E-003
   6.7000000000000004E-002     2.2054578605755983E-003
   6.8100000000000022E-002     2.4779944928693628E-003
   6.9200000000000012E-002     2.7472261113966473E-003
   7.0300000000000029E-002     3.0113851945286229E-003
   7.1400000000000019E-002     3.2687197831931607E-003
   7.2500000000000009E-002     3.5174840866188145E-003
   7.3600000000000027E-002     3.7559219964921047E-003
   7.4700000000000016E-002     3.9822693470298997E-003
   7.5800000000000006E-002     4.1947839648660843E-003
   7.6900000000000024E-002     4.3917870314547063E-003
   7.8000000000000014E-002     4.5716845027089850E-003
   7.9100000000000004E-002     4.7329611055338039E-003
   8.0200000000000021E-002     4.8741650236421444E-003
   8.1300000000000011E-002     4.9939105519198872E-003
   8.2400000000000029E-002     5.0909059973010106E-003
   8.3500000000000019E-002     5.1639980289458183E-003
   8.4600000000000009E-002     5.2121933724714881E-003
   8.5700000000000026E-002     5.2346561989657465E-003
   8.6800000000000016E-002     5.2306917114548065E-003
   8.7900000000000006E-002     5.1997454009411522E-003
   8.9000000000000024E-002     5.1414266960317116E-003
   9.0100000000000013E-002     5.0555476377933698E-003
   9.1200000000000003E-002     4.9421490242925522E-003
   9.2300000000000021E-002     4.8014940858318216E-003
   9.3400000000000011E-002     4.6340521879958650E-003
   9.4500000000000028E-002     4.4404852387613545E-003
   9.5600000000000018E-002     4.2216583002159108E-003
   9.6700000000000008E-002     3.9786631979436254E-003
   9.7800000000000026E-002     3.7128304945664055E-003
   9.8900000000000016E-002     3.4257227410664200E-003
  0.10000000000000001          3.1191052745034955E-003
  0.10110000000000002          2.7949182393595790E-003
  0.10220000000000001          2.4552657638236752E-003
  0.10330000000000003          2.1024150959567918E-003
  0.10440000000000002          1.7387941555125589E-003
  0.10550000000000001          1.3669701544228171E-003
  0.10660000000000003          9.8961045502280690E-004
  0.10770000000000002          6.0944168290053273E-004
  0.10880000000000001          2.2921685265751721E-004
  0.10990000000000003         -1.4830136776390417E-004
  0.11100000000000002         -5.2035571007874462E-004
  0.11210000000000001         -8.8421912339316623E-004
  0.11320000000000002         -1.2372366192471393E-003
  0.11430000000000001         -1.5768732778913979E-003
  0.11540000000000003         -1.9007504574305827E-003
  0.11650000000000002         -2.2066628781844963E-003
  0.11760000000000001         -2.4925882884276724E-003
  0.11870000000000003         -2.7567023534208917E-003
  0.11980000000000002         -2.9974055704972140E-003
  0.12090000000000001         -3.2133526002067056E-003
  0.12200000000000003         -3.4034813220724185E-003
  0.12310000000000001         -3.5670126216951720E-003
  0.12420000000000003         -3.7034394782874272E-003
  0.12530000000000002         -3.8125148690114938E-003
  0.12640000000000001         -3.8942528896964571E-003
  0.12750000000000003         -3.9489429082019628E-003
  0.12860000000000002         -3.9771521802062513E-003
  0.12970000000000001         -3.9797097720927783E-003
  0.13080000000000003         -3.9576718820157931E-003
  0.13190000000000002         -3.9122839369419996E-003
  0.13300000000000001         -3.8449591272551875E-003
  0.13410000000000000         -3.7572660490263286E-003
  0.13520000000000004         -3.6509259183483789E-003
  0.13630000000000003         -3.5277872880113258E-003
  0.13740000000000002         -3.3897857496727854E-003
  0.13850000000000001         -3.2388992962651755E-003
  0.13960000000000000         -3.0771122355116717E-003
  0.14070000000000005         -2.9064028864124775E-003
  0.14180000000000004         -2.7287360500440200E-003
  0.14290000000000003         -2.5460484837647192E-003
  0.14400000000000002         -2.3602206944963668E-003
  0.14510000000000001         -2.1730378165180438E-003
  0.14620000000000000         -1.9861636684203794E-003
  0.14730000000000004         -1.8011324425359532E-003
  0.14840000000000003         -1.6193561513102330E-003
  0.14950000000000002         -1.4421261191490560E-003
  0.15060000000000001         -1.2706035822949041E-003
  0.15170000000000000         -1.1057979648729857E-003
  0.15280000000000005         -9.4855591056887162E-004
  0.15390000000000004         -7.9956479655871895E-004
  0.15500000000000003         -6.5936916395112094E-004
  0.15610000000000002         -5.2838753212379550E-004
  0.15720000000000001         -4.0691657697231124E-004
  0.15830000000000000         -2.9512897544929601E-004
  0.15940000000000004         -1.9307335082755116E-004
  0.16050000000000003         -1.0068520968195121E-004
  0.16160000000000002         -1.7804976281738551E-005
  0.16270000000000001          5.5803873822028083E-005
  0.16380000000000000          1.2044508646388894E-004
  0.16490000000000005          1.7648532799840243E-004
  0.16600000000000004          2.2434714738455485E-004
  0.16710000000000003          2.6449782172760126E-004
  0.16820000000000002          2.9743476723913378E-004
  0.16930000000000001          3.2367423411887070E-004
  0.17040000000000000          3.4374486374607260E-004
  0.17150000000000004          3.5818194480902139E-004
  0.17260000000000003          3.6751972073514015E-004
  0.17370000000000002          3.7228278721296721E-004
  0.17480000000000001          3.7298189646418385E-004
  0.17590000000000000          3.7011442867546562E-004
  0.17700000000000005          3.6416557830259581E-004
  0.17810000000000004          3.5560441057138552E-004
  0.17920000000000003          3.4487266515770401E-004
  0.18030000000000002          3.3237555045752845E-004
  0.18140000000000001          3.1848265279648004E-004
  0.18250000000000000          3.0353890503822151E-004
  0.18360000000000004          2.8787560990221753E-004
  0.18470000000000003          2.7181050412738631E-004
  0.18580000000000002          2.5563476654715802E-004
  0.18690000000000001          2.3959992614758829E-004
  0.18800000000000000          2.2391586907329750E-004
  0.18910000000000005          2.0876497490746453E-004
  0.19020000000000004          1.9431925157201301E-004
  0.19130000000000003          1.8074675899275449E-004
  0.19240000000000002          1.6820236943292850E-004
  0.19350000000000001          1.5681067508694038E-004
  0.19460000000000005          1.4665817099913104E-004
  0.19570000000000004          1.3780149573211533E-004
  0.19680000000000003          1.3028472282306604E-004
  0.19790000000000002          1.2415032841660506E-004
  0.19900000000000001          1.1943600341929255E-004
  0.20010000000000000          1.1616084214632426E-004
  0.20120000000000005          1.1431364940869915E-004
  0.20230000000000004          1.1385415763027652E-004
  0.20340000000000003          1.1472572135505494E-004
  0.20450000000000002          1.1686842160535366E-004
  0.20560000000000000          1.2022367232543064E-004
  0.20670000000000005          1.2472759200386269E-004
  0.20780000000000004          1.3029980805514919E-004
  0.20890000000000003          1.3683690107177374E-004
