 -0.12000000000000000          0.0000000000000000     
 -0.11889999999999999          0.0000000000000000     
 -0.11780000000000000          0.0000000000000000     
 -0.11670000000000000          0.0000000000000000     
 -0.11559999999999999          0.0000000000000000     
 -0.11449999999999999          0.0000000000000000     
 -0.11340000000000000          0.0000000000000000     
 -0.11230000000000000          0.0000000000000000     
 -0.11119999999999999          0.0000000000000000     
 -0.11009999999999999          0.0000000000000000     
 -0.10900000000000000         -8.1021907757159913E-024
 -0.10790000000000000          3.1544875214669194E-023
 -0.10679999999999999          3.4372482127295320E-022
 -0.10569999999999999         -1.0772342471609633E-022
 -0.10460000000000000         -5.7714592575294670E-021
 -0.10349999999999999         -8.9303622543639618E-021
 -0.10239999999999999          5.1115373921121458E-020
 -0.10130000000000000          2.0397490668915151E-019
 -0.10020000000000000         -9.0914532552779631E-021
  -9.9099999999999994E-002    -1.6794523014217795E-018
  -9.7999999999999990E-002    -3.7810860069620485E-018
  -9.6899999999999986E-002     2.5213476298915130E-018
  -9.5799999999999996E-002     2.8723780596454882E-017
  -9.4699999999999993E-002     5.0143950122038104E-017
  -9.3599999999999989E-002    -3.9706287367823482E-017
  -9.2499999999999999E-002    -3.3440328715029783E-016
  -9.1399999999999995E-002    -5.4295145438223633E-016
  -9.0299999999999991E-002     3.0086046480167232E-016
  -8.9200000000000002E-002     2.9088335371321456E-015
  -8.8099999999999984E-002     4.9439780001598981E-015
  -8.6999999999999994E-002    -7.2603212021709620E-016
  -8.5899999999999990E-002    -1.9516916430423539E-014
  -8.4799999999999986E-002    -3.7481865213569859E-014
  -8.3699999999999997E-002    -1.0416966192362733E-014
  -8.2599999999999993E-002     1.0074979181007651E-013
  -8.1499999999999989E-002     2.3365475678403802E-013
  -8.0399999999999999E-002     1.5623430554920908E-013
  -7.9299999999999995E-002    -3.8084696529251671E-013
  -7.8199999999999992E-002    -1.1861208629865283E-012
  -7.7100000000000002E-002    -1.2312133734412867E-012
  -7.5999999999999984E-002     8.4264404264997039E-013
  -7.4899999999999994E-002     4.8300361106534684E-012
  -7.3799999999999991E-002     6.9394720005055976E-012
  -7.2699999999999987E-002     9.2029411435240460E-013
  -7.1599999999999997E-002    -1.5187847507425190E-011
  -7.0499999999999993E-002    -3.0152109975478680E-011
  -6.9399999999999989E-002    -1.9809112683510932E-011
  -6.8300000000000000E-002     3.2604838967609240E-011
  -6.7199999999999996E-002     1.0283324192172927E-010
  -6.6099999999999992E-002     1.1297773133689404E-010
  -6.5000000000000002E-002    -1.8720020325546649E-011
  -6.3899999999999985E-002    -2.6936397556909242E-010
  -6.2799999999999995E-002    -4.3367906488178676E-010
  -6.1699999999999991E-002    -2.1294462027032779E-010
  -6.0599999999999994E-002     4.8788639794850042E-010
  -5.9499999999999990E-002     1.2498926338366800E-009
  -5.8399999999999994E-002     1.2025019868744380E-009
  -5.7299999999999990E-002    -2.9897101461173747E-010
  -5.6199999999999986E-002    -2.7078692621529399E-009
  -5.5099999999999996E-002    -3.9780960747748395E-009
  -5.3999999999999992E-002    -1.7922997530561702E-009
  -5.2899999999999989E-002     3.9767211745811437E-009
  -5.1799999999999985E-002     9.5497743046735195E-009
  -5.0699999999999995E-002     8.7618854394122536E-009
  -4.9599999999999991E-002    -1.7306959199103744E-009
  -4.8499999999999988E-002    -1.7002463437165716E-008
  -4.7399999999999998E-002    -2.4054013891827708E-008
  -4.6299999999999994E-002    -1.0845842446371989E-008
  -4.5199999999999990E-002     2.0471224715379321E-008
  -4.4099999999999986E-002     4.7975859729376680E-008
  -4.2999999999999997E-002     4.2152336732215190E-008
  -4.1899999999999993E-002    -7.6867836540372991E-009
  -4.0799999999999989E-002    -7.3164819980320317E-008
  -3.9699999999999985E-002    -9.6908038926812878E-008
  -3.8599999999999995E-002    -3.7008391018389375E-008
  -3.7499999999999992E-002     8.3851332988160721E-008
  -3.6399999999999988E-002     1.7274470565098454E-007
  -3.5299999999999984E-002     1.2919960568069655E-007
  -3.4199999999999994E-002    -5.7908032147224731E-008
  -3.3099999999999991E-002    -2.6254656404489651E-007
  -3.1999999999999987E-002    -2.9077082785988750E-007
  -3.0899999999999997E-002    -4.4765602780216796E-008
  -2.9799999999999993E-002     3.4378436453152972E-007
  -2.8699999999999989E-002     5.5387363318004645E-007
  -2.7599999999999986E-002     3.1408615086547798E-007
  -2.6499999999999996E-002    -3.1943122280608804E-007
  -2.5399999999999992E-002    -8.9918626144935843E-007
  -2.4299999999999988E-002    -8.7009851768016233E-007
  -2.3199999999999985E-002    -4.7105611855613461E-008
  -2.2099999999999995E-002     1.0980303386531887E-006
  -2.0999999999999991E-002     1.6629737729090266E-006
  -1.9899999999999987E-002     9.9424391919455957E-007
  -1.8799999999999983E-002    -6.7230905642645666E-007
  -1.7699999999999994E-002    -2.1949010715616168E-006
  -1.6599999999999990E-002    -2.2987512693362078E-006
  -1.5499999999999986E-002    -6.3427921759284800E-007
  -1.4399999999999996E-002     1.7497106910013827E-006
  -1.3299999999999992E-002     3.0496175895677879E-006
  -1.2199999999999989E-002     2.1142611785762710E-006
  -1.1099999999999985E-002    -4.8028886112660985E-007
  -9.9999999999999950E-003    -2.6890147637459449E-006
  -8.8999999999999913E-003    -2.5855185867840191E-006
  -7.7999999999999875E-003    -9.4810218342900043E-008
  -6.6999999999999837E-003     2.6469947442819830E-006
  -5.5999999999999939E-003     2.8699148515443085E-006
  -4.4999999999999901E-003    -3.6979690776206553E-007
  -3.3999999999999864E-003    -4.8715041884861421E-006
  -2.2999999999999826E-003    -6.5106869442388415E-006
  -1.1999999999999927E-003    -2.4536022920074174E-006
  -9.9999999999988987E-005     5.9826256801898126E-006
   1.0000000000000148E-003     1.3303010746312793E-005
   2.1000000000000185E-003     1.3225941074779257E-005
   3.2000000000000084E-003     3.4257507195434300E-006
   4.3000000000000121E-003    -1.1827858543256298E-005
   5.4000000000000159E-003    -2.3470902306144126E-005
   6.5000000000000058E-003    -2.3189728381112218E-005
   7.6000000000000234E-003    -9.1708488980657421E-006
   8.7000000000000133E-003     1.1990578968834598E-005
   9.8000000000000032E-003     2.8874344934592955E-005
   1.0900000000000021E-002     3.2189254852710292E-005
   1.2000000000000011E-002     2.0471978132263757E-005
   1.3100000000000001E-002     5.8595838936525979E-007
   1.4200000000000018E-002    -1.7323302017757669E-005
   1.5300000000000008E-002    -2.6685054763220251E-005
   1.6400000000000026E-002    -2.7939608116867021E-005
   1.7500000000000016E-002    -2.5825316697591916E-005
   1.8600000000000005E-002    -2.2791720766690560E-005
   1.9700000000000023E-002    -1.4567035577783827E-005
   2.0800000000000013E-002     6.9805842031200882E-006
   2.1900000000000003E-002     4.4269443606026471E-005
   2.3000000000000020E-002     8.4972722106613219E-005
   2.4100000000000010E-002     1.0279064736096188E-004
   2.5200000000000000E-002     7.1640373789705336E-005
   2.6300000000000018E-002    -1.3602496437670197E-005
   2.7400000000000008E-002    -1.2436232645995915E-004
   2.8500000000000025E-002    -2.0598949049599469E-004
   2.9600000000000015E-002    -2.0558838150463998E-004
   3.0700000000000005E-002    -1.0487743566045538E-004
   3.1800000000000023E-002     6.3296312873717397E-005
   3.2900000000000013E-002     2.2754378733225167E-004
   3.4000000000000002E-002     3.1370122451335192E-004
   3.5100000000000020E-002     2.8223422123119235E-004
   3.6200000000000010E-002     1.4484366693068296E-004
   3.7300000000000028E-002    -4.7323486796813086E-005
   3.8400000000000017E-002    -2.3208951461128891E-004
   3.9500000000000007E-002    -3.6038886173628271E-004
   4.0600000000000025E-002    -4.0291211917065084E-004
   4.1700000000000015E-002    -3.4336690441705287E-004
   4.2800000000000005E-002    -1.7430895240977407E-004
   4.3900000000000022E-002     9.2655711341649294E-005
   4.5000000000000012E-002     4.0751422056928277E-004
   4.6100000000000002E-002     6.7371514160186052E-004
   4.7200000000000020E-002     7.7052816050127149E-004
   4.8300000000000010E-002     6.0583924641832709E-004
   4.9400000000000027E-002     1.7463890253566206E-004
   5.0500000000000017E-002    -4.1304010665044188E-004
   5.1600000000000007E-002    -9.5886323833838105E-004
   5.2700000000000025E-002    -1.2519059237092733E-003
   5.3800000000000014E-002    -1.1583226732909679E-003
   5.4900000000000004E-002    -6.8001117324456573E-004
   5.6000000000000022E-002     4.6512635890394449E-005
   5.7100000000000012E-002     8.0726406304165721E-004
   5.8200000000000002E-002     1.3911328278481960E-003
   5.9300000000000019E-002     1.6528392443433404E-003
   6.0400000000000009E-002     1.5353368362411857E-003
   6.1500000000000027E-002     1.0581579990684986E-003
   6.2600000000000017E-002     2.9824615921825171E-004
   6.3700000000000007E-002    -6.1514117987826467E-004
   6.4800000000000024E-002    -1.4960557455196977E-003
   6.5900000000000014E-002    -2.1174224093556404E-003
   6.7000000000000004E-002    -2.2738943807780743E-003
   6.8100000000000022E-002    -1.8841751152649522E-003
   6.9200000000000012E-002    -1.0793444234877825E-003
   7.0300000000000029E-002    -2.0704303460661322E-004
   7.1400000000000019E-002     2.8254624339751899E-004
   7.2500000000000009E-002     2.8722957722493447E-005
   7.3600000000000027E-002    -1.0717235272750258E-003
   7.4700000000000016E-002    -2.8213025070726871E-003
   7.5800000000000006E-002    -4.8322863876819611E-003
   7.6900000000000024E-002    -6.7230444401502609E-003
   7.8000000000000014E-002    -8.2800071686506271E-003
   7.9100000000000004E-002    -9.4988979399204254E-003
   8.0200000000000021E-002    -1.0512067936360836E-002
   8.1300000000000011E-002    -1.1489743366837502E-002
   8.2400000000000029E-002    -1.2610882520675659E-002
   8.3500000000000019E-002    -1.4123370870947838E-002
   8.4600000000000009E-002    -1.6422018408775330E-002
   8.5700000000000026E-002    -2.0038327202200890E-002
   8.6800000000000016E-002    -2.5492606684565544E-002
   8.7900000000000006E-002    -3.3071856945753098E-002
   8.9000000000000024E-002    -4.2671650648117065E-002
   9.0100000000000013E-002    -5.3830306977033615E-002
   9.1200000000000003E-002    -6.5973438322544098E-002
   9.2300000000000021E-002    -7.8760072588920593E-002
   9.3400000000000011E-002    -9.2354789376258850E-002
   9.4500000000000028E-002   -0.10747429728507996     
   9.5600000000000018E-002   -0.12519997358322144     
   9.6700000000000008E-002   -0.14664444327354431     
   9.7800000000000026E-002   -0.17266845703125000     
   9.8900000000000016E-002   -0.20377424359321594     
  0.10000000000000001        -0.24021135270595551     
  0.10110000000000002        -0.28220978379249573     
  0.10220000000000001        -0.33012509346008301     
  0.10330000000000003        -0.38449823856353760     
  0.10440000000000002        -0.44589823484420776     
  0.10550000000000001        -0.51484143733978271     
  0.10660000000000003        -0.59176099300384521     
  0.10770000000000002        -0.67716664075851440     
  0.10880000000000001        -0.77180230617523193     
  0.10990000000000003        -0.87667715549468994     
  0.11100000000000002        -0.99289494752883911     
  0.11210000000000001         -1.1213109493255615     
  0.11320000000000002         -1.2622656822204590     
  0.11430000000000001         -1.4156230688095093     
  0.11540000000000003         -1.5809829235076904     
  0.11650000000000002         -1.7579602003097534     
  0.11760000000000001         -1.9463621377944946     
  0.11870000000000003         -2.1460368633270264     
  0.11980000000000002         -2.3565165996551514     
  0.12090000000000001         -2.5768318176269531     
  0.12200000000000003         -2.8052649497985840     
  0.12310000000000001         -3.0396783351898193     
  0.12420000000000003         -3.2775273323059082     
  0.12530000000000002         -3.5158774852752686     
  0.12640000000000001         -3.7513020038604736     
  0.12750000000000003         -3.9799230098724365     
  0.12860000000000002         -4.1972131729125977     
  0.12970000000000001         -4.3978734016418457     
  0.13080000000000003         -4.5767412185668945     
  0.13190000000000002         -4.7283515930175781     
  0.13300000000000001         -4.8469033241271973     
  0.13410000000000000         -4.9263114929199219     
  0.13520000000000004         -4.9603271484375000     
  0.13630000000000003         -4.9416890144348145     
  0.13740000000000002         -4.8635196685791016     
  0.13850000000000001         -4.7185525894165039     
  0.13960000000000000         -4.4988484382629395     
  0.14070000000000005         -4.1980257034301758     
  0.14180000000000004         -3.8101837635040283     
  0.14290000000000003         -3.3306562900543213     
  0.14400000000000002         -2.7547559738159180     
  0.14510000000000001         -2.0797145366668701     
  0.14620000000000000         -1.3027327060699463     
  0.14730000000000004        -0.42396578192710876     
  0.14840000000000003         0.55612492561340332     
  0.14950000000000002          1.6328516006469727     
  0.15060000000000001          2.8020789623260498     
  0.15170000000000000          4.0566520690917969     
  0.15280000000000005          5.3875222206115723     
  0.15390000000000004          6.7848148345947266     
  0.15500000000000003          8.2351484298706055     
  0.15610000000000002          9.7235851287841797     
  0.15720000000000001          11.232666015625000     
  0.15830000000000000          12.742970466613770     
  0.15940000000000004          14.234164237976074     
  0.16050000000000003          15.683563232421875     
  0.16160000000000002          17.069320678710938     
  0.16270000000000001          18.367103576660156     
  0.16380000000000000          19.553043365478516     
  0.16490000000000005          20.602373123168945     
  0.16600000000000004          21.492547988891602     
  0.16710000000000003          22.200178146362305     
  0.16820000000000002          22.704946517944336     
  0.16930000000000001          22.987489700317383     
  0.17040000000000000          23.031719207763672     
  0.17150000000000004          22.823535919189453     
  0.17260000000000003          22.351978302001953     
  0.17370000000000002          21.610214233398438     
  0.17480000000000001          20.595924377441406     
  0.17590000000000000          19.310335159301758     
  0.17700000000000005          17.759481430053711     
  0.17810000000000004          15.953900337219238     
  0.17920000000000003          13.907944679260254     
  0.18030000000000002          11.640643119812012     
  0.18140000000000001          9.1749315261840820     
  0.18250000000000000          6.5380573272705078     
  0.18360000000000004          3.7606134414672852     
  0.18470000000000003         0.87628358602523804     
  0.18580000000000002         -2.0790817737579346     
  0.18690000000000001         -5.0678300857543945     
  0.18800000000000000         -8.0509576797485352     
  0.18910000000000005         -10.989501953125000     
  0.19020000000000004         -13.844289779663086     
  0.19130000000000003         -16.576658248901367     
  0.19240000000000002         -19.150327682495117     
  0.19350000000000001         -21.530628204345703     
  0.19460000000000005         -23.685380935668945     
  0.19570000000000004         -25.586347579956055     
  0.19680000000000003         -27.209566116333008     
  0.19790000000000002         -28.534193038940430     
  0.19900000000000001         -29.546230316162109     
  0.20010000000000000         -30.233146667480469     
  0.20120000000000005         -30.592035293579102     
  0.20230000000000004         -30.623071670532227     
  0.20340000000000003         -30.328672409057617     
  0.20450000000000002         -29.719682693481445     
  0.20560000000000000         -28.811292648315430     
  0.20670000000000005         -27.621131896972656     
  0.20780000000000004         -26.171516418457031     
  0.20890000000000003         -24.488430023193359     
