 -0.12000000000000000          0.0000000000000000
 -0.11889999999999999          0.0000000000000000
 -0.11780000000000000          0.0000000000000000
 -0.11670000000000000          0.0000000000000000
 -0.11559999999999999          0.0000000000000000
 -0.11449999999999999          0.0000000000000000
 -0.11340000000000000          0.0000000000000000
 -0.11230000000000000         -3.8211401660109682E-025
 -0.11119999999999999          4.0440402103521515E-024
 -0.11009999999999999          9.1070512631173788E-024
 -0.10900000000000000         -8.2472930617614390E-024
 -0.10790000000000000         -3.1842820089962118E-024
 -0.10679999999999999         -8.7790689311363544E-023
 -0.10569999999999999         -2.5665311872326981E-023
 -0.10460000000000000         -2.8754062036840023E-023
 -0.10349999999999999          9.8585443005746144E-023
 -0.10239999999999999          2.2592494173744507E-022
 -0.10130000000000000         -6.9016155701143899E-022
 -0.10020000000000000         -1.6062481314909699E-021
  -9.9099999999999994E-002    -4.6091868902582841E-021
  -9.7999999999999990E-002    -1.1785830926368928E-020
  -9.6899999999999986E-002     1.9060478901402199E-021
  -9.5799999999999996E-002     3.2292743373158066E-020
  -9.4699999999999993E-002     6.2679442895143747E-020
  -9.3599999999999989E-002     8.4718733276081512E-020
  -9.2499999999999999E-002     1.4014764729651387E-019
  -9.1399999999999995E-002     2.6235584090767810E-019
  -9.0299999999999991E-002     5.1812256785091191E-019
  -8.9200000000000002E-002     7.4049963238055992E-019
  -8.8099999999999984E-002     4.2864258943132371E-019
  -8.6999999999999994E-002    -4.1744863854497915E-019
  -8.5899999999999990E-002    -1.2635398923706762E-018
  -8.4799999999999986E-002    -1.1747213740977948E-018
  -8.3699999999999997E-002     1.1612406048598650E-019
  -8.2599999999999993E-002     1.6740865875833011E-018
  -8.1499999999999989E-002     2.1635808480240590E-018
  -8.0399999999999999E-002     7.8325566766523680E-019
  -7.9299999999999995E-002    -6.2835456913489491E-020
  -7.8199999999999992E-002    -9.0892652979342750E-019
  -7.7100000000000002E-002    -6.8654931016741463E-019
  -7.5999999999999984E-002    -9.9840627556846842E-019
  -7.4899999999999994E-002    -5.0499020708698942E-018
  -7.3799999999999991E-002    -1.3375271449785430E-017
  -7.2699999999999987E-002    -1.4221362238322032E-017
  -7.1599999999999997E-002    -5.4512385235520475E-018
  -7.0499999999999993E-002     6.5242903013803371E-018
  -6.9399999999999989E-002     4.6097336243314390E-018
  -6.8300000000000000E-002     9.1059855132461156E-018
  -6.7199999999999996E-002     3.2834669717496417E-017
  -6.6099999999999992E-002     7.5795777138095604E-017
  -6.5000000000000002E-002     7.6018156373974360E-017
  -6.3899999999999985E-002     1.4477546691474605E-018
  -6.2799999999999995E-002    -1.5005236306213214E-016
  -6.1699999999999991E-002    -3.0155246424979948E-016
  -6.0599999999999994E-002    -2.1371567701512057E-016
  -5.9499999999999990E-002     1.9038770143346749E-016
  -5.8399999999999994E-002     7.4835053840474055E-016
  -5.7299999999999990E-002     9.4730798980293502E-016
  -5.6199999999999986E-002     3.0858635819269720E-016
  -5.5099999999999996E-002    -9.2206672561211209E-016
  -5.3999999999999992E-002    -1.9304785075596699E-015
  -5.2899999999999989E-002    -1.7593011957325747E-015
  -5.1799999999999985E-002    -6.6625123471740705E-017
  -5.0699999999999995E-002     2.2585843429751484E-015
  -4.9599999999999991E-002     3.3529185118174720E-015
  -4.8499999999999988E-002     2.1564563099752765E-015
  -4.7399999999999998E-002    -8.8631897062266523E-016
  -4.6299999999999994E-002    -3.6555659249702752E-015
  -4.5199999999999990E-002    -4.3220673520444775E-015
  -4.4099999999999986E-002    -2.3387676581357927E-015
  -4.2999999999999997E-002     1.6617999743279610E-015
  -4.1899999999999993E-002     5.8675141161772595E-015
  -4.0799999999999989E-002     7.4747133938131427E-015
  -3.9699999999999985E-002     4.4319381132152010E-015
  -3.8599999999999995E-002    -2.5940866818442883E-015
  -3.7499999999999992E-002    -9.3465850564775771E-015
  -3.6399999999999988E-002    -1.1038817971688319E-014
  -3.5299999999999984E-002    -3.8755852741184215E-015
  -3.4199999999999994E-002     9.1343067414343879E-015
  -3.3099999999999991E-002     1.9682446997107764E-014
  -3.1999999999999987E-002     1.3818913935782599E-014
  -3.0899999999999997E-002    -1.3243028093405662E-014
  -2.9799999999999993E-002    -5.1040941628386835E-014
  -2.8699999999999989E-002    -6.6546330349404742E-014
  -2.7599999999999986E-002    -2.5602406005247220E-014
  -2.6499999999999996E-002     8.1398504202159078E-014
  -2.5399999999999992E-002     1.9858832460417641E-013
  -2.4299999999999988E-002     2.1216234606831474E-013
  -2.3199999999999985E-002     3.9600660532886078E-014
  -2.2099999999999995E-002    -2.4114130831032199E-013
  -2.0999999999999991E-002    -4.0912144006789719E-013
  -1.9899999999999987E-002    -3.3161028176881269E-013
  -1.8799999999999983E-002    -2.0506315287320553E-014
  -1.7699999999999994E-002     3.2998568612850609E-013
  -1.6599999999999990E-002     4.7040832600736548E-013
  -1.5499999999999986E-002     3.9310275954523854E-013
  -1.4399999999999996E-002     1.8231556130239579E-013
  -1.3299999999999992E-002    -5.9106778987298020E-014
  -1.2199999999999989E-002    -3.2678777761065148E-013
  -1.1099999999999985E-002    -4.6755183275362655E-013
  -9.9999999999999950E-003    -6.0393942451220095E-013
  -8.8999999999999913E-003    -6.5279812805352222E-013
  -7.7999999999999875E-003    -2.5963573738879697E-013
  -6.6999999999999837E-003     4.5738369688907987E-013
  -5.5999999999999939E-003     1.4632485761251202E-012
  -4.4999999999999901E-003     2.1802681188232143E-012
  -3.3999999999999864E-003     1.9344695116607635E-012
  -2.2999999999999826E-003     4.4576012802818865E-013
  -1.1999999999999927E-003    -1.6731574892930867E-012
  -9.9999999999988987E-005    -3.2318900160255293E-012
   1.0000000000000148E-003    -2.8999979501120876E-012
   2.1000000000000185E-003     2.3281983979606125E-013
   3.2000000000000084E-003     4.2409270539778277E-012
   4.3000000000000121E-003     7.7238597462336855E-012
   5.4000000000000159E-003     9.0360765744867955E-012
   6.5000000000000058E-003     8.1075519561824017E-012
   7.6000000000000234E-003     8.0193048382359855E-012
   8.7000000000000133E-003     5.1301328636566002E-012
   9.8000000000000032E-003    -7.0001101269701049E-013
   1.0900000000000021E-002    -1.2832237876458930E-011
   1.2000000000000011E-002    -1.4320947205881396E-011
   1.3100000000000001E-002    -6.7066486912625844E-012
   1.4200000000000018E-002     7.0696859824637137E-012
   1.5300000000000008E-002     1.4964076852641561E-011
   1.6400000000000026E-002     1.3895506273398084E-011
   1.7500000000000016E-002     1.8148694352904116E-011
   1.8600000000000005E-002     3.9767619752772987E-011
   1.9700000000000023E-002     3.3377290514780000E-011
   2.0800000000000013E-002    -2.3989881262065360E-011
   2.1900000000000003E-002    -7.6875568411072237E-011
   2.3000000000000020E-002    -5.9738131108488801E-011
   2.4100000000000010E-002     3.2464114729791049E-011
   2.5200000000000000E-002     7.3129328981291764E-011
   2.6300000000000018E-002    -2.7372094174582529E-011
   2.7400000000000008E-002    -2.0966055280791096E-010
   2.8500000000000025E-002    -2.7879162867172624E-010
   2.9600000000000015E-002    -3.7580161205141849E-011
   3.0700000000000005E-002     4.3554793105471390E-010
   3.1800000000000023E-002     6.8236127859222506E-010
   3.2900000000000013E-002     3.7123026874752441E-010
   3.4000000000000002E-002    -2.8273403063217017E-010
   3.5100000000000020E-002    -6.9245770228931747E-010
   3.6200000000000010E-002    -5.8008886583138519E-010
   3.7300000000000028E-002    -5.9905261307058311E-011
   3.8400000000000017E-002     3.9977840482485760E-010
   3.9500000000000007E-002     1.7827697651462415E-010
   4.0600000000000025E-002    -2.8970592591548439E-010
   4.1700000000000015E-002    -4.2157771718009940E-010
   4.2800000000000005E-002    -6.0486643471691082E-011
   4.3900000000000022E-002     3.6782663026535545E-010
   4.5000000000000012E-002     4.6451034685368597E-010
   4.6100000000000002E-002     5.4774956792513763E-010
   4.7200000000000020E-002     7.3406286604793536E-010
   4.8300000000000010E-002     8.6659840414782252E-010
   4.9400000000000027E-002     6.2268956657618446E-010
   5.0500000000000017E-002    -8.7293228201446027E-011
   5.1600000000000007E-002    -9.2723900779745350E-010
   5.2700000000000025E-002    -1.3683328914382287E-009
   5.3800000000000014E-002    -1.0923899562698125E-009
   5.4900000000000004E-002    -5.9237292848735024E-010
   5.6000000000000022E-002     3.3125585607862718E-011
   5.7100000000000012E-002     6.6758704120317702E-010
   5.8200000000000002E-002     9.4801155814394633E-010
   5.9300000000000019E-002     7.9373241312907794E-010
   6.0400000000000009E-002     1.7113854777761617E-010
   6.1500000000000027E-002    -1.7808499119809085E-010
   6.2600000000000017E-002    -8.9478990883407050E-010
   6.3700000000000007E-002    -1.4025457462096824E-009
   6.4800000000000024E-002    -1.8408387036927820E-009
   6.5900000000000014E-002    -1.7996132362085859E-009
   6.7000000000000004E-002    -1.5746469683719511E-009
   6.8100000000000022E-002    -6.1919941396482159E-010
   6.9200000000000012E-002     8.9195184571622121E-010
   7.0300000000000029E-002     1.3275477384055989E-009
   7.1400000000000019E-002     1.2074399258210633E-009
   7.2500000000000009E-002     1.0962951657589315E-009
   7.3600000000000027E-002     9.7618735317439587E-010
   7.4700000000000016E-002    -3.2703129093647476E-010
   7.5800000000000006E-002    -1.2000277438417584E-009
   7.6900000000000024E-002     2.2149404532711969E-010
   7.8000000000000014E-002     2.2166455337924162E-009
   7.9100000000000004E-002     1.3077975369313322E-009
   8.0200000000000021E-002    -2.0927535260284458E-009
   8.1300000000000011E-002    -4.6328603175993521E-009
   8.2400000000000029E-002    -3.5340044224341227E-009
   8.3500000000000019E-002     2.1788815196543965E-010
   8.4600000000000009E-002     3.7188176982283494E-009
   8.5700000000000026E-002     4.2798964372536830E-009
   8.6800000000000016E-002     2.3492716660911128E-009
   8.7900000000000006E-002     2.3938764859288142E-010
   8.9000000000000024E-002    -5.9775578931109408E-010
   9.0100000000000013E-002    -2.1593637988814862E-010
   9.1200000000000003E-002     4.7062370667205755E-010
   9.2300000000000021E-002     2.2503582330912764E-010
   9.3400000000000011E-002    -1.3112185781594121E-009
   9.4500000000000028E-002    -2.7399174040709795E-009
   9.5600000000000018E-002    -2.8420981124099853E-009
   9.6700000000000008E-002    -1.5639827211089141E-009
   9.7800000000000026E-002    -2.6794130802976213E-010
   9.8900000000000016E-002     1.3180392888223480E-010
  0.10000000000000001         -2.5719140706037535E-010
  0.10110000000000002         -8.4337192785000070E-010
  0.10220000000000001         -7.5733030957536585E-010
  0.10330000000000003          6.1041482979362627E-010
  0.10440000000000002          1.9871231327073247E-009
  0.10550000000000001          3.1935349920075851E-009
  0.10660000000000003          3.4677989368958606E-009
  0.10770000000000002          2.5667945546814508E-009
  0.10880000000000001          1.1257716980850319E-009
  0.10990000000000003          3.3904501428594358E-010
  0.11100000000000002          1.2552809902643958E-009
  0.11210000000000001          1.9384800431510030E-009
  0.11320000000000002          2.5320494589919917E-009
  0.11430000000000001          2.3548043515120298E-009
  0.11540000000000003          2.5719293361703421E-009
  0.11650000000000002          4.3127581506041679E-009
  0.11760000000000001          6.5017347061768760E-009
  0.11870000000000003          6.8443410938812121E-009
  0.11980000000000002          4.1395407102129411E-009
  0.12090000000000001          2.6955521148508410E-010
  0.12200000000000003         -1.6285788273506796E-009
  0.12310000000000001          1.3849901225881922E-009
  0.12420000000000003          7.0874475177618024E-009
  0.12530000000000002          9.4915355575153626E-009
  0.12640000000000001          5.0479203039799359E-009
  0.12750000000000003         -2.5327309138845067E-009
  0.12860000000000002         -6.2055312000097729E-009
  0.12970000000000001         -2.0267774125670712E-009
  0.13080000000000003          5.5937539045203266E-009
  0.13190000000000002          8.2129520961871094E-009
  0.13300000000000001          1.9767445458285238E-009
  0.13410000000000000         -8.0418320891340045E-009
  0.13520000000000004         -1.2718484043716671E-008
  0.13630000000000003         -7.8226918276413926E-009
  0.13740000000000002          2.0923580645870743E-009
  0.13850000000000001          7.7410380328046813E-009
  0.13960000000000000          4.6956447619095343E-009
  0.14070000000000005         -2.8133029239540974E-009
  0.14180000000000004         -5.4105475655319424E-009
  0.14290000000000003          1.5108725381907107E-009
  0.14400000000000002          1.2411846661564141E-008
  0.14510000000000001          1.6949117664921687E-008
  0.14620000000000000          9.9241690421081330E-009
  0.14730000000000004         -3.4465563736318927E-009
  0.14840000000000003         -1.2192394649446214E-008
  0.14950000000000002         -1.0164750818830726E-008
  0.15060000000000001         -1.6837746752429439E-009
  0.15170000000000000          3.2837208507885407E-009
  0.15280000000000005         -4.1596726063630740E-010
  0.15390000000000004         -7.7187660707522809E-009
  0.15500000000000003         -8.3620843582821180E-009
  0.15610000000000002          1.6515580014697662E-009
  0.15720000000000001          1.4829127259474717E-008
  0.15830000000000000          1.9025808484229856E-008
  0.15940000000000004          9.1954550640593880E-009
  0.16050000000000003         -6.8731207392147553E-009
  0.16160000000000002         -1.5511401940671021E-008
  0.16270000000000001         -9.9209813697598292E-009
  0.16380000000000000          3.7587928325422126E-009
  0.16490000000000005          1.2586244046985939E-008
  0.16600000000000004          9.0851415279757930E-009
  0.16710000000000003         -2.1509976022571209E-009
  0.16820000000000002         -9.3045082749654284E-009
  0.16930000000000001         -5.3977249336867317E-009
  0.17040000000000000          5.0161683695648662E-009
  0.17150000000000004          1.1549099454555289E-008
  0.17260000000000003          8.3930693506317766E-009
  0.17370000000000002          2.9557689629200468E-011
  0.17480000000000001         -4.2199541638865412E-009
  0.17590000000000000         -2.6835600408503524E-010
  0.17700000000000005          6.4438339109074150E-009
  0.17810000000000004          7.1508399202002693E-009
  0.17920000000000003         -3.8807845825772347E-010
  0.18030000000000002         -9.2355882941319578E-009
  0.18140000000000001         -1.0536286509932324E-008
  0.18250000000000000         -2.3720971853435913E-009
  0.18360000000000004          8.0149069603407952E-009
  0.18470000000000003          1.1285320233866969E-008
  0.18580000000000002          5.3059565630064753E-009
  0.18690000000000001         -3.2009621619977224E-009
  0.18800000000000000         -5.8640297062595437E-009
  0.18910000000000005         -1.6793950674554026E-009
  0.19020000000000004          2.2004988942114778E-009
  0.19130000000000003         -1.5739762826427750E-009
  0.19240000000000002         -1.2106524671651187E-008
  0.19350000000000001         -1.9860555866557661E-008
  0.19460000000000005         -1.6455700801998319E-008
  0.19570000000000004         -2.8958093700737209E-009
  0.19680000000000003          1.0072527700799583E-008
  0.19790000000000002          1.2061238230387517E-008
  0.19900000000000001          2.7835049820623681E-009
  0.20010000000000000         -7.3905255248973845E-009
  0.20120000000000005         -7.7590760483303711E-009
  0.20230000000000004          2.5024462502187816E-009
  0.20340000000000003          1.3552709177133693E-008
  0.20450000000000002          1.4456898789205752E-008
  0.20560000000000000          3.8257574885847134E-009
  0.20670000000000005         -8.8399767506075477E-009
  0.20780000000000004         -1.2488970746460382E-008
  0.20890000000000003         -5.1717812254992168E-009
