 -0.12000000000000000          0.0000000000000000     
 -0.11889999999999999          0.0000000000000000     
 -0.11780000000000000          9.6635453417093231E-008
 -0.11670000000000000          3.5644274021251476E-007
 -0.11559999999999999          3.6316885143605759E-007
 -0.11449999999999999         -6.3250303128370433E-007
 -0.11340000000000000         -2.5173542326228926E-006
 -0.11230000000000000         -3.3898563742695842E-006
 -0.11119999999999999         -7.9453434409515467E-007
 -0.11009999999999999          5.1913989409513306E-006
 -0.10900000000000000          1.0271859537169803E-005
 -0.10790000000000000          8.6624368123011664E-006
 -0.10679999999999999         -1.1212177923880517E-006
 -0.10569999999999999         -1.3072121873847209E-005
 -0.10460000000000000         -1.7569009287399240E-005
 -0.10349999999999999         -1.0010481673816685E-005
 -0.10239999999999999          3.9319957068073563E-006
 -0.10130000000000000          1.2587483979586978E-005
 -0.10020000000000000          9.1505226009758189E-006
  -9.9099999999999994E-002    -1.1796405487984885E-006
  -9.7999999999999990E-002    -5.5642867664573714E-006
  -9.6899999999999986E-002     3.8245643736445345E-006
  -9.5799999999999996E-002     2.0881538148387335E-005
  -9.4699999999999993E-002     2.9630538847413845E-005
  -9.3599999999999989E-002     1.8203470972366631E-005
  -9.2499999999999999E-002    -1.0260134331474546E-005
  -9.1399999999999995E-002    -4.0243896364700049E-005
  -9.0299999999999991E-002    -5.7690569519763812E-005
  -8.9200000000000002E-002    -6.2223582062870264E-005
  -8.8099999999999984E-002    -6.6926419094670564E-005
  -8.6999999999999994E-002    -8.7001040810719132E-005
  -8.5899999999999990E-002    -1.2869680358562618E-004
  -8.4799999999999986E-002    -1.8830467888619751E-004
  -8.3699999999999997E-002    -2.6021519443020225E-004
  -8.2599999999999993E-002    -3.4440163290128112E-004
  -8.1499999999999989E-002    -4.4557615183293819E-004
  -8.0399999999999999E-002    -5.6593859335407615E-004
  -7.9299999999999995E-002    -7.0062093436717987E-004
  -7.8199999999999992E-002    -8.4250501822680235E-004
  -7.7100000000000002E-002    -9.9377695005387068E-004
  -7.5999999999999984E-002    -1.1744392104446888E-003
  -7.4899999999999994E-002    -1.4194254763424397E-003
  -7.3799999999999991E-002    -1.7644863110035658E-003
  -7.2699999999999987E-002    -2.2296560928225517E-003
  -7.1599999999999997E-002    -2.8117017354816198E-003
  -7.0499999999999993E-002    -3.4920470789074898E-003
  -6.9399999999999989E-002    -4.2571397498250008E-003
  -6.8300000000000000E-002    -5.1195812411606312E-003
  -6.7199999999999996E-002    -6.1260065995156765E-003
  -6.6099999999999992E-002    -7.3449928313493729E-003
  -6.5000000000000002E-002    -8.8422857224941254E-003
  -6.3899999999999985E-002    -1.0661415755748749E-002
  -6.2799999999999995E-002    -1.2825420126318932E-002
  -6.1699999999999991E-002    -1.5358898788690567E-002
  -6.0599999999999994E-002    -1.8311651423573494E-002
  -5.9499999999999990E-002    -2.1762926131486893E-002
  -5.8399999999999994E-002    -2.5802835822105408E-002
  -5.7299999999999990E-002    -3.0510140582919121E-002
  -5.6199999999999986E-002    -3.5950906574726105E-002
  -5.5099999999999996E-002    -4.2202647775411606E-002
  -5.3999999999999992E-002    -4.9381792545318604E-002
  -5.2899999999999989E-002    -5.7645905762910843E-002
  -5.1799999999999985E-002    -6.7164920270442963E-002
  -5.0699999999999995E-002    -7.8086331486701965E-002
  -4.9599999999999991E-002    -9.0527094900608063E-002
  -4.8499999999999988E-002   -0.10459970682859421     
  -4.7399999999999998E-002   -0.12044653296470642     
  -4.6299999999999994E-002   -0.13824893534183502     
  -4.5199999999999990E-002   -0.15820498764514923     
  -4.4099999999999986E-002   -0.18050161004066467     
  -4.2999999999999997E-002   -0.20531059801578522     
  -4.1899999999999993E-002   -0.23280757665634155     
  -4.0799999999999989E-002   -0.26318520307540894     
  -3.9699999999999985E-002   -0.29663693904876709     
  -3.8599999999999995E-002   -0.33332082629203796     
  -3.7499999999999992E-002   -0.37334096431732178     
  -3.6399999999999988E-002   -0.41676893830299377     
  -3.5299999999999984E-002   -0.46368122100830078     
  -3.4199999999999994E-002   -0.51416289806365967     
  -3.3099999999999991E-002   -0.56826180219650269     
  -3.1999999999999987E-002   -0.62593019008636475     
  -3.0899999999999997E-002   -0.68701642751693726     
  -2.9799999999999993E-002   -0.75131827592849731     
  -2.8699999999999989E-002   -0.81864088773727417     
  -2.7599999999999986E-002   -0.88878887891769409     
  -2.6499999999999996E-002   -0.96147650480270386     
  -2.5399999999999992E-002    -1.0362340211868286     
  -2.4299999999999988E-002    -1.1124007701873779     
  -2.3199999999999985E-002    -1.1892192363739014     
  -2.2099999999999995E-002    -1.2659424543380737     
  -2.0999999999999991E-002    -1.3418458700180054     
  -1.9899999999999987E-002    -1.4161245822906494     
  -1.8799999999999983E-002    -1.4877728223800659     
  -1.7699999999999994E-002    -1.5555726289749146     
  -1.6599999999999990E-002    -1.6182115077972412     
  -1.5499999999999986E-002    -1.6744184494018555     
  -1.4399999999999996E-002    -1.7229909896850586     
  -1.3299999999999992E-002    -1.7626923322677612     
  -1.2199999999999989E-002    -1.7921328544616699     
  -1.1099999999999985E-002    -1.8097696304321289     
  -9.9999999999999950E-003    -1.8140474557876587     
  -8.8999999999999913E-003    -1.8035587072372437     
  -7.7999999999999875E-003    -1.7770825624465942     
  -6.6999999999999837E-003    -1.7334911823272705     
  -5.5999999999999939E-003    -1.6716482639312744     
  -4.4999999999999901E-003    -1.5904378890991211     
  -3.3999999999999864E-003    -1.4889154434204102     
  -2.2999999999999826E-003    -1.3664445877075195     
  -1.1999999999999927E-003    -1.2226980924606323     
  -9.9999999999988987E-005    -1.0575478076934814     
   1.0000000000000148E-003   -0.87099039554595947     
   2.1000000000000185E-003   -0.66321629285812378     
   3.2000000000000084E-003   -0.43475660681724548     
   4.3000000000000121E-003   -0.18658383190631866     
   5.4000000000000159E-003     7.9943329095840454E-002
   6.5000000000000058E-003    0.36323237419128418     
   7.6000000000000234E-003    0.66152429580688477     
   8.7000000000000133E-003    0.97281253337860107     
   9.8000000000000032E-003     1.2946832180023193     
   1.0900000000000021E-002     1.6242785453796387     
   1.2000000000000011E-002     1.9584603309631348     
   1.3100000000000001E-002     2.2940387725830078     
   1.4200000000000018E-002     2.6278638839721680     
   1.5300000000000008E-002     2.9566960334777832     
   1.6400000000000026E-002     3.2770287990570068     
   1.7500000000000016E-002     3.5850834846496582     
   1.8600000000000005E-002     3.8770496845245361     
   1.9700000000000023E-002     4.1493749618530273     
   2.0800000000000013E-002     4.3988637924194336     
   2.1900000000000003E-002     4.6225342750549316     
   2.3000000000000020E-002     4.8174109458923340     
   2.4100000000000010E-002     4.9805359840393066     
   2.5200000000000000E-002     5.1092319488525391     
   2.6300000000000018E-002     5.2014021873474121     
   2.7400000000000008E-002     5.2556085586547852     
   2.8500000000000025E-002     5.2708783149719238     
   2.9600000000000015E-002     5.2464675903320312     
   3.0700000000000005E-002     5.1818475723266602     
   3.1800000000000023E-002     5.0769381523132324     
   3.2900000000000013E-002     4.9323549270629883     
   3.4000000000000002E-002     4.7494182586669922     
   3.5100000000000020E-002     4.5299072265625000     
   3.6200000000000010E-002     4.2758150100708008     
   3.7300000000000028E-002     3.9893383979797363     
   3.8400000000000017E-002     3.6730823516845703     
   3.9500000000000007E-002     3.3302111625671387     
   4.0600000000000025E-002     2.9643445014953613     
   4.1700000000000015E-002     2.5792844295501709     
   4.2800000000000005E-002     2.1788039207458496     
   4.3900000000000022E-002     1.7666625976562500     
   4.5000000000000012E-002     1.3467952013015747     
   4.6100000000000002E-002    0.92339599132537842     
   4.7200000000000020E-002    0.50073111057281494     
   4.8300000000000010E-002     8.2816377282142639E-002
   4.9400000000000027E-002   -0.32673543691635132     
   5.0500000000000017E-002   -0.72458213567733765     
   5.1600000000000007E-002    -1.1074260473251343     
   5.2700000000000025E-002    -1.4719588756561279     
   5.3800000000000014E-002    -1.8151062726974487     
   5.4900000000000004E-002    -2.1343402862548828     
   5.6000000000000022E-002    -2.4277715682983398     
   5.7100000000000012E-002    -2.6939380168914795     
   5.8200000000000002E-002    -2.9314985275268555     
   5.9300000000000019E-002    -3.1391727924346924     
   6.0400000000000009E-002    -3.3160047531127930     
   6.1500000000000027E-002    -3.4616930484771729     
   6.2600000000000017E-002    -3.5766260623931885     
   6.3700000000000007E-002    -3.6615674495697021     
   6.4800000000000024E-002    -3.7172799110412598     
   6.5900000000000014E-002    -3.7444567680358887     
   6.7000000000000004E-002    -3.7440197467803955     
   6.8100000000000022E-002    -3.7174389362335205     
   6.9200000000000012E-002    -3.6667113304138184     
   7.0300000000000029E-002    -3.5939934253692627     
   7.1400000000000019E-002    -3.5012390613555908     
   7.2500000000000009E-002    -3.3901789188385010     
   7.3600000000000027E-002    -3.2626347541809082     
   7.4700000000000016E-002    -3.1207959651947021     
   7.5800000000000006E-002    -2.9671511650085449     
   7.6900000000000024E-002    -2.8041148185729980     
   7.8000000000000014E-002    -2.6337137222290039     
   7.9100000000000004E-002    -2.4576380252838135     
   8.0200000000000021E-002    -2.2775728702545166     
   8.1300000000000011E-002    -2.0954365730285645     
   8.2400000000000029E-002    -1.9132543802261353     
   8.3500000000000019E-002    -1.7327880859375000     
   8.4600000000000009E-002    -1.5553081035614014     
   8.5700000000000026E-002    -1.3817507028579712     
   8.6800000000000016E-002    -1.2130849361419678     
   8.7900000000000006E-002    -1.0504947900772095     
   8.9000000000000024E-002   -0.89517402648925781     
   9.0100000000000013E-002   -0.74794602394104004     
   9.1200000000000003E-002   -0.60912078619003296     
   9.2300000000000021E-002   -0.47875049710273743     
   9.3400000000000011E-002   -0.35703167319297791     
   9.4500000000000028E-002   -0.24443067610263824     
   9.5600000000000018E-002   -0.14138923585414886     
   9.6700000000000008E-002    -4.7926962375640869E-002
   9.7800000000000026E-002     3.6426365375518799E-002
   9.8900000000000016E-002    0.11227720975875854     
  0.10000000000000001         0.17994219064712524     
  0.10110000000000002         0.23938518762588501     
  0.10220000000000001         0.29058155417442322     
  0.10330000000000003         0.33392858505249023     
  0.10440000000000002         0.37026515603065491     
  0.10550000000000001         0.40046611428260803     
  0.10660000000000003         0.42501786351203918     
  0.10770000000000002         0.44401040673255920     
  0.10880000000000001         0.45754858851432800     
  0.10990000000000003         0.46614795923233032     
  0.11100000000000002         0.47069758176803589     
  0.11210000000000001         0.47202599048614502     
  0.11320000000000002         0.47051769495010376     
  0.11430000000000001         0.46617114543914795     
  0.11540000000000003         0.45903518795967102     
  0.11650000000000002         0.44956344366073608     
  0.11760000000000001         0.43851387500762939     
  0.11870000000000003         0.42650273442268372     
  0.11980000000000002         0.41368481516838074     
  0.12090000000000001         0.39989334344863892     
  0.12200000000000003         0.38508802652359009     
  0.12310000000000001         0.36963611841201782     
  0.12420000000000003         0.35413390398025513     
  0.12530000000000002         0.33896243572235107     
  0.12640000000000001         0.32404893636703491     
  0.12750000000000003         0.30909073352813721     
  0.12860000000000002         0.29400473833084106     
  0.12970000000000001         0.27912425994873047     
  0.13080000000000003         0.26493337750434875     
  0.13190000000000002         0.25162187218666077     
  0.13300000000000001         0.23893690109252930     
  0.13410000000000000         0.22649271786212921     
  0.13520000000000004         0.21421435475349426     
  0.13630000000000003         0.20244629681110382     
  0.13740000000000002         0.19160880148410797     
  0.13850000000000001         0.18176259100437164     
  0.13960000000000000         0.17254237830638885     
  0.14070000000000005         0.16353386640548706     
  0.14180000000000004         0.15470081567764282     
  0.14290000000000003         0.14641286432743073     
  0.14400000000000002         0.13904277980327606     
  0.14510000000000001         0.13255436718463898     
  0.14620000000000000         0.12651550769805908     
  0.14730000000000004         0.12052268534898758     
  0.14840000000000003         0.11459231376647949     
  0.14950000000000002         0.10910943895578384     
  0.15060000000000001         0.10438829660415649     
  0.15170000000000000         0.10031000524759293     
  0.15280000000000005          9.6416547894477844E-002
  0.15390000000000004          9.2359684407711029E-002
  0.15500000000000003          8.8233865797519684E-002
  0.15610000000000002          8.4444105625152588E-002
  0.15720000000000001          8.1251464784145355E-002
  0.15830000000000000          7.8476525843143463E-002
  0.15940000000000004          7.5671203434467316E-002
  0.16050000000000003          7.2573952376842499E-002
  0.16160000000000002          6.9366976618766785E-002
  0.16270000000000001          6.6465511918067932E-002
  0.16380000000000000          6.4064614474773407E-002
  0.16490000000000005          6.1922311782836914E-002
  0.16600000000000004          5.9608317911624908E-002
  0.16710000000000003          5.6954305619001389E-002
  0.16820000000000002          5.4228033870458603E-002
  0.16930000000000001          5.1848754286766052E-002
  0.17040000000000000          4.9945157021284103E-002
  0.17150000000000004          4.8222333192825317E-002
  0.17260000000000003          4.6276450157165527E-002
  0.17370000000000002          4.4023841619491577E-002
  0.17480000000000001          4.1791666299104691E-002
  0.17590000000000000          3.9973638951778412E-002
  0.17700000000000005          3.8614183664321899E-002
  0.17810000000000004          3.7358373403549194E-002
  0.17920000000000003          3.5819381475448608E-002
  0.18030000000000002          3.3978234976530075E-002
  0.18140000000000001          3.2197177410125732E-002
  0.18250000000000000          3.0835928395390511E-002
  0.18360000000000004          2.9875837266445160E-002
  0.18470000000000003          2.8943855315446854E-002
  0.18580000000000002          2.7707582339644432E-002
  0.18690000000000001          2.6224130764603615E-002
  0.18800000000000000          2.4878354743123055E-002
  0.18910000000000005          2.3979289457201958E-002
  0.19020000000000004          2.3439632728695869E-002
  0.19130000000000003          2.2872596979141235E-002
  0.19240000000000002          2.1998872980475426E-002
  0.19350000000000001          2.0934984087944031E-002
  0.19460000000000005          2.0064665004611015E-002
  0.19570000000000004          1.9634686410427094E-002
  0.19680000000000003          1.9502522423863411E-002
  0.19790000000000002          1.9296636804938316E-002
  0.19900000000000001          1.8814152106642723E-002
  0.20010000000000000          1.8234839662909508E-002
  0.20120000000000005          1.7928872257471085E-002
  0.20230000000000004          1.8064498901367188E-002
  0.20340000000000003          1.8428573384881020E-002
  0.20450000000000002          1.8644390627741814E-002
  0.20560000000000000          1.8553072586655617E-002
  0.20670000000000005          1.8358249217271805E-002
  0.20780000000000004          1.8388710916042328E-002
  0.20890000000000003          1.8735636025667191E-002
