 -0.12000000000000000          0.0000000000000000     
 -0.11889999999999999          0.0000000000000000     
 -0.11780000000000000          0.0000000000000000     
 -0.11670000000000000          0.0000000000000000     
 -0.11559999999999999          0.0000000000000000     
 -0.11449999999999999          0.0000000000000000     
 -0.11340000000000000          2.1711025100327256E-023
 -0.11230000000000000         -3.1841620201536296E-016
 -0.11119999999999999         -2.2528776702512594E-015
 -0.11009999999999999         -4.5913315026800943E-015
 -0.10900000000000000          1.1094257125119061E-014
 -0.10790000000000000          8.5399813306089034E-014
 -0.10679999999999999          1.9858756566265567E-013
 -0.10569999999999999          7.2923614304228057E-014
 -0.10460000000000000         -8.4122758672172671E-013
 -0.10349999999999999         -2.5666400428614455E-012
 -0.10239999999999999         -2.9965270716136860E-012
 -0.10130000000000000          2.3731407464144816E-012
 -0.10020000000000000          1.5761083410614773E-011
  -9.9099999999999994E-002     2.7672950736468138E-011
  -9.7999999999999990E-002     1.3142036070501462E-011
  -9.6899999999999986E-002    -4.9615214714471279E-011
  -9.5799999999999996E-002    -1.3678046195675364E-010
  -9.4699999999999993E-002    -1.5079196225009639E-010
  -9.3599999999999989E-002     2.9089966546713697E-011
  -9.2499999999999999E-002     3.9880126978530939E-010
  -9.1399999999999995E-002     6.9157379822826215E-010
  -9.0299999999999991E-002     4.5621062483292008E-010
  -8.9200000000000002E-002    -5.4336524168974165E-010
  -8.8099999999999984E-002    -1.8414810787348301E-009
  -8.6999999999999994E-002    -2.2438688684900399E-009
  -8.5899999999999990E-002    -6.5183425324022437E-010
  -8.4799999999999986E-002     2.6423623289417719E-009
  -8.3699999999999997E-002     5.3981916714462841E-009
  -8.2599999999999993E-002     4.6990820123937738E-009
  -8.1499999999999989E-002    -3.6032976602484723E-010
  -8.0399999999999999E-002    -6.8493251070833594E-009
  -7.9299999999999995E-002    -9.4776817505248800E-009
  -7.8199999999999992E-002    -5.1869548656213738E-009
  -7.7100000000000002E-002     2.9985196547954729E-009
  -7.5999999999999984E-002     7.5459531956312276E-009
  -7.4899999999999994E-002     3.7587710721709300E-009
  -7.3799999999999991E-002    -3.4761657996540407E-009
  -7.2699999999999987E-002    -2.0404873346535624E-009
  -7.1599999999999997E-002     1.4558359850980196E-008
  -7.0499999999999993E-002     3.4492838807409498E-008
  -6.9399999999999989E-002     3.0767431269396184E-008
  -6.8300000000000000E-002    -1.5179885792804271E-008
  -6.7199999999999996E-002    -8.6256974896059546E-008
  -6.6099999999999992E-002    -1.2755189970903302E-007
  -6.5000000000000002E-002    -8.3051830301883456E-008
  -6.3899999999999985E-002     5.0517787286707971E-008
  -6.2799999999999995E-002     2.0017313318021479E-007
  -6.1699999999999991E-002     2.5629344690969447E-007
  -6.0599999999999994E-002     1.5597461811012181E-007
  -5.9499999999999990E-002    -5.6390511815607169E-008
  -5.8399999999999994E-002    -2.5082070465032302E-007
  -5.7299999999999990E-002    -3.0861801292303426E-007
  -5.6199999999999986E-002    -2.1514402703814994E-007
  -5.5099999999999996E-002    -6.2868963368600816E-008
  -5.3999999999999992E-002     4.3414306816202952E-008
  -5.2899999999999989E-002     9.0508862626847986E-008
  -5.1799999999999985E-002     1.6136176839154359E-007
  -5.0699999999999995E-002     3.2245577585854335E-007
  -4.9599999999999991E-002     5.0145513341703918E-007
  -4.8499999999999988E-002     4.9615590569374035E-007
  -4.7399999999999998E-002     1.4494355582428398E-007
  -4.6299999999999994E-002    -4.7758351229276741E-007
  -4.5199999999999990E-002    -1.0354630148867727E-006
  -4.4099999999999986E-002    -1.1436956128818565E-006
  -4.2999999999999997E-002    -6.6666507336776704E-007
  -4.1899999999999993E-002     1.5282810750250064E-007
  -4.0799999999999989E-002     8.6158917156353709E-007
  -3.9699999999999985E-002     1.1278926876912010E-006
  -3.8599999999999995E-002     9.5111886366794351E-007
  -3.7499999999999992E-002     5.7439558531768853E-007
  -3.6399999999999988E-002     2.0717786242130387E-007
  -3.5299999999999984E-002    -1.5365419869795005E-007
  -3.4199999999999994E-002    -6.2120147958921734E-007
  -3.3099999999999991E-002    -1.1510801414260641E-006
  -3.1999999999999987E-002    -1.4201087878973340E-006
  -3.0899999999999997E-002    -1.0389967428636737E-006
  -2.9799999999999993E-002     5.2896382385370089E-008
  -2.8699999999999989E-002     1.3847625268681441E-006
  -2.7599999999999986E-002     2.1819816993229324E-006
  -2.6499999999999996E-002     1.8775577927954146E-006
  -2.5399999999999992E-002     4.9375023536413210E-007
  -2.4299999999999988E-002    -1.4028007626620820E-006
  -2.3199999999999985E-002    -3.0796954888501205E-006
  -2.2099999999999995E-002    -3.9824280975153670E-006
  -2.0999999999999991E-002    -3.7809086279594339E-006
  -1.9899999999999987E-002    -2.2151934899738990E-006
  -1.8799999999999983E-002     9.5068401151365833E-007
  -1.7699999999999994E-002     5.7311322052555624E-006
  -1.6599999999999990E-002     1.1709446880558971E-005
  -1.5499999999999986E-002     1.8174308934248984E-005
  -1.4399999999999996E-002     2.4644446966703981E-005
  -1.3299999999999992E-002     3.1360199500340968E-005
  -1.2199999999999989E-002     3.9229715184774250E-005
  -1.1099999999999985E-002     4.9185418902197853E-005
  -9.9999999999999950E-003     6.1524326156359166E-005
  -8.8999999999999913E-003     7.5929317972622812E-005
  -7.7999999999999875E-003     9.2283298727124929E-005
  -6.6999999999999837E-003     1.1159773566760123E-004
  -5.5999999999999939E-003     1.3616352225653827E-004
  -4.4999999999999901E-003     1.6867692465893924E-004
  -3.3999999999999864E-003     2.1104146435391158E-004
  -2.2999999999999826E-003     2.6389921549707651E-004
  -1.1999999999999927E-003     3.2733316766098142E-004
  -9.9999999999988987E-005     4.0215894114226103E-004
   1.0000000000000148E-003     4.9074803246185184E-004
   2.1000000000000185E-003     5.9682701248675585E-004
   3.2000000000000084E-003     7.2465901030227542E-004
   4.3000000000000121E-003     8.7849487317726016E-004
   5.4000000000000159E-003     1.0627603624016047E-003
   6.5000000000000058E-003     1.2826290912926197E-003
   7.6000000000000234E-003     1.5442868461832404E-003
   8.7000000000000133E-003     1.8546502105891705E-003
   9.8000000000000032E-003     2.2210169117897749E-003
   1.0900000000000021E-002     2.6512655895203352E-003
   1.2000000000000011E-002     3.1546233221888542E-003
   1.3100000000000001E-002     3.7423307076096535E-003
   1.4200000000000018E-002     4.4275522232055664E-003
   1.5300000000000008E-002     5.2246372215449810E-003
   1.6400000000000026E-002     6.1485189944505692E-003
   1.7500000000000016E-002     7.2149480693042278E-003
   1.8600000000000005E-002     8.4413439035415649E-003
   1.9700000000000023E-002     9.8473336547613144E-003
   2.0800000000000013E-002     1.1454353109002113E-002
   2.1900000000000003E-002     1.3284678570926189E-002
   2.3000000000000020E-002     1.5360954217612743E-002
   2.4100000000000010E-002     1.7706818878650665E-002
   2.5200000000000000E-002     2.0348038524389267E-002
   2.6300000000000018E-002     2.3312825709581375E-002
   2.7400000000000008E-002     2.6630602777004242E-002
   2.8500000000000025E-002     3.0330007895827293E-002
   2.9600000000000015E-002     3.4437574446201324E-002
   3.0700000000000005E-002     3.8977965712547302E-002
   3.1800000000000023E-002     4.3975230306386948E-002
   3.2900000000000013E-002     4.9453444778919220E-002
   3.4000000000000002E-002     5.5435564368963242E-002
   3.5100000000000020E-002     6.1941318213939667E-002
   3.6200000000000010E-002     6.8985357880592346E-002
   3.7300000000000028E-002     7.6576359570026398E-002
   3.8400000000000017E-002     8.4716781973838806E-002
   3.9500000000000007E-002     9.3402385711669922E-002
   4.0600000000000025E-002    0.10262094438076019     
   4.1700000000000015E-002    0.11235094070434570     
   4.2800000000000005E-002    0.12256091833114624     
   4.3900000000000022E-002    0.13320907950401306     
   4.5000000000000012E-002    0.14424270391464233     
   4.6100000000000002E-002    0.15559677779674530     
   4.7200000000000020E-002    0.16719247400760651     
   4.8300000000000010E-002    0.17893619835376740     
   4.9400000000000027E-002    0.19071958959102631     
   5.0500000000000017E-002    0.20242062211036682     
   5.1600000000000007E-002    0.21390464901924133     
   5.2700000000000025E-002    0.22502397000789642     
   5.3800000000000014E-002    0.23561677336692810     
   5.4900000000000004E-002    0.24550785124301910     
   5.6000000000000022E-002    0.25451114773750305     
   5.7100000000000012E-002    0.26243281364440918     
   5.8200000000000002E-002    0.26907357573509216     
   5.9300000000000019E-002    0.27423083782196045     
   6.0400000000000009E-002    0.27770069241523743     
   6.1500000000000027E-002    0.27928075194358826     
   6.2600000000000017E-002    0.27877292037010193     
   6.3700000000000007E-002    0.27598804235458374     
   6.4800000000000024E-002    0.27075079083442688     
   6.5900000000000014E-002    0.26290151476860046     
   6.7000000000000004E-002    0.25229966640472412     
   6.8100000000000022E-002    0.23882897198200226     
   6.9200000000000012E-002    0.22240212559700012     
   7.0300000000000029E-002    0.20296663045883179     
   7.1400000000000019E-002    0.18050734698772430     
   7.2500000000000009E-002    0.15504504740238190     
   7.3600000000000027E-002    0.12663848698139191     
   7.4700000000000016E-002     9.5388017594814301E-002
   7.5800000000000006E-002     6.1440121382474899E-002
   7.6900000000000024E-002     2.4988833814859390E-002
   7.8000000000000014E-002    -1.3727029785513878E-002
   7.9100000000000004E-002    -5.4428644478321075E-002
   8.0200000000000021E-002    -9.6800737082958221E-002
   8.1300000000000011E-002   -0.14049072563648224     
   8.2400000000000029E-002   -0.18510776758193970     
   8.3500000000000019E-002   -0.23022612929344177     
   8.4600000000000009E-002   -0.27539557218551636     
   8.5700000000000026E-002   -0.32015377283096313     
   8.6800000000000016E-002   -0.36403241753578186     
   8.7900000000000006E-002   -0.40655738115310669     
   8.9000000000000024E-002   -0.44725295901298523     
   9.0100000000000013E-002   -0.48565241694450378     
   9.1200000000000003E-002   -0.52131080627441406     
   9.2300000000000021E-002   -0.55381655693054199     
   9.3400000000000011E-002   -0.58279746770858765     
   9.4500000000000028E-002   -0.60792130231857300     
   9.5600000000000018E-002   -0.62889891862869263     
   9.6700000000000008E-002   -0.64549279212951660     
   9.7800000000000026E-002   -0.65752917528152466     
   9.8900000000000016E-002   -0.66490679979324341     
  0.10000000000000001        -0.66759705543518066     
  0.10110000000000002        -0.66563850641250610     
  0.10220000000000001        -0.65913265943527222     
  0.10330000000000003        -0.64824587106704712     
  0.10440000000000002        -0.63321465253829956     
  0.10550000000000001        -0.61434704065322876     
  0.10660000000000003        -0.59201425313949585     
  0.10770000000000002        -0.56663709878921509     
  0.10880000000000001        -0.53867471218109131     
  0.10990000000000003        -0.50862050056457520     
  0.11100000000000002        -0.47700119018554688     
  0.11210000000000001        -0.44437149167060852     
  0.11320000000000002        -0.41129943728446960     
  0.11430000000000001        -0.37834602594375610     
  0.11540000000000003        -0.34605118632316589     
  0.11650000000000002        -0.31493055820465088     
  0.11760000000000001        -0.28547313809394836     
  0.11870000000000003        -0.25813379883766174     
  0.11980000000000002        -0.23331764340400696     
  0.12090000000000001        -0.21136237680912018     
  0.12200000000000003        -0.19253040850162506     
  0.12310000000000001        -0.17700873315334320     
  0.12420000000000003        -0.16491408646106720     
  0.12530000000000002        -0.15629258751869202     
  0.12640000000000001        -0.15110825002193451     
  0.12750000000000003        -0.14922975003719330     
  0.12860000000000002        -0.15042869746685028     
  0.12970000000000001        -0.15439550578594208     
  0.13080000000000003        -0.16075748205184937     
  0.13190000000000002        -0.16908393800258636     
  0.13300000000000001        -0.17887699604034424     
  0.13410000000000000        -0.18956546485424042     
  0.13520000000000004        -0.20051740109920502     
  0.13630000000000003        -0.21106462180614471     
  0.13740000000000002        -0.22053594887256622     
  0.13850000000000001        -0.22826658189296722     
  0.13960000000000000        -0.23358580470085144     
  0.14070000000000005        -0.23581750690937042     
  0.14180000000000004        -0.23429405689239502     
  0.14290000000000003        -0.22839052975177765     
  0.14400000000000002        -0.21755629777908325     
  0.14510000000000001        -0.20132540166378021     
  0.14620000000000000        -0.17930755019187927     
  0.14730000000000004        -0.15117989480495453     
  0.14840000000000003        -0.11670303344726562     
  0.14950000000000002         -7.5748272240161896E-002
  0.15060000000000001         -2.8317190706729889E-002
  0.15170000000000000          2.5454383343458176E-002
  0.15280000000000005          8.5314616560935974E-002
  0.15390000000000004         0.15091052651405334     
  0.15500000000000003         0.22178342938423157     
  0.15610000000000002         0.29735586047172546     
  0.15720000000000001         0.37691935896873474     
  0.15830000000000000         0.45965012907981873     
  0.15940000000000004         0.54464095830917358     
  0.16050000000000003         0.63092237710952759     
  0.16160000000000002         0.71746999025344849     
  0.16270000000000001         0.80320286750793457     
  0.16380000000000000         0.88699102401733398     
  0.16490000000000005         0.96768122911453247     
  0.16600000000000004          1.0441337823867798     
  0.16710000000000003          1.1152501106262207     
  0.16820000000000002          1.1799795627593994     
  0.16930000000000001          1.2373207807540894     
  0.17040000000000000          1.2863354682922363     
  0.17150000000000004          1.3261781930923462     
  0.17260000000000003          1.3561273813247681     
  0.17370000000000002          1.3755987882614136     
  0.17480000000000001          1.3841434717178345     
  0.17590000000000000          1.3814462423324585     
  0.17700000000000005          1.3673342466354370     
  0.17810000000000004          1.3417931795120239     
  0.17920000000000003          1.3049808740615845     
  0.18030000000000002          1.2572222948074341     
  0.18140000000000001          1.1989887952804565     
  0.18250000000000000          1.1308777332305908     
  0.18360000000000004          1.0536078214645386     
  0.18470000000000003         0.96802401542663574     
  0.18580000000000002         0.87509870529174805     
  0.18690000000000001         0.77590906620025635     
  0.18800000000000000         0.67159819602966309     
  0.18910000000000005         0.56334471702575684     
  0.19020000000000004         0.45234689116477966     
  0.19130000000000003         0.33983176946640015     
  0.19240000000000002         0.22704623639583588     
  0.19350000000000001         0.11522251367568970     
  0.19460000000000005          5.5410824716091156E-003
  0.19570000000000004        -0.10089366137981415     
  0.19680000000000003        -0.20305898785591125     
  0.19790000000000002        -0.30001658201217651     
  0.19900000000000001        -0.39090946316719055     
  0.20010000000000000        -0.47497746348381042     
  0.20120000000000005        -0.55158776044845581     
  0.20230000000000004        -0.62024545669555664     
  0.20340000000000003        -0.68058669567108154     
  0.20450000000000002        -0.73236161470413208     
  0.20560000000000000        -0.77542513608932495     
  0.20670000000000005        -0.80974727869033813     
  0.20780000000000004        -0.83542633056640625     
  0.20890000000000003        -0.85268366336822510     
