 -0.12000000000000000          0.0000000000000000     
 -0.11889999999999999          0.0000000000000000     
 -0.11780000000000000          0.0000000000000000     
 -0.11670000000000000          0.0000000000000000     
 -0.11559999999999999          0.0000000000000000     
 -0.11449999999999999          0.0000000000000000     
 -0.11340000000000000         -2.0840589216657938E-016
 -0.11230000000000000         -4.9959485536716329E-015
 -0.11119999999999999         -3.5840288256736713E-014
 -0.11009999999999999         -1.2586269916917137E-013
 -0.10900000000000000         -2.0133790197118112E-013
 -0.10790000000000000          1.7049865208909609E-013
 -0.10679999999999999          1.7425574871943184E-012
 -0.10569999999999999          4.3822918384395226E-012
 -0.10460000000000000          4.6883876989034512E-012
 -0.10349999999999999         -4.6262490366322240E-012
 -0.10239999999999999         -2.8277147984256956E-011
 -0.10130000000000000         -5.3909800235008021E-011
 -0.10020000000000000         -4.2100895686347783E-011
  -9.9099999999999994E-002     5.4803162008454365E-011
  -9.7999999999999990E-002     2.3278859395681195E-010
  -9.6899999999999986E-002     3.6948319404039864E-010
  -9.5799999999999996E-002     2.3581514518866697E-010
  -9.4699999999999993E-002    -3.4052072273027534E-010
  -9.3599999999999989E-002    -1.2060454857021341E-009
  -9.2499999999999999E-002    -1.7265785468012496E-009
  -9.1399999999999995E-002    -1.0274372463925374E-009
  -9.0299999999999991E-002     1.3013983224396952E-009
  -8.9200000000000002E-002     4.4139940591492177E-009
  -8.8099999999999984E-002     6.0744760332909209E-009
  -8.6999999999999994E-002     3.7653244966406874E-009
  -8.5899999999999990E-002    -3.2209963585216883E-009
  -8.4799999999999986E-002    -1.2056056597486986E-008
  -8.3699999999999997E-002    -1.6776153799469284E-008
  -8.2599999999999993E-002    -1.1561030355267121E-008
  -8.1499999999999989E-002     4.5389061398282138E-009
  -8.0399999999999999E-002     2.4740216986174346E-008
  -7.9299999999999995E-002     3.6603239550458966E-008
  -7.8199999999999992E-002     2.9151159708362684E-008
  -7.7100000000000002E-002     1.0791687543587614E-009
  -7.5999999999999984E-002    -3.5859688551909130E-008
  -7.4899999999999994E-002    -6.1812812646167004E-008
  -7.3799999999999991E-002    -5.9931593909823277E-008
  -7.2699999999999987E-002    -2.6597254176863316E-008
  -7.1599999999999997E-002     2.5973379891297554E-008
  -7.0499999999999993E-002     7.5892032214142091E-008
  -6.9399999999999989E-002     1.0146450790671224E-007
  -6.8300000000000000E-002     8.8500598849350354E-008
  -6.7199999999999996E-002     3.3537400412342322E-008
  -6.6099999999999992E-002    -5.3522590803822823E-008
  -6.5000000000000002E-002    -1.4531369174619613E-007
  -6.3899999999999985E-002    -1.9717498389582033E-007
  -6.2799999999999995E-002    -1.6204369046590728E-007
  -6.1699999999999991E-002    -2.2157514933951461E-008
  -6.0599999999999994E-002     1.7983515476771572E-007
  -5.9499999999999990E-002     3.4087798894688603E-007
  -5.8399999999999994E-002     3.4665083603613311E-007
  -5.7299999999999990E-002     1.5022580157619814E-007
  -5.6199999999999986E-002    -1.7439846544675675E-007
  -5.5099999999999996E-002    -4.5516816271629068E-007
  -5.3999999999999992E-002    -5.2170594244671520E-007
  -5.2899999999999989E-002    -3.1866321137385967E-007
  -5.1799999999999985E-002     5.1701974257412076E-008
  -5.0699999999999995E-002     3.9412145724782022E-007
  -4.9599999999999991E-002     5.4499372481586761E-007
  -4.8499999999999988E-002     4.6245236262620892E-007
  -4.7399999999999998E-002     2.2067317217988602E-007
  -4.6299999999999994E-002    -6.6436598444852279E-008
  -4.5199999999999990E-002    -3.0973308184911730E-007
  -4.4099999999999986E-002    -4.4448248104345112E-007
  -4.2999999999999997E-002    -3.9912183069645835E-007
  -4.1899999999999993E-002    -1.1620551276791957E-007
  -4.0799999999999989E-002     3.4699837669904809E-007
  -3.9699999999999985E-002     7.2916787985377596E-007
  -3.8599999999999995E-002     6.3200252498063492E-007
  -3.7499999999999992E-002    -2.1092733959449106E-007
  -3.6399999999999988E-002    -1.6167754210982821E-006
  -3.5299999999999984E-002    -2.8603737973753596E-006
  -3.4199999999999994E-002    -2.9744942366960458E-006
  -3.3099999999999991E-002    -1.3254145869723288E-006
  -3.1999999999999987E-002     1.9022279502678430E-006
  -3.0899999999999997E-002     5.6637268244230654E-006
  -2.9799999999999993E-002     8.5136462075752206E-006
  -2.8699999999999989E-002     9.2689615485141985E-006
  -2.7599999999999986E-002     7.4436156864976510E-006
  -2.6499999999999996E-002     3.2078487492981367E-006
  -2.5399999999999992E-002    -3.0297790090116905E-006
  -2.4299999999999988E-002    -1.1091288797615562E-005
  -2.3199999999999985E-002    -2.1258274500723928E-005
  -2.2099999999999995E-002    -3.4188007703050971E-005
  -2.0999999999999991E-002    -5.0641257985262200E-005
  -1.9899999999999987E-002    -7.1203496190719306E-005
  -1.8799999999999983E-002    -9.6136878710240126E-005
  -1.7699999999999994E-002    -1.2545161007437855E-004
  -1.6599999999999990E-002    -1.5924438775982708E-004
  -1.5499999999999986E-002    -1.9824394257739186E-004
  -1.4399999999999996E-002    -2.4431405472569168E-004
  -1.3299999999999992E-002    -3.0054725357331336E-004
  -1.2199999999999989E-002    -3.7074496503919363E-004
  -1.1099999999999985E-002    -4.5853285701014102E-004
  -9.9999999999999950E-003    -5.6678557302802801E-004
  -8.8999999999999913E-003    -6.9799658376723528E-004
  -7.7999999999999875E-003    -8.5560348816215992E-004
  -6.6999999999999837E-003    -1.0454889852553606E-003
  -5.5999999999999939E-003    -1.2765687424689531E-003
  -4.4999999999999901E-003    -1.5599338803440332E-003
  -3.3999999999999864E-003    -1.9070983398705721E-003
  -2.2999999999999826E-003    -2.3286368232220411E-003
  -1.1999999999999927E-003    -2.8343044687062502E-003
  -9.9999999999988987E-005    -3.4347143955528736E-003
   1.0000000000000148E-003    -4.1435994207859039E-003
   2.1000000000000185E-003    -4.9793962389230728E-003
   3.2000000000000084E-003    -5.9655234217643738E-003
   4.3000000000000121E-003    -7.1295802481472492E-003
   5.4000000000000159E-003    -8.5022039711475372E-003
   6.5000000000000058E-003    -1.0116204619407654E-002
   7.6000000000000234E-003    -1.2006195262074471E-002
   8.7000000000000133E-003    -1.4208778738975525E-002
   9.8000000000000032E-003    -1.6763433814048767E-002
   1.0900000000000021E-002    -1.9714042544364929E-002
   1.2000000000000011E-002    -2.3110710084438324E-002
   1.3100000000000001E-002    -2.7010938152670860E-002
   1.4200000000000018E-002    -3.1479258090257645E-002
   1.5300000000000008E-002    -3.6585338413715363E-002
   1.6400000000000026E-002    -4.2401526123285294E-002
   1.7500000000000016E-002    -4.9001175910234451E-002
   1.8600000000000005E-002    -5.6458547711372375E-002
   1.9700000000000023E-002    -6.4849816262722015E-002
   2.0800000000000013E-002    -7.4254035949707031E-002
   2.1900000000000003E-002    -8.4753125905990601E-002
   2.3000000000000020E-002    -9.6430890262126923E-002
   2.4100000000000010E-002   -0.10937170684337616     
   2.5200000000000000E-002   -0.12365890294313431     
   2.6300000000000018E-002   -0.13937228918075562     
   2.7400000000000008E-002   -0.15658438205718994     
   2.8500000000000025E-002   -0.17535597085952759     
   2.9600000000000015E-002   -0.19573219120502472     
   3.0700000000000005E-002   -0.21774104237556458     
   3.1800000000000023E-002   -0.24139374494552612     
   3.2900000000000013E-002   -0.26668518781661987     
   3.4000000000000002E-002   -0.29359236359596252     
   3.5100000000000020E-002   -0.32206952571868896     
   3.6200000000000010E-002   -0.35204067826271057     
   3.7300000000000028E-002   -0.38339290022850037     
   3.8400000000000017E-002   -0.41597309708595276     
   3.9500000000000007E-002   -0.44958701729774475     
   4.0600000000000025E-002   -0.48400044441223145     
   4.1700000000000015E-002   -0.51893860101699829     
   4.2800000000000005E-002   -0.55408418178558350     
   4.3900000000000022E-002   -0.58907681703567505     
   4.5000000000000012E-002   -0.62351351976394653     
   4.6100000000000002E-002   -0.65695017576217651     
   4.7200000000000020E-002   -0.68890231847763062     
   4.8300000000000010E-002   -0.71884131431579590     
   4.9400000000000027E-002   -0.74619579315185547     
   5.0500000000000017E-002   -0.77035963535308838     
   5.1600000000000007E-002   -0.79070383310317993     
   5.2700000000000025E-002   -0.80658841133117676     
   5.3800000000000014E-002   -0.81736975908279419     
   5.4900000000000004E-002   -0.82240819931030273     
   5.6000000000000022E-002   -0.82107388973236084     
   5.7100000000000012E-002   -0.81275480985641479     
   5.8200000000000002E-002   -0.79687303304672241     
   5.9300000000000019E-002   -0.77290046215057373     
   6.0400000000000009E-002   -0.74036979675292969     
   6.1500000000000027E-002   -0.69888973236083984     
   6.2600000000000017E-002   -0.64815217256546021     
   6.3700000000000007E-002   -0.58794069290161133     
   6.4800000000000024E-002   -0.51814961433410645     
   6.5900000000000014E-002   -0.43880170583724976     
   6.7000000000000004E-002   -0.35005676746368408     
   6.8100000000000022E-002   -0.25221192836761475     
   6.9200000000000012E-002   -0.14570567011833191     
   7.0300000000000029E-002    -3.1120445579290390E-002
   7.1400000000000019E-002     9.0817816555500031E-002
   7.2500000000000009E-002    0.21924057602882385     
   7.3600000000000027E-002    0.35314214229583740     
   7.4700000000000016E-002    0.49138462543487549     
   7.5800000000000006E-002    0.63270688056945801     
   7.6900000000000024E-002    0.77573668956756592     
   7.8000000000000014E-002    0.91900187730789185     
   7.9100000000000004E-002     1.0609527826309204     
   8.0200000000000021E-002     1.1999871730804443     
   8.1300000000000011E-002     1.3344757556915283     
   8.2400000000000029E-002     1.4627894163131714     
   8.3500000000000019E-002     1.5833237171173096     
   8.4600000000000009E-002     1.6945207118988037     
   8.5700000000000026E-002     1.7948906421661377     
   8.6800000000000016E-002     1.8830381631851196     
   8.7900000000000006E-002     1.9576909542083740     
   8.9000000000000024E-002     2.0177252292633057     
   9.0100000000000013E-002     2.0621850490570068     
   9.1200000000000003E-002     2.0902974605560303     
   9.2300000000000021E-002     2.1014871597290039     
   9.3400000000000011E-002     2.0953946113586426     
   9.4500000000000028E-002     2.0718905925750732     
   9.5600000000000018E-002     2.0310840606689453     
   9.6700000000000008E-002     1.9733200073242188     
   9.7800000000000026E-002     1.8991700410842896     
   9.8900000000000016E-002     1.8094214200973511     
  0.10000000000000001          1.7050648927688599     
  0.10110000000000002          1.5872845649719238     
  0.10220000000000001          1.4574437141418457     
  0.10330000000000003          1.3170624971389771     
  0.10440000000000002          1.1677902936935425     
  0.10550000000000001          1.0113792419433594     
  0.10660000000000003         0.84965902566909790     
  0.10770000000000002         0.68451040983200073     
  0.10880000000000001         0.51783514022827148     
  0.10990000000000003         0.35152283310890198     
  0.11100000000000002         0.18741755187511444     
  0.11210000000000001          2.7292706072330475E-002
  0.11320000000000002        -0.12717351317405701     
  0.11430000000000001        -0.27442297339439392     
  0.11540000000000003        -0.41303253173828125     
  0.11650000000000002        -0.54174005985260010     
  0.11760000000000001        -0.65946060419082642     
  0.11870000000000003        -0.76529002189636230     
  0.11980000000000002        -0.85851371288299561     
  0.12090000000000001        -0.93860477209091187     
  0.12200000000000003         -1.0052257776260376     
  0.12310000000000001         -1.0582365989685059     
  0.12420000000000003         -1.0976922512054443     
  0.12530000000000002         -1.1238348484039307     
  0.12640000000000001         -1.1370742321014404     
  0.12750000000000003         -1.1379671096801758     
  0.12860000000000002         -1.1272028684616089     
  0.12970000000000001         -1.1055930852890015     
  0.13080000000000003         -1.0740603208541870     
  0.13190000000000002         -1.0336196422576904     
  0.13300000000000001        -0.98534905910491943     
  0.13410000000000000        -0.93035823106765747     
  0.13520000000000004        -0.86977070569992065     
  0.13630000000000003        -0.80471837520599365     
  0.13740000000000002        -0.73633891344070435     
  0.13850000000000001        -0.66576242446899414     
  0.13960000000000000        -0.59408652782440186     
  0.14070000000000005        -0.52234750986099243     
  0.14180000000000004        -0.45150294899940491     
  0.14290000000000003        -0.38242962956428528     
  0.14400000000000002        -0.31593003869056702     
  0.14510000000000001        -0.25273334980010986     
  0.14620000000000000        -0.19348287582397461     
  0.14730000000000004        -0.13871768116950989     
  0.14840000000000003         -8.8865377008914948E-002
  0.14950000000000002         -4.4253170490264893E-002
  0.15060000000000001         -5.1259715110063553E-003
  0.15170000000000000          2.8344530612230301E-002
  0.15280000000000005          5.6064561009407043E-002
  0.15390000000000004          7.8029781579971313E-002
  0.15500000000000003          9.4328895211219788E-002
  0.15610000000000002         0.10513111203908920     
  0.15720000000000001         0.11066501587629318     
  0.15830000000000000         0.11120532453060150     
  0.15940000000000004         0.10707293450832367     
  0.16050000000000003          9.8638541996479034E-002
  0.16160000000000002          8.6317561566829681E-002
  0.16270000000000001          7.0551507174968719E-002
  0.16380000000000000          5.1789507269859314E-002
  0.16490000000000005          3.0481576919555664E-002
  0.16600000000000004          7.0848930627107620E-003
  0.16710000000000003         -1.7927803099155426E-002
  0.16820000000000002         -4.4076021760702133E-002
  0.16930000000000001         -7.0893347263336182E-002
  0.17040000000000000         -9.7945220768451691E-002
  0.17150000000000004        -0.12482979148626328     
  0.17260000000000003        -0.15116408467292786     
  0.17370000000000002        -0.17657455801963806     
  0.17480000000000001        -0.20070861279964447     
  0.17590000000000000        -0.22325929999351501     
  0.17700000000000005        -0.24398191273212433     
  0.17810000000000004        -0.26268509030342102     
  0.17920000000000003        -0.27920341491699219     
  0.18030000000000002        -0.29337981343269348     
  0.18140000000000001        -0.30507621169090271     
  0.18250000000000000        -0.31420400738716125     
  0.18360000000000004        -0.32074326276779175     
  0.18470000000000003        -0.32472935318946838     
  0.18580000000000002        -0.32621783018112183     
  0.18690000000000001        -0.32526013255119324     
  0.18800000000000000        -0.32191309332847595     
  0.18910000000000005        -0.31627091765403748     
  0.19020000000000004        -0.30848619341850281     
  0.19130000000000003        -0.29875642061233521     
  0.19240000000000002        -0.28728613257408142     
  0.19350000000000001        -0.27425819635391235     
  0.19460000000000005        -0.25983893871307373     
  0.19570000000000004        -0.24420690536499023     
  0.19680000000000003        -0.22757236659526825     
  0.19790000000000002        -0.21016596257686615     
  0.19900000000000001        -0.19220691919326782     
  0.20010000000000000        -0.17388212680816650     
  0.20120000000000005        -0.15535521507263184     
  0.20230000000000004        -0.13679319620132446     
  0.20340000000000003        -0.11837898194789886     
  0.20450000000000002        -0.10029537975788116     
  0.20560000000000000         -8.2696788012981415E-002
  0.20670000000000005         -6.5697193145751953E-002
  0.20780000000000004         -4.9386125057935715E-002
  0.20890000000000003         -3.3852703869342804E-002
