 -0.12000000000000000          0.0000000000000000     
 -0.11889999999999999          0.0000000000000000     
 -0.11780000000000000          0.0000000000000000     
 -0.11670000000000000          0.0000000000000000     
 -0.11559999999999999          0.0000000000000000     
 -0.11449999999999999          0.0000000000000000     
 -0.11340000000000000          9.0462608529001424E-024
 -0.11230000000000000          3.1841612260602415E-016
 -0.11119999999999999          2.2528772467347857E-015
 -0.11009999999999999          4.5913298086141998E-015
 -0.10900000000000000         -1.1094256278086113E-014
 -0.10790000000000000         -8.5399820082352612E-014
 -0.10679999999999999         -1.9858756566265567E-013
 -0.10569999999999999         -7.2923641409282369E-014
 -0.10460000000000000          8.4122747830150946E-013
 -0.10349999999999999          2.5666396091805765E-012
 -0.10239999999999999          2.9965270716136860E-012
 -0.10130000000000000         -2.3731381443292676E-012
 -0.10020000000000000         -1.5761079941167822E-011
  -9.9099999999999994E-002    -2.7672952471191614E-011
  -9.7999999999999990E-002    -1.3142043009395366E-011
  -9.6899999999999986E-002     4.9615190428342615E-011
  -9.5799999999999996E-002     1.3678044807896583E-010
  -9.4699999999999993E-002     1.5079199000567201E-010
  -9.3599999999999989E-002    -2.9089911035562466E-011
  -9.2499999999999999E-002    -3.9880121427415816E-010
  -9.1399999999999995E-002    -6.9157374271711092E-010
  -9.0299999999999991E-002    -4.5621073585522254E-010
  -8.9200000000000002E-002     5.4336474208938057E-010
  -8.8099999999999984E-002     1.8414805236233178E-009
  -8.6999999999999994E-002     2.2438690905346448E-009
  -8.5899999999999990E-002     6.5183414221792191E-010
  -8.4799999999999986E-002    -2.6423634391647965E-009
  -8.3699999999999997E-002    -5.3981921155354939E-009
  -8.2599999999999993E-002    -4.6990815683045639E-009
  -8.1499999999999989E-002     3.6033132033708171E-010
  -8.0399999999999999E-002     6.8493255511725692E-009
  -7.9299999999999995E-002     9.4776790859896209E-009
  -7.8199999999999992E-002     5.1869535333537442E-009
  -7.7100000000000002E-002    -2.9985165461710039E-009
  -7.5999999999999984E-002    -7.5459469783822897E-009
  -7.4899999999999994E-002    -3.7587666312788315E-009
  -7.3799999999999991E-002     3.4761620248957570E-009
  -7.2699999999999987E-002     2.0404762324233161E-009
  -7.1599999999999997E-002    -1.4558367844585973E-008
  -7.0499999999999993E-002    -3.4492828149268462E-008
  -6.9399999999999989E-002    -3.0767399294973075E-008
  -6.8300000000000000E-002     1.5179917767227380E-008
  -6.7199999999999996E-002     8.6256967790632189E-008
  -6.6099999999999992E-002     1.2755184286561416E-007
  -6.5000000000000002E-002     8.3051780563891953E-008
  -6.3899999999999985E-002    -5.0517812155703723E-008
  -6.2799999999999995E-002    -2.0017316160192422E-007
  -6.1699999999999991E-002    -2.5629347533140390E-007
  -6.0599999999999994E-002    -1.5597463232097653E-007
  -5.9499999999999990E-002     5.6390547342743957E-008
  -5.8399999999999994E-002     2.5082081833716074E-007
  -5.7299999999999990E-002     3.0861826871841913E-007
  -5.6199999999999986E-002     2.1514426862268010E-007
  -5.5099999999999996E-002     6.2868934946891386E-008
  -5.3999999999999992E-002    -4.3414779327122233E-008
  -5.2899999999999989E-002    -9.0509686856421467E-008
  -5.1799999999999985E-002    -1.6136252156684350E-007
  -5.0699999999999995E-002    -3.2245594638879993E-007
  -4.9599999999999991E-002    -5.0145433760917513E-007
  -4.8499999999999988E-002    -4.9615431407801225E-007
  -4.7399999999999998E-002    -1.4494202105197473E-007
  -4.6299999999999994E-002     4.7758402388353716E-007
  -4.5199999999999990E-002     1.0354619917052332E-006
  -4.4099999999999986E-002     1.1436933391451021E-006
  -4.2999999999999997E-002     6.6666319753494463E-007
  -4.1899999999999993E-002    -1.5282782328540634E-007
  -4.0799999999999989E-002    -8.6158735257413355E-007
  -3.9699999999999985E-002    -1.1278924603175255E-006
  -3.8599999999999995E-002    -9.5112267217700719E-007
  -3.7499999999999992E-002    -5.7440081491222372E-007
  -3.6399999999999988E-002    -2.0717699555916624E-007
  -3.5299999999999984E-002     1.5366687478035601E-007
  -3.4199999999999994E-002     6.2122086319504888E-007
  -3.3099999999999991E-002     1.1510901458677836E-006
  -3.1999999999999987E-002     1.4200936675479170E-006
  -3.0899999999999997E-002     1.0389584303993615E-006
  -2.9799999999999993E-002    -5.2931909522158094E-008
  -2.8699999999999989E-002    -1.3847629816154949E-006
  -2.7599999999999986E-002    -2.1819382709509227E-006
  -2.6499999999999996E-002    -1.8775014041239046E-006
  -2.5399999999999992E-002    -4.9372994226359879E-007
  -2.4299999999999988E-002     1.4027633596924716E-006
  -2.3199999999999985E-002     3.0796277314948384E-006
  -2.2099999999999995E-002     3.9823958104534540E-006
  -2.0999999999999991E-002     3.7809618333994877E-006
  -1.9899999999999987E-002     2.2153085410536733E-006
  -1.8799999999999983E-002    -9.5059385785134509E-007
  -1.7699999999999994E-002    -5.7311644923174754E-006
  -1.6599999999999990E-002    -1.1709633326972835E-005
  -1.5499999999999986E-002    -1.8174574506701902E-005
  -1.4399999999999996E-002    -2.4644627046654932E-005
  -1.3299999999999992E-002    -3.1360130378743634E-005
  -1.2199999999999989E-002    -3.9229325921041891E-005
  -1.1099999999999985E-002    -4.9184804083779454E-005
  -9.9999999999999950E-003    -6.1523831391241401E-005
  -8.8999999999999913E-003    -7.5929325248580426E-005
  -7.7999999999999875E-003    -9.2283895355649292E-005
  -6.6999999999999837E-003    -1.1159871792187914E-004
  -5.5999999999999939E-003    -1.3616461365018040E-004
  -4.4999999999999901E-003    -1.6867807426024228E-004
  -3.3999999999999864E-003    -2.1104251209180802E-004
  -2.2999999999999826E-003    -2.6389924460090697E-004
  -1.1999999999999927E-003    -3.2733072293922305E-004
  -9.9999999999988987E-005    -4.0215312037616968E-004
   1.0000000000000148E-003    -4.9074075650423765E-004
   2.1000000000000185E-003    -5.9682450955733657E-004
   3.2000000000000084E-003    -7.2466698475182056E-004
   4.3000000000000121E-003    -8.7851070566102862E-004
   5.4000000000000159E-003    -1.0627729352563620E-003
   6.5000000000000058E-003    -1.2826285092160106E-003
   7.6000000000000234E-003    -1.5442729927599430E-003
   8.7000000000000133E-003    -1.8546321662142873E-003
   9.8000000000000032E-003    -2.2210059687495232E-003
   1.0900000000000021E-002    -2.6512665208429098E-003
   1.2000000000000011E-002    -3.1546312384307384E-003
   1.3100000000000001E-002    -3.7423388566821814E-003
   1.4200000000000018E-002    -4.4275620020925999E-003
   1.5300000000000008E-002    -5.2246470004320145E-003
   1.6400000000000026E-002    -6.1485264450311661E-003
   1.7500000000000016E-002    -7.2149527259171009E-003
   1.8600000000000005E-002    -8.4413448348641396E-003
   1.9700000000000023E-002    -9.8473345860838890E-003
   2.0800000000000013E-002    -1.1454340070486069E-002
   2.1900000000000003E-002    -1.3284634798765182E-002
   2.3000000000000020E-002    -1.5360893681645393E-002
   2.4100000000000010E-002    -1.7706781625747681E-002
   2.5200000000000000E-002    -2.0348075777292252E-002
   2.6300000000000018E-002    -2.3312928155064583E-002
   2.7400000000000008E-002    -2.6630712673068047E-002
   2.8500000000000025E-002    -3.0330061912536621E-002
   2.9600000000000015E-002    -3.4437540918588638E-002
   3.0700000000000005E-002    -3.8977906107902527E-002
   3.1800000000000023E-002    -4.3975211679935455E-002
   3.2900000000000013E-002    -4.9453411251306534E-002
   3.4000000000000002E-002    -5.5435471236705780E-002
   3.5100000000000020E-002    -6.1941195279359818E-002
   3.6200000000000010E-002    -6.8985231220722198E-002
   3.7300000000000028E-002    -7.6576299965381622E-002
   3.8400000000000017E-002    -8.4716811776161194E-002
   3.9500000000000007E-002    -9.3402445316314697E-002
   4.0600000000000025E-002   -0.10262105613946915     
   4.1700000000000015E-002   -0.11235117167234421     
   4.2800000000000005E-002   -0.12256109714508057     
   4.3900000000000022E-002   -0.13320888578891754     
   4.5000000000000012E-002   -0.14424219727516174     
   4.6100000000000002E-002   -0.15559650957584381     
   4.7200000000000020E-002   -0.16719290614128113     
   4.8300000000000010E-002   -0.17893707752227783     
   4.9400000000000027E-002   -0.19072003662586212     
   5.0500000000000017E-002   -0.20242029428482056     
   5.1600000000000007E-002   -0.21390408277511597     
   5.2700000000000025E-002   -0.22502377629280090     
   5.3800000000000014E-002   -0.23561708629131317     
   5.4900000000000004E-002   -0.24550820887088776     
   5.6000000000000022E-002   -0.25451108813285828     
   5.7100000000000012E-002   -0.26243209838867188     
   5.8200000000000002E-002   -0.26907268166542053     
   5.9300000000000019E-002   -0.27423095703125000     
   6.0400000000000009E-002   -0.27770191431045532     
   6.1500000000000027E-002   -0.27928107976913452     
   6.2600000000000017E-002   -0.27877089381217957     
   6.3700000000000007E-002   -0.27598440647125244     
   6.4800000000000024E-002   -0.27074766159057617     
   6.5900000000000014E-002   -0.26290112733840942     
   6.7000000000000004E-002   -0.25230228900909424     
   6.8100000000000022E-002   -0.23883223533630371     
   6.9200000000000012E-002   -0.22240386903285980     
   7.0300000000000029E-002   -0.20296658575534821     
   7.1400000000000019E-002   -0.18050673604011536     
   7.2500000000000009E-002   -0.15504552423954010     
   7.3600000000000027E-002   -0.12663982808589935     
   7.4700000000000016E-002    -9.5387838780879974E-002
   7.5800000000000006E-002    -6.1436910182237625E-002
   7.6900000000000024E-002    -2.4984415620565414E-002
   7.8000000000000014E-002     1.3728680089116096E-002
   7.9100000000000004E-002     5.4425321519374847E-002
   8.0200000000000021E-002     9.6794247627258301E-002
   8.1300000000000011E-002    0.14048545062541962     
   8.2400000000000029E-002    0.18510693311691284     
   8.3500000000000019E-002    0.23022936284542084     
   8.4600000000000009E-002    0.27540004253387451     
   8.5700000000000026E-002    0.32015642523765564     
   8.6800000000000016E-002    0.36403194069862366     
   8.7900000000000006E-002    0.40655568242073059     
   8.9000000000000024E-002    0.44725295901298523     
   9.0100000000000013E-002    0.48565417528152466     
   9.1200000000000003E-002    0.52131205797195435     
   9.2300000000000021E-002    0.55381554365158081     
   9.3400000000000011E-002    0.58279496431350708     
   9.4500000000000028E-002    0.60792034864425659     
   9.5600000000000018E-002    0.62890160083770752     
   9.6700000000000008E-002    0.64549744129180908     
   9.7800000000000026E-002    0.65753138065338135     
   9.8900000000000016E-002    0.66490381956100464     
  0.10000000000000001         0.66759115457534790     
  0.10110000000000002         0.66563487052917480     
  0.10220000000000001         0.65913373231887817     
  0.10330000000000003         0.64824891090393066     
  0.10440000000000002         0.63321471214294434     
  0.10550000000000001         0.61434209346771240     
  0.10660000000000003         0.59200811386108398     
  0.10770000000000002         0.56663572788238525     
  0.10880000000000001         0.53868055343627930     
  0.10990000000000003         0.50862938165664673     
  0.11100000000000002         0.47700551152229309     
  0.11210000000000001         0.44436761736869812     
  0.11320000000000002         0.41129067540168762     
  0.11430000000000001         0.37834033370018005     
  0.11540000000000003         0.34605517983436584     
  0.11650000000000002         0.31494188308715820     
  0.11760000000000001         0.28548222780227661     
  0.11870000000000003         0.25813373923301697     
  0.11980000000000002         0.23331123590469360     
  0.12090000000000001         0.21135814487934113     
  0.12200000000000003         0.19253286719322205     
  0.12310000000000001         0.17701470851898193     
  0.12420000000000003         0.16491563618183136     
  0.12530000000000002         0.15628622472286224     
  0.12640000000000001         0.15109799802303314     
  0.12750000000000003         0.14922308921813965     
  0.12860000000000002         0.15043130517005920     
  0.12970000000000001         0.15440618991851807     
  0.13080000000000003         0.16076926887035370     
  0.13190000000000002         0.16908931732177734     
  0.13300000000000001         0.17887350916862488     
  0.13410000000000000         0.18955768644809723     
  0.13520000000000004         0.20051115751266479     
  0.13630000000000003         0.21106477081775665     
  0.13740000000000002         0.22054411470890045     
  0.13850000000000001         0.22827927768230438     
  0.13960000000000000         0.23359923064708710     
  0.14070000000000005         0.23582851886749268     
  0.14180000000000004         0.23430237174034119     
  0.14290000000000003         0.22839973866939545     
  0.14400000000000002         0.21757091581821442     
  0.14510000000000001         0.20134717226028442     
  0.14620000000000000         0.17933556437492371     
  0.14730000000000004         0.15121324360370636     
  0.14840000000000003         0.11674095690250397     
  0.14950000000000002          7.5791783630847931E-002
  0.15060000000000001          2.8368918225169182E-002
  0.15170000000000000         -2.5392774492502213E-002
  0.15280000000000005         -8.5240676999092102E-002
  0.15390000000000004        -0.15082181990146637     
  0.15500000000000003        -0.22167745232582092     
  0.15610000000000002        -0.29722756147384644     
  0.15720000000000001        -0.37676459550857544     
  0.15830000000000000        -0.45946535468101501     
  0.15940000000000004        -0.54442059993743896     
  0.16050000000000003        -0.63066196441650391     
  0.16160000000000002        -0.71716606616973877     
  0.16270000000000001        -0.80285125970840454     
  0.16380000000000000        -0.88658761978149414     
  0.16490000000000005        -0.96722018718719482     
  0.16600000000000004         -1.0436059236526489     
  0.16710000000000003         -1.1146419048309326     
  0.16820000000000002         -1.1792762279510498     
  0.16930000000000001         -1.2365094423294067     
  0.17040000000000000         -1.2854048013687134     
  0.17150000000000004         -1.3251165151596069     
  0.17260000000000003         -1.3549202680587769     
  0.17370000000000002         -1.3742301464080811     
  0.17480000000000001         -1.3825980424880981     
  0.17590000000000000         -1.3797088861465454     
  0.17700000000000005         -1.3653883934020996     
  0.17810000000000004         -1.3396219015121460     
  0.17920000000000003         -1.3025655746459961     
  0.18030000000000002         -1.2545404434204102     
  0.18140000000000001         -1.1960129737854004     
  0.18250000000000000         -1.1275793313980103     
  0.18360000000000004         -1.0499634742736816     
  0.18470000000000003        -0.96401882171630859     
  0.18580000000000002        -0.87072014808654785     
  0.18690000000000001        -0.77113682031631470     
  0.18800000000000000        -0.66640055179595947     
  0.18910000000000005        -0.55768907070159912     
  0.19020000000000004        -0.44621542096138000     
  0.19130000000000003        -0.33322015404701233     
  0.19240000000000002        -0.21995356678962708     
  0.19350000000000001        -0.10764151811599731     
  0.19460000000000005          2.5444515049457550E-003
  0.19570000000000004         0.10950399935245514     
  0.19680000000000003         0.21220993995666504     
  0.19790000000000002         0.30970752239227295     
  0.19900000000000001         0.40112531185150146     
  0.20010000000000000         0.48570117354393005     
  0.20120000000000005         0.56280601024627686     
  0.20230000000000004         0.63194507360458374     
  0.20340000000000003         0.69274663925170898     
  0.20450000000000002         0.74494606256484985     
  0.20560000000000000         0.78838682174682617     
  0.20670000000000005         0.82303893566131592     
  0.20780000000000004         0.84900426864624023     
  0.20890000000000003         0.86650067567825317     
