 -0.12000000000000000          0.0000000000000000
 -0.11889999999999999          0.0000000000000000
 -0.11780000000000000          0.0000000000000000
 -0.11670000000000000          0.0000000000000000
 -0.11559999999999999          0.0000000000000000
 -0.11449999999999999          0.0000000000000000
 -0.11340000000000000          0.0000000000000000
 -0.11230000000000000         -3.9745187334938617E-020
 -0.11119999999999999          5.5096523577106289E-019
 -0.11009999999999999          5.5469758999298102E-018
 -0.10900000000000000          1.7652102892763788E-017
 -0.10790000000000000          9.7020148478485038E-018
 -0.10679999999999999         -1.0592054057407317E-016
 -0.10569999999999999         -3.8278054824005658E-016
 -0.10460000000000000         -5.2134860398825289E-016
 -0.10349999999999999          3.3935918602723584E-016
 -0.10239999999999999          2.8492660150728452E-015
 -0.10130000000000000          5.4254306254896674E-015
 -0.10020000000000000          3.1555607084592397E-015
  -9.9099999999999994E-002    -8.3669213792830821E-015
  -9.7999999999999990E-002    -2.4072657408589401E-014
  -9.6899999999999986E-002    -2.5039141895621077E-014
  -9.5799999999999996E-002     6.8466268247399674E-015
  -9.4699999999999993E-002     5.7292102729545736E-014
  -9.3599999999999989E-002     6.6704514097285347E-014
  -9.2499999999999999E-002    -1.8721980026225950E-014
  -9.1399999999999995E-002    -1.4596917381213932E-013
  -9.0299999999999991E-002    -1.2094178422245059E-013
  -8.9200000000000002E-002     2.2334680864377247E-013
  -8.8099999999999984E-002     7.0544401667240076E-013
  -8.6999999999999994E-002     6.6966173048689093E-013
  -8.5899999999999990E-002    -5.3809443118319862E-013
  -8.4799999999999986E-002    -2.5889525986315941E-012
  -8.3699999999999997E-002    -3.6089203900974547E-012
  -8.2599999999999993E-002    -1.2080464353647844E-012
  -8.1499999999999989E-002     4.8927175312243584E-012
  -8.0399999999999999E-002     1.0743760419803981E-011
  -7.9299999999999995E-002     9.6312257296364207E-012
  -7.8199999999999992E-002    -2.0715032394312883E-012
  -7.7100000000000002E-002    -1.8703831866960580E-011
  -7.5999999999999984E-002    -2.5868173081809945E-011
  -7.4899999999999994E-002    -1.1228207680941296E-011
  -7.3799999999999991E-002     2.0856829208674040E-011
  -7.2699999999999987E-002     4.5317199542357128E-011
  -7.1599999999999997E-002     3.3129219901679059E-011
  -7.0499999999999993E-002    -1.9190839521360948E-011
  -6.9399999999999989E-002    -7.3650966241771039E-011
  -6.8300000000000000E-002    -7.2342211811548149E-011
  -6.7199999999999996E-002     9.6271768951989908E-012
  -6.6099999999999992E-002     1.2285521519350072E-010
  -6.5000000000000002E-002     1.6317470563970487E-010
  -6.3899999999999985E-002     5.6759434675227898E-011
  -6.2799999999999995E-002    -1.5189389463905835E-010
  -6.1699999999999991E-002    -2.9919614649906308E-010
  -6.0599999999999994E-002    -2.2210015042191126E-010
  -5.9499999999999990E-002     8.0633349512234384E-011
  -5.8399999999999994E-002     3.9383660453087463E-010
  -5.7299999999999990E-002     4.2729563849079561E-010
  -5.6199999999999986E-002     7.3978337812038169E-011
  -5.5099999999999996E-002    -4.3417967111639984E-010
  -5.3999999999999992E-002    -6.5444622558521641E-010
  -5.2899999999999989E-002    -2.9870088004706689E-010
  -5.1799999999999985E-002     4.5380030273696551E-010
  -5.0699999999999995E-002     1.0081136439049611E-009
  -4.9599999999999991E-002     8.0661533360870460E-010
  -4.8499999999999988E-002    -1.5306127077574625E-010
  -4.7399999999999998E-002    -1.2039293274015284E-009
  -4.6299999999999994E-002    -1.4824759857871337E-009
  -4.5199999999999990E-002    -6.5870024502622924E-010
  -4.4099999999999986E-002     7.0107838824532336E-010
  -4.2999999999999997E-002     1.5235736212602082E-009
  -4.1899999999999993E-002     1.1201449559312681E-009
  -4.0799999999999989E-002    -1.6458839039896742E-010
  -3.9699999999999985E-002    -1.1662436388645962E-009
  -3.8599999999999995E-002    -8.8265040634517910E-010
  -3.7499999999999992E-002     5.8133005436942681E-010
  -3.6399999999999988E-002     1.9669068768919341E-009
  -3.5299999999999984E-002     1.8514086287714370E-009
  -3.4199999999999994E-002    -1.0147021789573659E-010
  -3.3099999999999991E-002    -2.7059122946834006E-009
  -3.1999999999999987E-002    -4.0738229971939623E-009
  -3.0899999999999997E-002    -3.0725229321851569E-009
  -2.9799999999999993E-002    -2.3254165120022988E-010
  -2.8699999999999989E-002     2.6474475264906941E-009
  -2.7599999999999986E-002     3.8703322203540852E-009
  -2.6499999999999996E-002     3.0586735302379318E-009
  -2.5399999999999992E-002     1.2594055146603754E-009
  -2.4299999999999988E-002    -6.7589941748458513E-011
  -2.3199999999999985E-002    -2.7184742205953593E-010
  -2.2099999999999995E-002     5.8456893865451837E-011
  -2.0999999999999991E-002    -2.6326144054303609E-010
  -1.9899999999999987E-002    -1.9109753094798043E-009
  -1.8799999999999983E-002    -4.3598901652880509E-009
  -1.7699999999999994E-002    -6.0900128784134243E-009
  -1.6599999999999990E-002    -5.4482254100939801E-009
  -1.5499999999999986E-002    -1.5487595950883721E-009
  -1.4399999999999996E-002     5.3053409027960472E-009
  -1.3299999999999992E-002     1.3842636825761270E-008
  -1.2199999999999989E-002     2.2548855967491957E-008
  -1.1099999999999985E-002     3.0595912810011106E-008
  -9.9999999999999950E-003     3.8565135975642077E-008
  -8.8999999999999913E-003     4.8532950673723441E-008
  -7.7999999999999875E-003     6.3327046793607962E-008
  -6.6999999999999837E-003     8.5305833826728429E-008
  -5.5999999999999939E-003     1.1551538661015459E-007
  -4.4999999999999901E-003     1.5399368754456352E-007
  -3.3999999999999864E-003     2.0116304804565516E-007
  -2.2999999999999826E-003     2.5925882573004566E-007
  -1.1999999999999927E-003     3.3252280261391801E-007
  -9.9999999999988987E-005     4.2584131045119893E-007
   1.0000000000000148E-003     5.4293947035768566E-007
   2.1000000000000185E-003     6.8585945504730029E-007
   3.2000000000000084E-003     8.5654152711315984E-007
   4.3000000000000121E-003     1.0595514787584896E-006
   5.4000000000000159E-003     1.3039175272752110E-006
   6.5000000000000058E-003     1.6026847103202345E-006
   7.6000000000000234E-003     1.9706760332998037E-006
   8.7000000000000133E-003     2.4224186699162768E-006
   9.8000000000000032E-003     2.9719714064510568E-006
   1.0900000000000021E-002     3.6347523187326017E-006
   1.2000000000000011E-002     4.4299066840456371E-006
   1.3100000000000001E-002     5.3816252147130176E-006
   1.4200000000000018E-002     6.5190027154084583E-006
   1.5300000000000008E-002     7.8753053368648872E-006
   1.6400000000000026E-002     9.4877452513644797E-006
   1.7500000000000016E-002     1.1398148595315142E-005
   1.8600000000000005E-002     1.3654208188421921E-005
   1.9700000000000023E-002     1.6310931369128415E-005
   2.0800000000000013E-002     1.9432186999281256E-005
   2.1900000000000003E-002     2.3092176402620093E-005
   2.3000000000000020E-002     2.7376211476545385E-005
   2.4100000000000010E-002     3.2380128937527720E-005
   2.5200000000000000E-002     3.8208706657830705E-005
   2.6300000000000018E-002     4.4974850843908336E-005
   2.7400000000000008E-002     5.2801411530273534E-005
   2.8500000000000025E-002     6.1825676789112070E-005
   2.9600000000000015E-002     7.2203833890768530E-005
   3.0700000000000005E-002     8.4112185080732597E-005
   3.1800000000000023E-002     9.7744068133163517E-005
   3.2900000000000013E-002     1.1330557479930627E-004
   3.4000000000000002E-002     1.3101434135815096E-004
   3.5100000000000020E-002     1.5110349024239066E-004
   3.6200000000000010E-002     1.7382754671680837E-004
   3.7300000000000028E-002     1.9946515825419262E-004
   3.8400000000000017E-002     2.2831559706793888E-004
   3.9500000000000007E-002     2.6069153646770361E-004
   4.0600000000000025E-002     2.9691407105796399E-004
   4.1700000000000015E-002     3.3731367593167988E-004
   4.2800000000000005E-002     3.8223468246573872E-004
   4.3900000000000022E-002     4.3203744817240449E-004
   4.5000000000000012E-002     4.8709369144830049E-004
   4.6100000000000002E-002     5.4777715611624791E-004
   4.7200000000000020E-002     6.1445581468271471E-004
   4.8300000000000010E-002     6.8748905237402916E-004
   4.9400000000000027E-002     7.6722930931916503E-004
   5.0500000000000017E-002     8.5402023494927459E-004
   5.1600000000000007E-002     9.4818946620447303E-004
   5.2700000000000025E-002     1.0500373108442589E-003
   5.3800000000000014E-002     1.1598272775095496E-003
   5.4900000000000004E-002     1.2777828955689990E-003
   5.6000000000000022E-002     1.4040857088772664E-003
   5.7100000000000012E-002     1.5388689369829410E-003
   5.8200000000000002E-002     1.6822053419300671E-003
   5.9300000000000019E-002     1.8340941977558192E-003
   6.0400000000000009E-002     1.9944537730833631E-003
   6.1500000000000027E-002     2.1631205914146696E-003
   6.2600000000000017E-002     2.3398500250623702E-003
   6.3700000000000007E-002     2.5243080687132212E-003
   6.4800000000000024E-002     2.7160593649086305E-003
   6.5900000000000014E-002     2.9145534488555307E-003
   6.7000000000000004E-002     3.1191214020609534E-003
   6.8100000000000022E-002     3.3289853460049855E-003
   6.9200000000000012E-002     3.5432668485764142E-003
   7.0300000000000029E-002     3.7609851056709812E-003
   7.1400000000000019E-002     3.9810436466590398E-003
   7.2500000000000009E-002     4.2022186165612038E-003
   7.3600000000000027E-002     4.4231622096907695E-003
   7.4700000000000016E-002     4.6424216378341369E-003
   7.5800000000000006E-002     4.8584596270179912E-003
   7.6900000000000024E-002     5.0696624855806286E-003
   7.8000000000000014E-002     5.2743360986001473E-003
   7.9100000000000004E-002     5.4706978753860502E-003
   8.0200000000000021E-002     5.6568827321938804E-003
   8.1300000000000011E-002     5.8309688735650542E-003
   8.2400000000000029E-002     5.9910091538015395E-003
   8.3500000000000019E-002     6.1350441234741902E-003
   8.4600000000000009E-002     6.2610952849794545E-003
   8.5700000000000026E-002     6.3671564250759073E-003
   8.6800000000000016E-002     6.4512001021499663E-003
   8.7900000000000006E-002     6.5112040885125840E-003
   8.9000000000000024E-002     6.5451809162774969E-003
   9.0100000000000013E-002     6.5511883290807343E-003
   9.1200000000000003E-002     6.5273162718035424E-003
   9.2300000000000021E-002     6.4716670165044770E-003
   9.3400000000000011E-002     6.3823512997902131E-003
   9.4500000000000028E-002     6.2575083816298104E-003
   9.5600000000000018E-002     6.0953257657657620E-003
   9.6700000000000008E-002     5.8940394788228765E-003
   9.7800000000000026E-002     5.6519090402748617E-003
   9.8900000000000016E-002     5.3671853291403955E-003
  0.10000000000000001          5.0380971805243412E-003
  0.10110000000000002          4.6628652119310634E-003
  0.10220000000000001          4.2397167877328530E-003
  0.10330000000000003          3.7668832489537365E-003
  0.10440000000000002          3.2425711685148506E-003
  0.10550000000000001          2.6649351247671309E-003
  0.10660000000000003          2.0320746862922817E-003
  0.10770000000000002          1.3420582216010289E-003
  0.10880000000000001          5.9295717997683841E-004
  0.10990000000000003         -2.1713801202284010E-004
  0.11100000000000002         -1.0901221044504613E-003
  0.11210000000000001         -2.0278747614112030E-003
  0.11320000000000002         -3.0322309098186661E-003
  0.11430000000000001         -4.1049129946146559E-003
  0.11540000000000003         -5.2474570281032988E-003
  0.11650000000000002         -6.4611451082820870E-003
  0.11760000000000001         -7.7469651872450534E-003
  0.11870000000000003         -9.1055629286695226E-003
  0.11980000000000002         -1.0537157504509882E-002
  0.12090000000000001         -1.2041437292830404E-002
  0.12200000000000003         -1.3617428859490320E-002
  0.12310000000000001         -1.5263400322342998E-002
  0.12420000000000003         -1.6976783088444580E-002
  0.12530000000000002         -1.8754101533322812E-002
  0.12640000000000001         -2.0590873552431176E-002
  0.12750000000000003         -2.2481488773762059E-002
  0.12860000000000002         -2.4419099940777133E-002
  0.12970000000000001         -2.6395542891008487E-002
  0.13080000000000003         -2.8401302697243145E-002
  0.13190000000000002         -3.0425496761929252E-002
  0.13300000000000001         -3.2455848930993861E-002
  0.13410000000000000         -3.4478647602327141E-002
  0.13520000000000004         -3.6478751575450497E-002
  0.13630000000000003         -3.8439621074057614E-002
  0.13740000000000002         -4.0343452173796882E-002
  0.13850000000000001         -4.2171275769602563E-002
  0.13960000000000000         -4.3903108930919497E-002
  0.14070000000000005         -4.5518099872909112E-002
  0.14180000000000004         -4.6994692478701444E-002
  0.14290000000000003         -4.8310866933504226E-002
  0.14400000000000002         -4.9444428306403880E-002
  0.14510000000000001         -5.0373308665355693E-002
  0.14620000000000000         -5.1075892553446557E-002
  0.14730000000000004         -5.1531285268924941E-002
  0.14840000000000003         -5.1719632711963177E-002
  0.14950000000000002         -5.1622492922599593E-002
  0.15060000000000001         -5.1223186126600331E-002
  0.15170000000000000         -5.0507183727605424E-002
  0.15280000000000005         -4.9462445082287518E-002
  0.15390000000000004         -4.8079687466651436E-002
  0.15500000000000003         -4.6352654669846748E-002
  0.15610000000000002         -4.4278396601767495E-002
  0.15720000000000001         -4.1857485070489378E-002
  0.15830000000000000         -3.9094252580782141E-002
  0.15940000000000004         -3.5996892745357965E-002
  0.16050000000000003         -3.2577525504544617E-002
  0.16160000000000002         -2.8852168669380573E-002
  0.16270000000000001         -2.4840689560416462E-002
  0.16380000000000000         -2.0566728169449888E-002
  0.16490000000000005         -1.6057546707480844E-002
  0.16600000000000004         -1.1343783241998754E-002
  0.16710000000000003         -6.4591386481529858E-003
  0.16820000000000002         -1.4400038512672568E-003
  0.16930000000000001          3.6749493388669782E-003
  0.17040000000000000          8.8452014144619843E-003
  0.17150000000000004          1.4028852583195885E-002
  0.17260000000000003          1.9183153223037729E-002
  0.17370000000000002          2.4265060835931732E-002
  0.17480000000000001          2.9231810423767119E-002
  0.17590000000000000          3.4041481629898555E-002
  0.17700000000000005          3.8653541348919164E-002
  0.17810000000000004          4.3029354197699529E-002
  0.17920000000000003          4.7132713486992925E-002
  0.18030000000000002          5.0930309622455872E-002
  0.18140000000000001          5.4392176018778056E-002
  0.18250000000000000          5.7492077995241905E-002
  0.18360000000000004          6.0207818880510265E-002
  0.18470000000000003          6.2521476482075899E-002
  0.18580000000000002          6.4419620002949762E-002
  0.18690000000000001          6.5893414284580148E-002
  0.18800000000000000          6.6938670084839003E-002
  0.18910000000000005          6.7555836428314683E-002
  0.19020000000000004          6.7749882564880390E-002
  0.19130000000000003          6.7530155066413855E-002
  0.19240000000000002          6.6910120574931786E-002
  0.19350000000000001          6.5907094056659565E-002
  0.19460000000000005          6.4541941199102698E-002
  0.19570000000000004          6.2838644332702434E-002
  0.19680000000000003          6.0823950567576897E-002
  0.19790000000000002          5.8526873546018307E-002
  0.19900000000000001          5.5978262265703647E-002
  0.20010000000000000          5.3210308968174115E-002
  0.20120000000000005          5.0256089365859735E-002
  0.20230000000000004          4.7149105007058344E-002
  0.20340000000000003          4.3922854540858793E-002
  0.20450000000000002          4.0610384675393373E-002
  0.20560000000000000          3.7243880670089886E-002
  0.20670000000000005          3.3854286422036091E-002
  0.20780000000000004          3.0470963688572737E-002
  0.20890000000000003          2.7121463050780285E-002
