 -0.12000000000000000          0.0000000000000000     
 -0.11889999999999999          0.0000000000000000     
 -0.11780000000000000          0.0000000000000000     
 -0.11670000000000000          0.0000000000000000     
 -0.11559999999999999          0.0000000000000000     
 -0.11449999999999999          0.0000000000000000     
 -0.11340000000000000         -3.6185041833878759E-024
 -0.11230000000000000         -3.1841604319668535E-016
 -0.11119999999999999         -2.2528772467347857E-015
 -0.11009999999999999         -4.5913323497130416E-015
 -0.10900000000000000          1.1094259666217902E-014
 -0.10790000000000000          8.5399826858616190E-014
 -0.10679999999999999          1.9858763342529145E-013
 -0.10569999999999999          7.2923763382026774E-014
 -0.10460000000000000         -8.4122736988129221E-013
 -0.10349999999999999         -2.5666400428614455E-012
 -0.10239999999999999         -2.9965279389754240E-012
 -0.10130000000000000          2.3731372769675296E-012
 -0.10020000000000000          1.5761083410614773E-011
  -9.9099999999999994E-002     2.7672959410085518E-011
  -9.7999999999999990E-002     1.3142044744118841E-011
  -9.6899999999999986E-002    -4.9615211245024327E-011
  -9.5799999999999996E-002    -1.3678047583454145E-010
  -9.4699999999999993E-002    -1.5079199000567201E-010
  -9.3599999999999989E-002     2.9089855524411234E-011
  -9.2499999999999999E-002     3.9880104774070446E-010
  -9.1399999999999995E-002     6.9157374271711092E-010
  -9.0299999999999991E-002     4.5621098565540308E-010
  -8.9200000000000002E-002    -5.4336463106707811E-010
  -8.8099999999999984E-002    -1.8414807456679227E-009
  -8.6999999999999994E-002    -2.2438693125792497E-009
  -8.5899999999999990E-002    -6.5183491937403915E-010
  -8.4799999999999986E-002     2.6423621068971670E-009
  -8.3699999999999997E-002     5.3981921155354939E-009
  -8.2599999999999993E-002     4.6990829005721935E-009
  -8.1499999999999989E-002    -3.6032932193563738E-010
  -8.0399999999999999E-002    -6.8493219984588904E-009
  -7.9299999999999995E-002    -9.4776773096327815E-009
  -7.8199999999999992E-002    -5.1869575301566329E-009
  -7.7100000000000002E-002     2.9985098848328562E-009
  -7.5999999999999984E-002     7.5459434256686109E-009
  -7.4899999999999994E-002     3.7587719603493497E-009
  -7.3799999999999991E-002    -3.4761467038180172E-009
  -7.2699999999999987E-002    -2.0404575806765024E-009
  -7.1599999999999997E-002     1.4558375838191751E-008
  -7.0499999999999993E-002     3.4492821043841104E-008
  -6.9399999999999989E-002     3.0767374425977323E-008
  -6.8300000000000000E-002    -1.5179931978082095E-008
  -6.7199999999999996E-002    -8.6256967790632189E-008
  -6.6099999999999992E-002    -1.2755184286561416E-007
  -6.5000000000000002E-002    -8.3051787669319310E-008
  -6.3899999999999985E-002     5.0517773075853256E-008
  -6.2799999999999995E-002     2.0017313318021479E-007
  -6.1699999999999991E-002     2.5629356059653219E-007
  -6.0599999999999994E-002     1.5597490232721611E-007
  -5.9499999999999990E-002    -5.6390256020222296E-008
  -5.8399999999999994E-002    -2.5082078991545131E-007
  -5.7299999999999990E-002    -3.0861860977893230E-007
  -5.6199999999999986E-002    -2.1514500758712529E-007
  -5.5099999999999996E-002    -6.2869730754755437E-008
  -5.3999999999999992E-002     4.3414484451886892E-008
  -5.2899999999999989E-002     9.0510347661165724E-008
  -5.1799999999999985E-002     1.6136409897171688E-007
  -5.0699999999999995E-002     3.2245753800452803E-007
  -4.9599999999999991E-002     5.0145479235652601E-007
  -4.8499999999999988E-002     4.9615329089647275E-007
  -4.7399999999999998E-002     1.4494005995402404E-007
  -4.6299999999999994E-002    -4.7758589971635956E-007
  -4.5199999999999990E-002    -1.0354629011999350E-006
  -4.4099999999999986E-002    -1.1436931117714266E-006
  -4.2999999999999997E-002    -6.6666194697972969E-007
  -4.1899999999999993E-002     1.5282986964848533E-007
  -4.0799999999999989E-002     8.6158985368456342E-007
  -3.9699999999999985E-002     1.1278946203674423E-006
  -3.8599999999999995E-002     9.5112369535854668E-007
  -3.7499999999999992E-002     5.7440001910435967E-007
  -3.6399999999999988E-002     2.0717443760531751E-007
  -3.5299999999999984E-002    -1.5367078276540269E-007
  -3.4199999999999994E-002    -6.2122666122377268E-007
  -3.3099999999999991E-002    -1.1510976491990732E-006
  -3.1999999999999987E-002    -1.4200999203239917E-006
  -3.0899999999999997E-002    -1.0389558156020939E-006
  -2.9799999999999993E-002     5.2952145779272541E-008
  -2.8699999999999989E-002     1.3847993614035659E-006
  -2.7599999999999986E-002     2.1819705580128357E-006
  -2.6499999999999996E-002     1.8774979935187730E-006
  -2.5399999999999992E-002     4.9367372412234545E-007
  -2.4299999999999988E-002    -1.4028503301233286E-006
  -2.3199999999999985E-002    -3.0796907140029361E-006
  -2.2099999999999995E-002    -3.9823808037908748E-006
  -2.0999999999999991E-002    -3.7808656543347752E-006
  -1.9899999999999987E-002    -2.2151828034111531E-006
  -1.8799999999999983E-002     9.5068025984801352E-007
  -1.7699999999999994E-002     5.7311744967591949E-006
  -1.6599999999999990E-002     1.1709587852237746E-005
  -1.5499999999999986E-002     1.8174489014199935E-005
  -1.4399999999999996E-002     2.4644486984470859E-005
  -1.3299999999999992E-002     3.1359912100015208E-005
  -1.2199999999999989E-002     3.9229122194228694E-005
  -1.1099999999999985E-002     4.9184800445800647E-005
  -9.9999999999999950E-003     6.1524129705503583E-005
  -8.8999999999999913E-003     7.5929885497316718E-005
  -7.7999999999999875E-003     9.2284506536088884E-005
  -6.6999999999999837E-003     1.1159897258039564E-004
  -5.5999999999999939E-003     1.3616411888506263E-004
  -4.4999999999999901E-003     1.6867658996488899E-004
  -3.3999999999999864E-003     2.1104034385643899E-004
  -2.2999999999999826E-003     2.6389770209789276E-004
  -1.1999999999999927E-003     3.2733159605413675E-004
  -9.9999999999988987E-005     4.0215739863924682E-004
   1.0000000000000148E-003     4.9074704293161631E-004
   2.1000000000000185E-003     5.9682776918634772E-004
   3.2000000000000084E-003     7.2466250276193023E-004
   4.3000000000000121E-003     8.7850092677399516E-004
   5.4000000000000159E-003     1.0627660667523742E-003
   6.5000000000000058E-003     1.2826307211071253E-003
   7.6000000000000234E-003     1.5442823059856892E-003
   8.7000000000000133E-003     1.8546408973634243E-003
   9.8000000000000032E-003     2.2210075985640287E-003
   1.0900000000000021E-002     2.6512609329074621E-003
   1.2000000000000011E-002     3.1546244863420725E-003
   1.3100000000000001E-002     3.7423383910208941E-003
   1.4200000000000018E-002     4.4275671243667603E-003
   1.5300000000000008E-002     5.2246502600610256E-003
   1.6400000000000026E-002     6.1485213227570057E-003
   1.7500000000000016E-002     7.2149396874010563E-003
   1.8600000000000005E-002     8.4413299337029457E-003
   1.9700000000000023E-002     9.8473262041807175E-003
   2.0800000000000013E-002     1.1454356834292412E-002
   2.1900000000000003E-002     1.3284687884151936E-002
   2.3000000000000020E-002     1.5360966324806213E-002
   2.4100000000000010E-002     1.7706828191876411E-002
   2.5200000000000000E-002     2.0348047837615013E-002
   2.6300000000000018E-002     2.3312835022807121E-002
   2.7400000000000008E-002     2.6630606502294540E-002
   2.8500000000000025E-002     3.0330009758472443E-002
   2.9600000000000015E-002     3.4437566995620728E-002
   3.0700000000000005E-002     3.8977950811386108E-002
   3.1800000000000023E-002     4.3975230306386948E-002
   3.2900000000000013E-002     4.9453407526016235E-002
   3.4000000000000002E-002     5.5435460060834885E-002
   3.5100000000000020E-002     6.1941217631101608E-002
   3.6200000000000010E-002     6.8985380232334137E-002
   3.7300000000000028E-002     7.6576530933380127E-002
   3.8400000000000017E-002     8.4716983139514923E-002
   3.9500000000000007E-002     9.3402460217475891E-002
   4.0600000000000025E-002    0.10262082517147064     
   4.1700000000000015E-002    0.11235070228576660     
   4.2800000000000005E-002    0.12256063520908356     
   4.3900000000000022E-002    0.13320873677730560     
   4.5000000000000012E-002    0.14424234628677368     
   4.6100000000000002E-002    0.15559662878513336     
   4.7200000000000020E-002    0.16719271242618561     
   4.8300000000000010E-002    0.17893677949905396     
   4.9400000000000027E-002    0.19072024524211884     
   5.0500000000000017E-002    0.20242089033126831     
   5.1600000000000007E-002    0.21390421688556671     
   5.2700000000000025E-002    0.22502307593822479     
   5.3800000000000014E-002    0.23561616241931915     
   5.4900000000000004E-002    0.24550820887088776     
   5.6000000000000022E-002    0.25451213121414185     
   5.7100000000000012E-002    0.26243332028388977     
   5.8200000000000002E-002    0.26907324790954590     
   5.9300000000000019E-002    0.27423048019409180     
   6.0400000000000009E-002    0.27770113945007324     
   6.1500000000000027E-002    0.27928125858306885     
   6.2600000000000017E-002    0.27877229452133179     
   6.3700000000000007E-002    0.27598628401756287     
   6.4800000000000024E-002    0.27074876427650452     
   6.5900000000000014E-002    0.26290050148963928     
   6.7000000000000004E-002    0.25230032205581665     
   6.8100000000000022E-002    0.23883038759231567     
   6.9200000000000012E-002    0.22240346670150757     
   7.0300000000000029E-002    0.20296742022037506     
   7.1400000000000019E-002    0.18050703406333923     
   7.2500000000000009E-002    0.15504455566406250     
   7.3600000000000027E-002    0.12663877010345459     
   7.4700000000000016E-002     9.5388844609260559E-002
   7.5800000000000006E-002     6.1440758407115936E-002
   7.6900000000000024E-002     2.4988537654280663E-002
   7.8000000000000014E-002    -1.3728171586990356E-002
   7.9100000000000004E-002    -5.4429374635219574E-002
   8.0200000000000021E-002    -9.6800163388252258E-002
   8.1300000000000011E-002   -0.14048936963081360     
   8.2400000000000029E-002   -0.18510684370994568     
   8.3500000000000019E-002   -0.23022672533988953     
   8.4600000000000009E-002   -0.27539771795272827     
   8.5700000000000026E-002   -0.32015579938888550     
   8.6800000000000016E-002   -0.36403214931488037     
   8.7900000000000006E-002   -0.40655535459518433     
   8.9000000000000024E-002   -0.44725185632705688     
   9.0100000000000013E-002   -0.48565316200256348     
   9.1200000000000003E-002   -0.52131187915802002     
   9.2300000000000021E-002   -0.55381631851196289     
   9.3400000000000011E-002   -0.58279627561569214     
   9.4500000000000028E-002   -0.60792130231857300     
   9.5600000000000018E-002   -0.62890154123306274     
   9.6700000000000008E-002   -0.64549696445465088     
   9.7800000000000026E-002   -0.65753167867660522     
   9.8900000000000016E-002   -0.66490525007247925     
  0.10000000000000001        -0.66759270429611206     
  0.10110000000000002        -0.66563487052917480     
  0.10220000000000001        -0.65913182497024536     
  0.10330000000000003        -0.64824652671813965     
  0.10440000000000002        -0.63321357965469360     
  0.10550000000000001        -0.61434304714202881     
  0.10660000000000003        -0.59201031923294067     
  0.10770000000000002        -0.56663751602172852     
  0.10880000000000001        -0.53868067264556885     
  0.10990000000000003        -0.50862801074981689     
  0.11100000000000002        -0.47700434923171997     
  0.11210000000000001        -0.44436827301979065     
  0.11320000000000002        -0.41129317879676819     
  0.11430000000000001        -0.37834277749061584     
  0.11540000000000003        -0.34605553746223450     
  0.11650000000000002        -0.31493973731994629     
  0.11760000000000001        -0.28548014163970947     
  0.11870000000000003        -0.25813430547714233     
  0.11980000000000002        -0.23331239819526672     
  0.12090000000000001        -0.21135717630386353     
  0.12200000000000003        -0.19252929091453552     
  0.12310000000000001        -0.17701058089733124     
  0.12420000000000003        -0.16491478681564331     
  0.12530000000000002        -0.15628881752490997     
  0.12640000000000001        -0.15110138058662415     
  0.12750000000000003        -0.14922444522380829     
  0.12860000000000002        -0.15042930841445923     
  0.12970000000000001        -0.15440298616886139     
  0.13080000000000003        -0.16076695919036865     
  0.13190000000000002        -0.16908897459506989     
  0.13300000000000001        -0.17887486517429352     
  0.13410000000000000        -0.18955744802951813     
  0.13520000000000004        -0.20050777494907379     
  0.13630000000000003        -0.21106007695198059     
  0.13740000000000002        -0.22054034471511841     
  0.13850000000000001        -0.22827734053134918     
  0.13960000000000000        -0.23359757661819458     
  0.14070000000000005        -0.23582336306571960     
  0.14180000000000004        -0.23429083824157715     
  0.14290000000000003        -0.22838173806667328     
  0.14400000000000002        -0.21754965186119080     
  0.14510000000000001        -0.20132572948932648     
  0.14620000000000000        -0.17931239306926727     
  0.14730000000000004        -0.15118488669395447     
  0.14840000000000003        -0.11670413613319397     
  0.14950000000000002         -7.5745284557342529E-002
  0.15060000000000001         -2.8314758092164993E-002
  0.15170000000000000          2.5453340262174606E-002
  0.15280000000000005          8.5310921072959900E-002
  0.15390000000000004         0.15090748667716980     
  0.15500000000000003         0.22178448736667633     
  0.15610000000000002         0.29736116528511047     
  0.15720000000000001         0.37692570686340332     
  0.15830000000000000         0.45965290069580078     
  0.15940000000000004         0.54463750123977661     
  0.16050000000000003         0.63091468811035156     
  0.16160000000000002         0.71746313571929932     
  0.16270000000000001         0.80320179462432861     
  0.16380000000000000         0.88699662685394287     
  0.16490000000000005         0.96768939495086670     
  0.16600000000000004          1.0441389083862305     
  0.16710000000000003          1.1152495145797729     
  0.16820000000000002          1.1799756288528442     
  0.16930000000000001          1.2373199462890625     
  0.17040000000000000          1.2863421440124512     
  0.17150000000000004          1.3261890411376953     
  0.17260000000000003          1.3561331033706665     
  0.17370000000000002          1.3755921125411987     
  0.17480000000000001          1.3841273784637451     
  0.17590000000000000          1.3814314603805542     
  0.17700000000000005          1.3673305511474609     
  0.17810000000000004          1.3418028354644775     
  0.17920000000000003          1.3049957752227783     
  0.18030000000000002          1.2572311162948608     
  0.18140000000000001          1.1989855766296387     
  0.18250000000000000          1.1308655738830566     
  0.18360000000000004          1.0535976886749268     
  0.18470000000000003         0.96802598237991333     
  0.18580000000000002         0.87511128187179565     
  0.18690000000000001         0.77592051029205322     
  0.18800000000000000         0.67159676551818848     
  0.18910000000000005         0.56332683563232422     
  0.19020000000000004         0.45232430100440979     
  0.19130000000000003         0.33981877565383911     
  0.19240000000000002         0.22704607248306274     
  0.19350000000000001         0.11523194611072540     
  0.19460000000000005          5.5571086704730988E-003
  0.19570000000000004        -0.10087686777114868     
  0.19680000000000003        -0.20304922759532928     
  0.19790000000000002        -0.30001455545425415     
  0.19900000000000001        -0.39091137051582336     
  0.20010000000000000        -0.47497946023941040     
  0.20120000000000005        -0.55158865451812744     
  0.20230000000000004        -0.62024879455566406     
  0.20340000000000003        -0.68059784173965454     
  0.20450000000000002        -0.73237979412078857     
  0.20560000000000000        -0.77544069290161133     
  0.20670000000000005        -0.80974960327148438     
  0.20780000000000004        -0.83541190624237061     
  0.20890000000000003        -0.85265880823135376     
