 -0.12000000000000000          0.0000000000000000     
 -0.11889999999999999          0.0000000000000000     
 -0.11780000000000000          0.0000000000000000     
 -0.11670000000000000          0.0000000000000000     
 -0.11559999999999999          0.0000000000000000     
 -0.11449999999999999          0.0000000000000000     
 -0.11340000000000000         -3.7892096144825915E-013
 -0.11230000000000000         -8.3257055763508170E-012
 -0.11119999999999999         -4.7754879911598991E-011
 -0.11009999999999999         -1.1592217463718413E-010
 -0.10900000000000000         -2.1305382805203443E-011
 -0.10790000000000000          6.9737138286285472E-010
 -0.10679999999999999          2.1609161127145171E-009
 -0.10569999999999999          2.6386006712897370E-009
 -0.10460000000000000         -2.0820567492307873E-009
 -0.10349999999999999         -1.4853644536572119E-008
 -0.10239999999999999         -2.8147987052307144E-008
 -0.10130000000000000         -1.8456843164926795E-008
 -0.10020000000000000          3.9927552819563061E-008
  -9.9099999999999994E-002     1.3626170414227090E-007
  -9.7999999999999990E-002     1.8734813522769400E-007
  -9.6899999999999986E-002     6.1187293454167957E-008
  -9.5799999999999996E-002    -3.0422035024457728E-007
  -9.4699999999999993E-002    -7.4366295166328200E-007
  -9.3599999999999989E-002    -8.3001771145063685E-007
  -9.2499999999999999E-002    -1.1640465658047106E-007
  -9.1399999999999995E-002     1.3875711601940566E-006
  -9.0299999999999991E-002     2.8466740786825540E-006
  -8.9200000000000002E-002     2.8125889457442099E-006
  -8.8099999999999984E-002     2.0646582754579867E-007
  -8.6999999999999994E-002    -4.4049256757716648E-006
  -8.5899999999999990E-002    -8.2974729593843222E-006
  -8.4799999999999986E-002    -7.7662643889198080E-006
  -8.3699999999999997E-002    -8.1572301269261516E-007
  -8.2599999999999993E-002     1.0297763765265699E-005
  -8.1499999999999989E-002     1.8974846170749515E-005
  -8.0399999999999999E-002     1.7754802684066817E-005
  -7.9299999999999995E-002     3.8143045912875095E-006
  -7.8199999999999992E-002    -1.7363556253258139E-005
  -7.7100000000000002E-002    -3.3676413295324892E-005
  -7.5999999999999984E-002    -3.3485113817732781E-005
  -7.4899999999999994E-002    -1.3702376236324199E-005
  -7.3799999999999991E-002     1.7122762073995546E-005
  -7.2699999999999987E-002     4.3485131755005568E-005
  -7.1599999999999997E-002     5.2097839216003194E-005
  -7.0499999999999993E-002     3.8663307350361720E-005
  -6.9399999999999989E-002     7.8320354077732190E-006
  -6.8300000000000000E-002    -3.1402749300468713E-005
  -6.7199999999999996E-002    -6.8530192947946489E-005
  -6.6099999999999992E-002    -8.9760593255050480E-005
  -6.5000000000000002E-002    -7.7132426667958498E-005
  -6.3899999999999985E-002    -1.7161170035251416E-005
  -6.2799999999999995E-002     8.1036043411586434E-005
  -6.1699999999999991E-002     1.7330264381598681E-004
  -6.0599999999999994E-002     1.9395729759708047E-004
  -5.9499999999999990E-002     9.8848395282402635E-005
  -5.8399999999999994E-002    -8.8352004240732640E-005
  -5.7299999999999990E-002    -2.6878470089286566E-004
  -5.6199999999999986E-002    -3.2144217402674258E-004
  -5.5099999999999996E-002    -1.8904944590758532E-004
  -5.3999999999999992E-002     6.8070650740992278E-005
  -5.2899999999999989E-002     3.0109810177236795E-004
  -5.1799999999999985E-002     3.7229512236081064E-004
  -5.0699999999999995E-002     2.5028869276866317E-004
  -4.9599999999999991E-002     2.4026783648878336E-005
  -4.8499999999999988E-002    -1.7410216969437897E-004
  -4.7399999999999998E-002    -2.6549975154921412E-004
  -4.6299999999999994E-002    -2.5652290787547827E-004
  -4.5199999999999990E-002    -1.8583732889965177E-004
  -4.4099999999999986E-002    -5.9160505770705640E-005
  -4.2999999999999997E-002     1.4163929154165089E-004
  -4.1899999999999993E-002     3.7275921204127371E-004
  -4.0799999999999989E-002     4.6943099005147815E-004
  -3.9699999999999985E-002     2.2541789803653955E-004
  -3.8599999999999995E-002    -4.0209095459431410E-004
  -3.7499999999999992E-002    -1.1305126827210188E-003
  -3.6399999999999988E-002    -1.4255684800446033E-003
  -3.5299999999999984E-002    -8.3550543058663607E-004
  -3.4199999999999994E-002     6.2802783213555813E-004
  -3.3099999999999991E-002     2.3703020997345448E-003
  -3.1999999999999987E-002     3.4981255885213614E-003
  -3.0899999999999997E-002     3.3409451134502888E-003
  -2.9799999999999993E-002     1.8407242605462670E-003
  -2.8699999999999989E-002    -4.6741461846977472E-004
  -2.7599999999999986E-002    -2.8513972647488117E-003
  -2.6499999999999996E-002    -4.8500224947929382E-003
  -2.5399999999999992E-002    -6.4912107773125172E-003
  -2.4299999999999988E-002    -8.1661650910973549E-003
  -2.3199999999999985E-002    -1.0319188237190247E-002
  -2.2099999999999995E-002    -1.3189157471060753E-002
  -2.0999999999999991E-002    -1.6725575551390648E-002
  -1.9899999999999987E-002    -2.0660324022173882E-002
  -1.8799999999999983E-002    -2.4673586711287498E-002
  -1.7699999999999994E-002    -2.8626382350921631E-002
  -1.6599999999999990E-002    -3.2814987003803253E-002
  -1.5499999999999986E-002    -3.8092795759439468E-002
  -1.4399999999999996E-002    -4.5670334249734879E-002
  -1.3299999999999992E-002    -5.6571751832962036E-002
  -1.2199999999999989E-002    -7.1061156690120697E-002
  -1.1099999999999985E-002    -8.8554315268993378E-002
  -9.9999999999999950E-003   -0.10826960206031799     
  -8.8999999999999913E-003   -0.13029463589191437     
  -7.7999999999999875E-003   -0.15626201033592224     
  -6.6999999999999837E-003   -0.18898449838161469     
  -5.5999999999999939E-003   -0.23116007447242737     
  -4.4999999999999901E-003   -0.28405001759529114     
  -3.3999999999999864E-003   -0.34716048836708069     
  -2.2999999999999826E-003   -0.41927379369735718     
  -1.1999999999999927E-003   -0.50012367963790894     
  -9.9999999999988987E-005   -0.59153395891189575     
   1.0000000000000148E-003   -0.69734448194503784     
   2.1000000000000185E-003   -0.82227826118469238     
   3.2000000000000084E-003   -0.97067415714263916     
   4.3000000000000121E-003    -1.1457924842834473     
   5.4000000000000159E-003    -1.3498879671096802     
   6.5000000000000058E-003    -1.5846525430679321     
   7.6000000000000234E-003    -1.8516831398010254     
   8.7000000000000133E-003    -2.1530158519744873     
   9.8000000000000032E-003    -2.4918255805969238     
   1.0900000000000021E-002    -2.8729550838470459     
   1.2000000000000011E-002    -3.3028450012207031     
   1.3100000000000001E-002    -3.7884707450866699     
   1.4200000000000018E-002    -4.3356871604919434     
   1.5300000000000008E-002    -4.9480233192443848     
   1.6400000000000026E-002    -5.6268334388732910     
   1.7500000000000016E-002    -6.3725605010986328     
   1.8600000000000005E-002    -7.1863603591918945     
   1.9700000000000023E-002    -8.0706005096435547     
   2.0800000000000013E-002    -9.0280132293701172     
   2.1900000000000003E-002    -10.060995101928711     
   2.3000000000000020E-002    -11.171079635620117     
   2.4100000000000010E-002    -12.357702255249023     
   2.5200000000000000E-002    -13.619205474853516     
   2.6300000000000018E-002    -14.950961112976074     
   2.7400000000000008E-002    -16.343971252441406     
   2.8500000000000025E-002    -17.786027908325195     
   2.9600000000000015E-002    -19.261419296264648     
   3.0700000000000005E-002    -20.754190444946289     
   3.1800000000000023E-002    -22.250286102294922     
   3.2900000000000013E-002    -23.734811782836914     
   3.4000000000000002E-002    -25.188566207885742     
   3.5100000000000020E-002    -26.588388442993164     
   3.6200000000000010E-002    -27.903263092041016     
   3.7300000000000028E-002    -29.098974227905273     
   3.8400000000000017E-002    -30.136974334716797     
   3.9500000000000007E-002    -30.980810165405273     
   4.0600000000000025E-002    -31.592187881469727     
   4.1700000000000015E-002    -31.933343887329102     
   4.2800000000000005E-002    -31.966114044189453     
   4.3900000000000022E-002    -31.653062820434570     
   4.5000000000000012E-002    -30.956869125366211     
   4.6100000000000002E-002    -29.837951660156250     
   4.7200000000000020E-002    -28.259166717529297     
   4.8300000000000010E-002    -26.177299499511719     
   4.9400000000000027E-002    -23.558870315551758     
   5.0500000000000017E-002    -20.374664306640625     
   5.1600000000000007E-002    -16.612442016601562     
   5.2700000000000025E-002    -12.267198562622070     
   5.3800000000000014E-002    -7.3381323814392090     
   5.4900000000000004E-002    -1.8281775712966919     
   5.6000000000000022E-002     4.2541327476501465     
   5.7100000000000012E-002     10.877657890319824     
   5.8200000000000002E-002     18.004219055175781     
   5.9300000000000019E-002     25.582885742187500     
   6.0400000000000009E-002     33.557476043701172     
   6.1500000000000027E-002     41.854808807373047     
   6.2600000000000017E-002     50.397594451904297     
   6.3700000000000007E-002     59.086006164550781     
   6.4800000000000024E-002     67.812080383300781     
   6.5900000000000014E-002     76.454925537109375     
   6.7000000000000004E-002     84.893234252929688     
   6.8100000000000022E-002     92.999649047851562     
   6.9200000000000012E-002     100.64297485351562     
   7.0300000000000029E-002     107.69396209716797     
   7.1400000000000019E-002     114.01844787597656     
   7.2500000000000009E-002     119.48680114746094     
   7.3600000000000027E-002     123.97361755371094     
   7.4700000000000016E-002     127.37069702148438     
   7.5800000000000006E-002     129.56986999511719     
   7.6900000000000024E-002     130.47796630859375     
   7.8000000000000014E-002     130.00715637207031     
   7.9100000000000004E-002     128.09642028808594     
   8.0200000000000021E-002     124.70191192626953     
   8.1300000000000011E-002     119.82190704345703     
   8.2400000000000029E-002     113.46825408935547     
   8.3500000000000019E-002     105.67767333984375     
   8.4600000000000009E-002     96.497528076171875     
   8.5700000000000026E-002     85.996910095214844     
   8.6800000000000016E-002     74.276016235351562     
   8.7900000000000006E-002     61.459308624267578     
   8.9000000000000024E-002     47.693801879882812     
   9.0100000000000013E-002     33.141330718994141     
   9.1200000000000003E-002     17.972915649414062     
   9.2300000000000021E-002     2.3737478256225586     
   9.3400000000000011E-002    -13.452443122863770     
   9.4500000000000028E-002    -29.287641525268555     
   9.5600000000000018E-002    -44.911106109619141     
   9.6700000000000008E-002    -60.116317749023438     
   9.7800000000000026E-002    -74.700141906738281     
   9.8900000000000016E-002    -88.475250244140625     
  0.10000000000000001         -101.25933837890625     
  0.10110000000000002         -112.88301086425781     
  0.10220000000000001         -123.19097900390625     
  0.10330000000000003         -132.05302429199219     
  0.10440000000000002         -139.35763549804688     
  0.10550000000000001         -145.02845764160156     
  0.10660000000000003         -149.00646972656250     
  0.10770000000000002         -151.26062011718750     
  0.10880000000000001         -151.78305053710938     
  0.10990000000000003         -150.60047912597656     
  0.11100000000000002         -147.76855468750000     
  0.11210000000000001         -143.36578369140625     
  0.11320000000000002         -137.48420715332031     
  0.11430000000000001         -130.24302673339844     
  0.11540000000000003         -121.77786254882812     
  0.11650000000000002         -112.24204254150391     
  0.11760000000000001         -101.79665374755859     
  0.11870000000000003         -90.618934631347656     
  0.11980000000000002         -78.875724792480469     
  0.12090000000000001         -66.739875793457031     
  0.12200000000000003         -54.385742187500000     
  0.12310000000000001         -41.994129180908203     
  0.12420000000000003         -29.743877410888672     
  0.12530000000000002         -17.794368743896484     
  0.12640000000000001         -6.2869029045104980     
  0.12750000000000003          4.6557326316833496     
  0.12860000000000002          14.913805007934570     
  0.12970000000000001          24.378751754760742     
  0.13080000000000003          32.957061767578125     
  0.13190000000000002          40.578216552734375     
  0.13300000000000001          47.195877075195312     
  0.13410000000000000          52.793739318847656     
  0.13520000000000004          57.363533020019531     
  0.13630000000000003          60.903667449951172     
  0.13740000000000002          63.410568237304688     
  0.13850000000000001          64.900421142578125     
  0.13960000000000000          65.413146972656250     
  0.14070000000000005          65.014144897460938     
  0.14180000000000004          63.782978057861328     
  0.14290000000000003          61.792480468750000     
  0.14400000000000002          59.106723785400391     
  0.14510000000000001          55.791999816894531     
  0.14620000000000000          51.931697845458984     
  0.14730000000000004          47.627037048339844     
  0.14840000000000003          42.983394622802734     
  0.14950000000000002          38.089187622070312     
  0.15060000000000001          33.011379241943359     
  0.15170000000000000          27.809160232543945     
  0.15280000000000005          22.554689407348633     
  0.15390000000000004          17.334016799926758     
  0.15500000000000003          12.233961105346680     
  0.15610000000000002          7.3237915039062500     
  0.15720000000000001          2.6483180522918701     
  0.15830000000000000         -1.7587108612060547     
  0.15940000000000004         -5.8576474189758301     
  0.16050000000000003         -9.6018800735473633     
  0.16160000000000002         -12.952109336853027     
  0.16270000000000001         -15.890164375305176     
  0.16380000000000000         -18.416290283203125     
  0.16490000000000005         -20.532579421997070     
  0.16600000000000004         -22.231645584106445     
  0.16710000000000003         -23.498016357421875     
  0.16820000000000002         -24.331212997436523     
  0.16930000000000001         -24.752174377441406     
  0.17040000000000000         -24.794132232666016     
  0.17150000000000004         -24.483293533325195     
  0.17260000000000003         -23.830963134765625     
  0.17370000000000002         -22.844778060913086     
  0.17480000000000001         -21.552192687988281     
  0.17590000000000000         -20.008005142211914     
  0.17700000000000005         -18.270820617675781     
  0.17810000000000004         -16.378887176513672     
  0.17920000000000003         -14.342227935791016     
  0.18030000000000002         -12.165013313293457     
  0.18140000000000001         -9.8765764236450195     
  0.18250000000000000         -7.5367026329040527     
  0.18360000000000004         -5.2114658355712891     
  0.18470000000000003         -2.9370291233062744     
  0.18580000000000002        -0.71108877658843994     
  0.18690000000000001          1.4776664972305298     
  0.18800000000000000          3.6123623847961426     
  0.18910000000000005          5.6383323669433594     
  0.19020000000000004          7.4949989318847656     
  0.19130000000000003          9.1563243865966797     
  0.19240000000000002          10.641213417053223     
  0.19350000000000001          11.983146667480469     
  0.19460000000000005          13.188227653503418     
  0.19570000000000004          14.224516868591309     
  0.19680000000000003          15.052635192871094     
  0.19790000000000002          15.664420127868652     
  0.19900000000000001          16.090894699096680     
  0.20010000000000000          16.374160766601562     
  0.20120000000000005          16.527423858642578     
  0.20230000000000004          16.531379699707031     
  0.20340000000000003          16.362087249755859     
  0.20450000000000002          16.027034759521484     
  0.20560000000000000          15.568831443786621     
  0.20670000000000005          15.032777786254883     
  0.20780000000000004          14.433787345886230     
  0.20890000000000003          13.760009765625000     
