 -0.12000000000000000          0.0000000000000000     
 -0.11889999999999999          0.0000000000000000     
 -0.11780000000000000          0.0000000000000000     
 -0.11670000000000000          0.0000000000000000     
 -0.11559999999999999          0.0000000000000000     
 -0.11449999999999999          0.0000000000000000     
 -0.11340000000000000          0.0000000000000000     
 -0.11230000000000000         -7.9983530909544243E-009
 -0.11119999999999999         -3.8482969699771274E-008
 -0.11009999999999999          1.8726893813436618E-008
 -0.10900000000000000          6.8948048692618613E-007
 -0.10790000000000000          2.6613809041009517E-006
 -0.10679999999999999          4.6072468649072107E-006
 -0.10569999999999999         -3.0042673415664467E-007
 -0.10460000000000000         -2.2881811673869379E-005
 -0.10349999999999999         -6.2357605202123523E-005
 -0.10239999999999999         -8.0026606156025082E-005
 -0.10130000000000000          6.1037362684146501E-006
 -0.10020000000000000          2.5913078570738435E-004
  -9.9099999999999994E-002     5.9061654610559344E-004
  -9.7999999999999990E-002     6.6101225093007088E-004
  -9.6899999999999986E-002    -1.7603314290681737E-006
  -9.5799999999999996E-002    -1.5651358989998698E-003
  -9.4699999999999993E-002    -3.3370207529515028E-003
  -9.3599999999999989E-002    -3.6320493090897799E-003
  -9.2499999999999999E-002    -6.0457567451521754E-004
  -9.1399999999999995E-002     5.9975283220410347E-003
  -9.0299999999999991E-002     1.3202319853007793E-002
  -8.9200000000000002E-002     1.5013716183602810E-002
  -8.8099999999999984E-002     5.5936016142368317E-003
  -8.6999999999999994E-002    -1.5449272468686104E-002
  -8.5899999999999990E-002    -3.9045568555593491E-002
  -8.4799999999999986E-002    -4.8257477581501007E-002
  -8.3699999999999997E-002    -2.7409235015511513E-002
  -8.2599999999999993E-002     2.4779649451375008E-002
  -8.1499999999999989E-002     8.6865797638893127E-002
  -8.0399999999999999E-002    0.12021463364362717     
  -7.9299999999999995E-002     9.0032011270523071E-002
  -7.8199999999999992E-002    -8.4212906658649445E-003
  -7.7100000000000002E-002   -0.13660599291324615     
  -7.5999999999999984E-002   -0.22610861063003540     
  -7.4899999999999994E-002   -0.21537236869335175     
  -7.3799999999999991E-002    -8.8275164365768433E-002
  -7.2699999999999987E-002    0.11118401587009430     
  -7.1599999999999997E-002    0.29835432767868042     
  -7.0499999999999993E-002    0.38782885670661926     
  -6.9399999999999989E-002    0.32806399464607239     
  -6.8300000000000000E-002    0.11579020321369171     
  -6.7199999999999996E-002   -0.20310220122337341     
  -6.6099999999999992E-002   -0.53222835063934326     
  -6.5000000000000002E-002   -0.72744411230087280     
  -6.3899999999999985E-002   -0.63211250305175781     
  -6.2799999999999995E-002   -0.16546237468719482     
  -6.1699999999999991E-002    0.56809914112091064     
  -6.0599999999999994E-002     1.2391887903213501     
  -5.9499999999999990E-002     1.4095667600631714     
  -5.8399999999999994E-002    0.79317450523376465     
  -5.7299999999999990E-002   -0.48415321111679077     
  -5.6199999999999986E-002    -1.8302248716354370     
  -5.5099999999999996E-002    -2.4427092075347900     
  -5.3999999999999992E-002    -1.7707068920135498     
  -5.2899999999999989E-002     9.4210691750049591E-002
  -5.1799999999999985E-002     2.3619523048400879     
  -5.0699999999999995E-002     3.8877811431884766     
  -4.9599999999999991E-002     3.7361831665039062     
  -4.8499999999999988E-002     1.6667165756225586     
  -4.7399999999999998E-002    -1.6889531612396240     
  -4.6299999999999994E-002    -5.0228343009948730     
  -4.5199999999999990E-002    -6.8406877517700195     
  -4.4099999999999986E-002    -6.0894141197204590     
  -4.2999999999999997E-002    -2.7046818733215332     
  -4.1899999999999993E-002     2.1939175128936768     
  -4.0799999999999989E-002     6.6860237121582031     
  -3.9699999999999985E-002     8.9730863571166992     
  -3.8599999999999995E-002     8.3877668380737305     
  -3.7499999999999992E-002     5.7942790985107422     
  -3.6399999999999988E-002     2.9469134807586670     
  -3.5299999999999984E-002     1.1150094270706177     
  -3.4199999999999994E-002    -2.6289511471986771E-002
  -3.3099999999999991E-002    -2.2633230686187744     
  -3.1999999999999987E-002    -7.3960437774658203     
  -3.0899999999999997E-002    -15.540143013000488     
  -2.9799999999999993E-002    -24.595886230468750     
  -2.8699999999999989E-002    -31.382293701171875     
  -2.7599999999999986E-002    -33.400253295898438     
  -2.6499999999999996E-002    -29.415069580078125     
  -2.5399999999999992E-002    -17.950523376464844     
  -2.4299999999999988E-002     5.1707563400268555     
  -2.3199999999999985E-002     47.660911560058594     
  -2.2099999999999995E-002     118.07493591308594     
  -2.0999999999999991E-002     220.38285827636719     
  -1.9899999999999987E-002     349.35467529296875     
  -1.8799999999999983E-002     490.81515502929688     
  -1.7699999999999994E-002     628.26214599609375     
  -1.6599999999999990E-002     753.18609619140625     
  -1.5499999999999986E-002     873.47686767578125     
  -1.4399999999999996E-002     1014.6649169921875     
  -1.3299999999999992E-002     1212.4244384765625     
  -1.2199999999999989E-002     1499.6762695312500     
  -1.1099999999999985E-002     1895.0423583984375     
  -9.9999999999999950E-003     2399.3371582031250     
  -8.8999999999999913E-003     3003.0473632812500     
  -7.7999999999999875E-003     3701.9946289062500     
  -6.6999999999999837E-003     4513.2563476562500     
  -5.5999999999999939E-003     5482.2041015625000     
  -4.4999999999999901E-003     6675.5004882812500     
  -3.3999999999999864E-003     8163.0043945312500     
  -2.2999999999999826E-003     9999.1318359375000     
  -1.1999999999999927E-003     12216.125000000000     
  -9.9999999999988987E-005     14835.544921875000     
   1.0000000000000148E-003     17892.839843750000     
   2.1000000000000185E-003     21460.767578125000     
   3.2000000000000084E-003     25657.035156250000     
   4.3000000000000121E-003     30631.714843750000     
   5.4000000000000159E-003     36542.726562500000     
   6.5000000000000058E-003     43536.031250000000     
   7.6000000000000234E-003     51742.792968750000     
   8.7000000000000133E-003     61294.304687500000     
   9.8000000000000032E-003     72344.085937500000     
   1.0900000000000021E-002     85083.437500000000     
   1.2000000000000011E-002     99743.421875000000     
   1.3100000000000001E-002     116585.56250000000     
   1.4200000000000018E-002     135889.37500000000     
   1.5300000000000008E-002     157944.51562500000     
   1.6400000000000026E-002     183049.45312500000     
   1.7500000000000016E-002     211513.79687500000     
   1.8600000000000005E-002     243661.06250000000     
   1.9700000000000023E-002     279827.62500000000     
   2.0800000000000013E-002     320359.25000000000     
   2.1900000000000003E-002     365606.25000000000     
   2.3000000000000020E-002     415918.21875000000     
   2.4100000000000010E-002     471638.37500000000     
   2.5200000000000000E-002     533099.37500000000     
   2.6300000000000018E-002     600619.00000000000     
   2.7400000000000008E-002     674488.50000000000     
   2.8500000000000025E-002     754953.75000000000     
   2.9600000000000015E-002     842195.31250000000     
   3.0700000000000005E-002     936304.87500000000     
   3.1800000000000023E-002     1037287.0625000000     
   3.2900000000000013E-002     1145061.6250000000     
   3.4000000000000002E-002     1259480.6250000000     
   3.5100000000000020E-002     1380311.3750000000     
   3.6200000000000010E-002     1507206.8750000000     
   3.7300000000000028E-002     1639648.6250000000     
   3.8400000000000017E-002     1776899.2500000000     
   3.9500000000000007E-002     1918008.2500000000     
   4.0600000000000025E-002     2061831.5000000000     
   4.1700000000000015E-002     2207083.0000000000     
   4.2800000000000005E-002     2352340.5000000000     
   4.3900000000000022E-002     2496026.2500000000     
   4.5000000000000012E-002     2636385.2500000000     
   4.6100000000000002E-002     2771430.0000000000     
   4.7200000000000020E-002     2898944.7500000000     
   4.8300000000000010E-002     3016520.0000000000     
   4.9400000000000027E-002     3121601.5000000000     
   5.0500000000000017E-002     3211517.0000000000     
   5.1600000000000007E-002     3283545.7500000000     
   5.2700000000000025E-002     3334917.5000000000     
   5.3800000000000014E-002     3362845.0000000000     
   5.4900000000000004E-002     3364597.2500000000     
   5.6000000000000022E-002     3337451.5000000000     
   5.7100000000000012E-002     3278811.0000000000     
   5.8200000000000002E-002     3186207.0000000000     
   5.9300000000000019E-002     3057432.0000000000     
   6.0400000000000009E-002     2890592.0000000000     
   6.1500000000000027E-002     2684195.2500000000     
   6.2600000000000017E-002     2437168.2500000000     
   6.3700000000000007E-002     2148842.2500000000     
   6.4800000000000024E-002     1818978.0000000000     
   6.5900000000000014E-002     1447891.8750000000     
   6.7000000000000004E-002     1036468.3750000000     
   6.8100000000000022E-002     586308.43750000000     
   6.9200000000000012E-002     99710.156250000000     
   7.0300000000000029E-002    -420362.34375000000     
   7.1400000000000019E-002    -970352.87500000000     
   7.2500000000000009E-002    -1546170.2500000000     
   7.3600000000000027E-002    -2143135.2500000000     
   7.4700000000000016E-002    -2755963.7500000000     
   7.5800000000000006E-002    -3378809.7500000000     
   7.6900000000000024E-002    -4005365.7500000000     
   7.8000000000000014E-002    -4628920.0000000000     
   7.9100000000000004E-002    -5242474.5000000000     
   8.0200000000000021E-002    -5838853.5000000000     
   8.1300000000000011E-002    -6410765.5000000000     
   8.2400000000000029E-002    -6950997.5000000000     
   8.3500000000000019E-002    -7452481.5000000000     
   8.4600000000000009E-002    -7908432.0000000000     
   8.5700000000000026E-002    -8312413.5000000000     
   8.6800000000000016E-002    -8658406.0000000000     
   8.7900000000000006E-002    -8940962.0000000000     
   8.9000000000000024E-002    -9155343.0000000000     
   9.0100000000000013E-002    -9297635.0000000000     
   9.1200000000000003E-002    -9364799.0000000000     
   9.2300000000000021E-002    -9354737.0000000000     
   9.3400000000000011E-002    -9266299.0000000000     
   9.4500000000000028E-002    -9099333.0000000000     
   9.5600000000000018E-002    -8854741.0000000000     
   9.6700000000000008E-002    -8534489.0000000000     
   9.7800000000000026E-002    -8141571.0000000000     
   9.8900000000000016E-002    -7679908.0000000000     
  0.10000000000000001         -7154301.0000000000     
  0.10110000000000002         -6570354.5000000000     
  0.10220000000000001         -5934465.0000000000     
  0.10330000000000003         -5253716.5000000000     
  0.10440000000000002         -4535779.5000000000     
  0.10550000000000001         -3788728.7500000000     
  0.10660000000000003         -3020863.0000000000     
  0.10770000000000002         -2240610.2500000000     
  0.10880000000000001         -1456413.0000000000     
  0.10990000000000003         -676690.18750000000     
  0.11100000000000002          90378.570312500000     
  0.11210000000000001          836964.81250000000     
  0.11320000000000002          1555680.1250000000     
  0.11430000000000001          2239719.7500000000     
  0.11540000000000003          2882962.2500000000     
  0.11650000000000002          3480022.0000000000     
  0.11760000000000001          4026256.0000000000     
  0.11870000000000003          4517853.5000000000     
  0.11980000000000002          4951856.5000000000     
  0.12090000000000001          5326122.5000000000     
  0.12200000000000003          5639423.5000000000     
  0.12310000000000001          5891294.0000000000     
  0.12420000000000003          6082133.5000000000     
  0.12530000000000002          6213070.5000000000     
  0.12640000000000001          6285983.0000000000     
  0.12750000000000003          6303396.0000000000     
  0.12860000000000002          6268387.5000000000     
  0.12970000000000001          6184458.5000000000     
  0.13080000000000003          6055495.5000000000     
  0.13190000000000002          5885780.0000000000     
  0.13300000000000001          5679862.5000000000     
  0.13410000000000000          5442461.0000000000     
  0.13520000000000004          5178340.0000000000     
  0.13630000000000003          4892189.0000000000     
  0.13740000000000002          4588563.0000000000     
  0.13850000000000001          4271958.0000000000     
  0.13960000000000000          3946751.7500000000     
  0.14070000000000005          3617150.7500000000     
  0.14180000000000004          3287019.7500000000     
  0.14290000000000003          2959817.7500000000     
  0.14400000000000002          2638596.7500000000     
  0.14510000000000001          2326078.7500000000     
  0.14620000000000000          2024729.8750000000     
  0.14730000000000004          1736710.2500000000     
  0.14840000000000003          1463805.8750000000     
  0.14950000000000002          1207331.3750000000     
  0.15060000000000001          968182.62500000000     
  0.15170000000000000          746939.68750000000     
  0.15280000000000005          543984.50000000000     
  0.15390000000000004          359502.56250000000     
  0.15500000000000003          193411.93750000000     
  0.15610000000000002          45331.566406250000     
  0.15720000000000001         -85380.585937500000     
  0.15830000000000000         -199507.76562500000     
  0.15940000000000004         -297883.31250000000     
  0.16050000000000003         -381390.75000000000     
  0.16160000000000002         -451027.15625000000     
  0.16270000000000001         -507927.87500000000     
  0.16380000000000000         -553295.12500000000     
  0.16490000000000005         -588296.25000000000     
  0.16600000000000004         -613997.31250000000     
  0.16710000000000003         -631404.31250000000     
  0.16820000000000002         -641539.56250000000     
  0.16930000000000001         -645479.62500000000     
  0.17040000000000000         -644266.31250000000     
  0.17150000000000004         -638812.12500000000     
  0.17260000000000003         -629844.00000000000     
  0.17370000000000002         -617988.43750000000     
  0.17480000000000001         -603881.81250000000     
  0.17590000000000000         -588189.87500000000     
  0.17700000000000005         -571501.31250000000     
  0.17810000000000004         -554245.56250000000     
  0.17920000000000003         -536655.56250000000     
  0.18030000000000002         -518903.59375000000     
  0.18140000000000001         -501216.40625000000     
  0.18250000000000000         -483897.96875000000     
  0.18360000000000004         -467212.53125000000     
  0.18470000000000003         -451243.15625000000     
  0.18580000000000002         -435896.09375000000     
  0.18690000000000001         -421027.68750000000     
  0.18800000000000000         -406616.96875000000     
  0.18910000000000005         -392774.09375000000     
  0.19020000000000004         -379617.12500000000     
  0.19130000000000003         -367106.00000000000     
  0.19240000000000002         -355030.50000000000     
  0.19350000000000001         -343141.71875000000     
  0.19460000000000005         -331330.78125000000     
  0.19570000000000004         -319659.81250000000     
  0.19680000000000003         -308251.31250000000     
  0.19790000000000002         -297115.62500000000     
  0.19900000000000001         -286120.53125000000     
  0.20010000000000000         -275106.34375000000     
  0.20120000000000005         -264008.34375000000     
  0.20230000000000004         -252898.56250000000     
  0.20340000000000003         -241870.79687500000     
  0.20450000000000002         -230932.64062500000     
  0.20560000000000000         -220003.12500000000     
  0.20670000000000005         -209016.20312500000     
  0.20780000000000004         -198020.81250000000     
  0.20890000000000003         -187148.84375000000     
