 -0.12000000000000000          0.0000000000000000     
 -0.11889999999999999          0.0000000000000000     
 -0.11780000000000000          0.0000000000000000     
 -0.11670000000000000          0.0000000000000000     
 -0.11559999999999999          0.0000000000000000     
 -0.11449999999999999          0.0000000000000000     
 -0.11340000000000000          0.0000000000000000     
 -0.11230000000000000          0.0000000000000000     
 -0.11119999999999999          0.0000000000000000     
 -0.11009999999999999          0.0000000000000000     
 -0.10900000000000000          4.9195650590763816E-023
 -0.10790000000000000          2.2611131598391761E-016
 -0.10679999999999999          2.7311351304023764E-015
 -0.10569999999999999          1.2513482851100270E-014
 -0.10460000000000000          1.4490858396575858E-014
 -0.10349999999999999         -1.1129424747242933E-013
 -0.10239999999999999         -6.0279868119642033E-013
 -0.10130000000000000         -1.1653203358871767E-012
 -0.10020000000000000          7.2401031567595475E-013
  -9.9099999999999994E-002     9.8707014783983027E-012
  -9.7999999999999990E-002     2.4362846809400374E-011
  -9.6899999999999986E-002     1.5776026318636838E-011
  -9.5799999999999996E-002    -7.2356780289606348E-011
  -9.4699999999999993E-002    -2.4652982433259751E-010
  -9.3599999999999989E-002    -3.0360114422478546E-010
  -9.2499999999999999E-002     1.9664847528133578E-010
  -9.1399999999999995E-002     1.4447988361254716E-009
  -9.0299999999999991E-002     2.4075492710551316E-009
  -8.9200000000000002E-002     5.7960070076745751E-010
  -8.8099999999999984E-002    -5.5939612941813266E-009
  -8.6999999999999994E-002    -1.1874795369237745E-008
  -8.5899999999999990E-002    -6.7301852979539944E-009
  -8.4799999999999986E-002     1.8212148233942571E-008
  -8.3699999999999997E-002     4.7044046880273527E-008
  -8.2599999999999993E-002     3.1896458807523231E-008
  -8.1499999999999989E-002    -6.6261137021683680E-008
  -8.0399999999999999E-002    -1.9209957713428594E-007
  -7.9299999999999995E-002    -1.5630530469934456E-007
  -7.8199999999999992E-002     2.2335679261686892E-007
  -7.7100000000000002E-002     7.9746149594939197E-007
  -7.5999999999999984E-002     8.8035596945701400E-007
  -7.4899999999999994E-002    -3.4649175972845114E-007
  -7.3799999999999991E-002    -2.7172447971679503E-006
  -7.2699999999999987E-002    -4.1346474972669967E-006
  -7.1599999999999997E-002    -1.4127698477750528E-006
  -7.0499999999999993E-002     6.3740394580236170E-006
  -6.9399999999999989E-002     1.4204454600985628E-005
  -6.8300000000000000E-002     1.1897836884600110E-005
  -6.7199999999999996E-002    -7.3937412707891781E-006
  -6.6099999999999992E-002    -3.5244556784164160E-005
  -6.5000000000000002E-002    -4.5197197323432192E-005
  -6.3899999999999985E-002    -1.0577972716419026E-005
  -6.2799999999999995E-002     6.2886778323445469E-005
  -6.1699999999999991E-002     1.1883760453201830E-004
  -6.0599999999999994E-002     7.9981306043919176E-005
  -5.9499999999999990E-002    -7.5218813435640186E-005
  -5.8399999999999994E-002    -2.4808489251881838E-004
  -5.7299999999999990E-002    -2.5327413459308445E-004
  -5.6199999999999986E-002     2.3356458768830635E-005
  -5.5099999999999996E-002     4.4679810525849462E-004
  -5.3999999999999992E-002     6.2981812516227365E-004
  -5.2899999999999989E-002     2.1763391850981861E-004
  -5.1799999999999985E-002    -6.9102382985875010E-004
  -5.0699999999999995E-002    -1.3845389476045966E-003
  -4.9599999999999991E-002    -9.7253307467326522E-004
  -4.8499999999999988E-002     7.3548621730878949E-004
  -4.7399999999999998E-002     2.6342559140175581E-003
  -4.6299999999999994E-002     2.8147974517196417E-003
  -4.5199999999999990E-002     1.7841742374002934E-004
  -4.4099999999999986E-002    -3.9933477528393269E-003
  -4.2999999999999997E-002    -6.2061073258519173E-003
  -4.1899999999999993E-002    -3.3094917889684439E-003
  -4.0799999999999989E-002     4.1252290830016136E-003
  -3.9699999999999985E-002     1.0740057565271854E-002
  -3.8599999999999995E-002     9.7334086894989014E-003
  -3.7499999999999992E-002    -9.5301761757582426E-004
  -3.6399999999999988E-002    -1.4717961661517620E-002
  -3.5299999999999984E-002    -1.9485937431454659E-002
  -3.4199999999999994E-002    -7.5050932355225086E-003
  -3.3099999999999991E-002     1.5552949160337448E-002
  -3.1999999999999987E-002     3.1441211700439453E-002
  -3.0899999999999997E-002     2.2740423679351807E-002
  -2.9799999999999993E-002    -1.0094754397869110E-002
  -2.8699999999999989E-002    -4.3476741760969162E-002
  -2.7599999999999986E-002    -4.6052183955907822E-002
  -2.6499999999999996E-002    -6.2035424634814262E-003
  -2.5399999999999992E-002     5.1121708005666733E-002
  -2.4299999999999988E-002     7.7453009784221649E-002
  -2.3199999999999985E-002     3.9716776460409164E-002
  -2.2099999999999995E-002    -4.4741429388523102E-002
  -2.0999999999999991E-002   -0.11103562265634537     
  -1.9899999999999987E-002    -9.4500169157981873E-002
  -1.8799999999999983E-002     1.0083134286105633E-002
  -1.7699999999999994E-002    0.12989741563796997     
  -1.6599999999999990E-002    0.16248577833175659     
  -1.5499999999999986E-002     6.1409007757902145E-002
  -1.4399999999999996E-002   -0.11107514798641205     
  -1.3299999999999992E-002   -0.21858164668083191     
  -1.2199999999999989E-002   -0.15773704648017883     
  -1.1099999999999985E-002     4.5257784426212311E-002
  -9.9999999999999950E-003    0.23680709302425385     
  -8.8999999999999913E-003    0.25094538927078247     
  -7.7999999999999875E-003     5.2488807588815689E-002
  -6.6999999999999837E-003   -0.21425770223140717     
  -5.5999999999999939E-003   -0.32737416028976440     
  -4.4999999999999901E-003   -0.17016673088073730     
  -3.3999999999999864E-003    0.15496358275413513     
  -2.2999999999999826E-003    0.38909810781478882     
  -1.1999999999999927E-003    0.32125225663185120     
  -9.9999999999988987E-005    -2.6873243972659111E-002
   1.0000000000000148E-003   -0.39615687727928162     
   2.1000000000000185E-003   -0.48530876636505127     
   3.2000000000000084E-003   -0.19704174995422363     
   4.3000000000000121E-003    0.26762199401855469     
   5.4000000000000159E-003    0.55444484949111938     
   6.5000000000000058E-003    0.43286126852035522     
   7.6000000000000234E-003    -1.6183365136384964E-002
   8.7000000000000133E-003   -0.45572388172149658     
   9.8000000000000032E-003   -0.55123829841613770     
   1.0900000000000021E-002   -0.22874845564365387     
   1.2000000000000011E-002    0.26895344257354736     
   1.3100000000000001E-002    0.56755262613296509     
   1.4200000000000018E-002    0.44049903750419617     
   1.5300000000000008E-002    -2.8784578666090965E-002
   1.6400000000000026E-002   -0.51286661624908447     
   1.7500000000000016E-002   -0.67278003692626953     
   1.8600000000000005E-002   -0.38577672839164734     
   1.9700000000000023E-002    0.18028630316257477     
   2.0800000000000013E-002    0.67853552103042603     
   2.1900000000000003E-002    0.79790258407592773     
   2.3000000000000020E-002    0.45137861371040344     
   2.4100000000000010E-002   -0.16568571329116821     
   2.5200000000000000E-002   -0.68189889192581177     
   2.6300000000000018E-002   -0.77326768636703491     
   2.7400000000000008E-002   -0.38327258825302124     
   2.8500000000000025E-002    0.20797386765480042     
   2.9600000000000015E-002    0.54950505495071411     
   3.0700000000000005E-002    0.34988960623741150     
   3.1800000000000023E-002   -0.25363832712173462     
   3.2900000000000013E-002   -0.72863608598709106     
   3.4000000000000002E-002   -0.53115224838256836     
   3.5100000000000020E-002    0.40797248482704163     
   3.6200000000000010E-002     1.4963003396987915     
   3.7300000000000028E-002     1.8266127109527588     
   3.8400000000000017E-002    0.87431967258453369     
   3.9500000000000007E-002   -0.98136466741561890     
   4.0600000000000025E-002    -2.5859270095825195     
   4.1700000000000015E-002    -2.7864398956298828     
   4.2800000000000005E-002    -1.3099957704544067     
   4.3900000000000022E-002    0.95415753126144409     
   4.5000000000000012E-002     2.5466628074645996     
   4.6100000000000002E-002     2.4925100803375244     
   4.7200000000000020E-002     1.0091849565505981     
   4.8300000000000010E-002   -0.69313865900039673     
   4.9400000000000027E-002    -1.3668111562728882     
   5.0500000000000017E-002   -0.68111687898635864     
   5.1600000000000007E-002    0.57436549663543701     
   5.2700000000000025E-002     1.1767189502716064     
   5.3800000000000014E-002    0.47720667719841003     
   5.4900000000000004E-002    -1.0746768712997437     
   5.6000000000000022E-002    -2.2821307182312012     
   5.7100000000000012E-002    -2.1244070529937744     
   5.8200000000000002E-002   -0.53134298324584961     
   5.9300000000000019E-002     1.5556862354278564     
   6.0400000000000009E-002     2.8436391353607178     
   6.1500000000000027E-002     2.5705945491790771     
   6.2600000000000017E-002     1.0076115131378174     
   6.3700000000000007E-002   -0.73215365409851074     
   6.4800000000000024E-002    -1.4280980825424194     
   6.5900000000000014E-002   -0.57006895542144775     
   6.7000000000000004E-002     1.2469359636306763     
   6.8100000000000022E-002     2.6339223384857178     
   6.9200000000000012E-002     2.3075745105743408     
   7.0300000000000029E-002     6.6296033561229706E-002
   7.1400000000000019E-002    -2.8370928764343262     
   7.2500000000000009E-002    -4.3271126747131348     
   7.3600000000000027E-002    -2.8747243881225586     
   7.4700000000000016E-002     1.2737627029418945     
   7.5800000000000006E-002     6.0060634613037109     
   7.6900000000000024E-002     8.6306400299072266     
   7.8000000000000014E-002     7.7464227676391602     
   7.9100000000000004E-002     4.2909688949584961     
   8.0200000000000021E-002    0.86287754774093628     
   8.1300000000000011E-002   -0.24094362556934357     
   8.2400000000000029E-002     1.2579464912414551     
   8.3500000000000019E-002     3.5316004753112793     
   8.4600000000000009E-002     4.3803029060363770     
   8.5700000000000026E-002     3.2219893932342529     
   8.6800000000000016E-002     1.7849521636962891     
   8.7900000000000006E-002     2.6434006690979004     
   8.9000000000000024E-002     6.9095616340637207     
   9.0100000000000013E-002     13.054342269897461     
   9.1200000000000003E-002     17.830984115600586     
   9.2300000000000021E-002     18.679918289184570     
   9.3400000000000011E-002     15.669662475585938     
   9.4500000000000028E-002     11.330442428588867     
   9.5600000000000018E-002     8.8301763534545898     
   9.6700000000000008E-002     9.8206539154052734     
   9.7800000000000026E-002     13.564601898193359     
   9.8900000000000016E-002     17.924077987670898     
  0.10000000000000001          21.231786727905273     
  0.10110000000000002          22.910657882690430     
  0.10220000000000001          23.503667831420898     
  0.10330000000000003          24.005769729614258     
  0.10440000000000002          25.319419860839844     
  0.10550000000000001          27.587930679321289     
  0.10660000000000003          30.560684204101562     
  0.10770000000000002          32.948200225830078     
  0.10880000000000001          33.931343078613281     
  0.10990000000000003          32.974555969238281     
  0.11100000000000002          31.152652740478516     
  0.11210000000000001          30.090890884399414     
  0.11320000000000002          31.721376419067383     
  0.11430000000000001          35.195842742919922     
  0.11540000000000003          38.065078735351562     
  0.11650000000000002          37.911487579345703     
  0.11760000000000001          33.837867736816406     
  0.11870000000000003          27.945249557495117     
  0.11980000000000002          23.998289108276367     
  0.12090000000000001          23.634542465209961     
  0.12200000000000003          26.199211120605469     
  0.12310000000000001          26.454578399658203     
  0.12420000000000003          22.584978103637695     
  0.12530000000000002          14.349687576293945     
  0.12640000000000001          5.8065791130065918     
  0.12750000000000003          1.7032165527343750     
  0.12860000000000002          2.5112888813018799     
  0.12970000000000001          4.5839004516601562     
  0.13080000000000003          1.9474905729293823     
  0.13190000000000002         -7.3581309318542480     
  0.13300000000000001         -18.723539352416992     
  0.13410000000000000         -29.698347091674805     
  0.13520000000000004         -37.918376922607422     
  0.13630000000000003         -42.058383941650391     
  0.13740000000000002         -48.132358551025391     
  0.13850000000000001         -54.577205657958984     
  0.13960000000000000         -63.168071746826172     
  0.14070000000000005         -65.220298767089844     
  0.14180000000000004         -62.499092102050781     
  0.14290000000000003         -60.415832519531250     
  0.14400000000000002         -60.694343566894531     
  0.14510000000000001         -65.223609924316406     
  0.14620000000000000         -70.708930969238281     
  0.14730000000000004         -75.380989074707031     
  0.14840000000000003         -80.105598449707031     
  0.14950000000000002         -79.501739501953125     
  0.15060000000000001         -80.056594848632812     
  0.15170000000000000         -79.318695068359375     
  0.15280000000000005         -78.448356628417969     
  0.15390000000000004         -72.466033935546875     
  0.15500000000000003         -65.917892456054688     
  0.15610000000000002         -57.735134124755859     
  0.15720000000000001         -53.743499755859375     
  0.15830000000000000         -50.533245086669922     
  0.15940000000000004         -44.129482269287109     
  0.16050000000000003         -30.267690658569336     
  0.16160000000000002         -10.498847007751465     
  0.16270000000000001          3.3039751052856445     
  0.16380000000000000          10.306455612182617     
  0.16490000000000005          4.8706507682800293     
  0.16600000000000004         -1.5911024808883667     
  0.16710000000000003          1.1505664587020874     
  0.16820000000000002          11.049815177917480     
  0.16930000000000001          24.453952789306641     
  0.17040000000000000          36.074150085449219     
  0.17150000000000004          39.964565277099609     
  0.17260000000000003          42.449848175048828     
  0.17370000000000002          44.539234161376953     
  0.17480000000000001          49.133811950683594     
  0.17590000000000000          54.793228149414062     
  0.17700000000000005          55.659706115722656     
  0.17810000000000004          54.611000061035156     
  0.17920000000000003          55.339378356933594     
  0.18030000000000002          63.484371185302734     
  0.18140000000000001          76.417388916015625     
  0.18250000000000000          84.243316650390625     
  0.18360000000000004          78.331230163574219     
  0.18470000000000003          56.708724975585938     
  0.18580000000000002          30.419609069824219     
  0.18690000000000001          12.528219223022461     
  0.18800000000000000          8.7017240524291992     
  0.18910000000000005          14.823460578918457     
  0.19020000000000004          20.582036972045898     
  0.19130000000000003          19.999410629272461     
  0.19240000000000002          15.239280700683594     
  0.19350000000000001          11.794404983520508     
  0.19460000000000005          11.559560775756836     
  0.19570000000000004          9.7646417617797852     
  0.19680000000000003        -0.44217887520790100     
  0.19790000000000002         -19.617715835571289     
  0.19900000000000001         -41.023124694824219     
  0.20010000000000000         -54.127994537353516     
  0.20120000000000005         -56.148197174072266     
  0.20230000000000004         -53.920410156250000     
  0.20340000000000003         -57.386978149414062     
  0.20450000000000002         -71.439369201660156     
  0.20560000000000000         -91.448707580566406     
  0.20670000000000005         -106.33724975585938     
  0.20780000000000004         -110.90945434570312     
  0.20890000000000003         -110.89765930175781     
