 -0.12000000000000000          0.0000000000000000     
 -0.11889999999999999          0.0000000000000000     
 -0.11780000000000000          0.0000000000000000     
 -0.11670000000000000          0.0000000000000000     
 -0.11559999999999999          0.0000000000000000     
 -0.11449999999999999          0.0000000000000000     
 -0.11340000000000000          0.0000000000000000     
 -0.11230000000000000         -1.1095668828176031E-009
 -0.11119999999999999          4.7120682356016630E-011
 -0.11009999999999999          4.2229157060091893E-008
 -0.10900000000000000          1.9222164837628952E-007
 -0.10790000000000000          2.6852848122871364E-007
 -0.10679999999999999         -6.6269996068513137E-007
 -0.10569999999999999         -3.7469123981281882E-006
 -0.10460000000000000         -6.8588883550546598E-006
 -0.10349999999999999         -2.4575749080213427E-007
 -0.10239999999999999          2.8211174139869399E-005
 -0.10130000000000000          6.7797489464282990E-005
 -0.10020000000000000          5.6281973229488358E-005
  -9.9099999999999994E-002    -9.4291906862054020E-005
  -9.7999999999999990E-002    -3.6917376564815640E-004
  -9.6899999999999986E-002    -4.9719534581527114E-004
  -9.5799999999999996E-002    -1.9274721125839278E-005
  -9.4699999999999993E-002     1.2153700226917863E-003
  -9.3599999999999989E-002     2.3808570113033056E-003
  -9.2499999999999999E-002     1.6974178142845631E-003
  -9.1399999999999995E-002    -2.0726497750729322E-003
  -9.0299999999999991E-002    -7.2701023891568184E-003
  -8.9200000000000002E-002    -8.6491750553250313E-003
  -8.8099999999999984E-002    -9.3474949244409800E-004
  -8.6999999999999994E-002     1.4377729035913944E-002
  -8.5899999999999990E-002     2.5281835347414017E-002
  -8.4799999999999986E-002     1.5934346243739128E-002
  -8.3699999999999997E-002    -1.6867781057953835E-002
  -8.2599999999999993E-002    -5.1105286926031113E-002
  -8.1499999999999989E-002    -4.9204815179109573E-002
  -8.0399999999999999E-002     7.2569600306451321E-003
  -7.9299999999999995E-002     8.4239095449447632E-002
  -7.8199999999999992E-002    0.10442969202995300     
  -7.7100000000000002E-002     1.3167737983167171E-002
  -7.5999999999999984E-002   -0.14451201260089874     
  -7.4899999999999994E-002   -0.22017413377761841     
  -7.3799999999999991E-002    -7.6061904430389404E-002
  -7.2699999999999987E-002    0.25162297487258911     
  -7.1599999999999997E-002    0.50001132488250732     
  -7.0499999999999993E-002    0.35105282068252563     
  -6.9399999999999989E-002   -0.25429052114486694     
  -6.8300000000000000E-002   -0.93276053667068481     
  -6.7199999999999996E-002    -1.0558468103408813     
  -6.6099999999999992E-002   -0.27504199743270874     
  -6.5000000000000002E-002     1.0375164747238159     
  -6.3899999999999985E-002     1.9038007259368896     
  -6.2799999999999995E-002     1.4719127416610718     
  -6.1699999999999991E-002   -0.17235709726810455     
  -6.0599999999999994E-002    -1.8805209398269653     
  -5.9499999999999990E-002    -2.2866415977478027     
  -5.8399999999999994E-002    -1.0167255401611328     
  -5.7299999999999990E-002    0.83781015872955322     
  -5.6199999999999986E-002     1.5845309495925903     
  -5.5099999999999996E-002    0.52379709482192993     
  -5.3999999999999992E-002    -1.1869369745254517     
  -5.2899999999999989E-002    -1.4103125333786011     
  -5.1799999999999985E-002    0.89573329687118530     
  -5.0699999999999995E-002     4.2597718238830566     
  -4.9599999999999991E-002     5.4940171241760254     
  -4.8499999999999988E-002     2.3679926395416260     
  -4.7399999999999998E-002    -4.0650367736816406     
  -4.6299999999999994E-002    -9.7276620864868164     
  -4.5199999999999990E-002    -10.469631195068359     
  -4.4099999999999986E-002    -5.3377742767333984     
  -4.2999999999999997E-002     2.6779742240905762     
  -4.1899999999999993E-002     9.0954408645629883     
  -4.0799999999999989E-002     11.356598854064941     
  -3.9699999999999985E-002     10.116749763488770     
  -3.8599999999999995E-002     7.4361886978149414     
  -3.7499999999999992E-002     4.0153522491455078     
  -3.6399999999999988E-002    -1.4127981662750244     
  -3.5299999999999984E-002    -9.7148714065551758     
  -3.4199999999999994E-002    -18.554836273193359     
  -3.3099999999999991E-002    -22.605161666870117     
  -3.1999999999999987E-002    -17.429113388061523     
  -3.0899999999999997E-002    -3.7725973129272461     
  -2.9799999999999993E-002     12.001538276672363     
  -2.8699999999999989E-002     22.297161102294922     
  -2.7599999999999986E-002     23.809011459350586     
  -2.6499999999999996E-002     19.190389633178711     
  -2.5399999999999992E-002     13.465313911437988     
  -2.4299999999999988E-002     8.9224081039428711     
  -2.3199999999999985E-002     3.6915779113769531     
  -2.2099999999999995E-002    -4.7094964981079102     
  -2.0999999999999991E-002    -15.001032829284668     
  -1.9899999999999987E-002    -22.278684616088867     
  -1.8799999999999983E-002    -23.337823867797852     
  -1.7699999999999994E-002    -21.916091918945312     
  -1.6599999999999990E-002    -27.778059005737305     
  -1.5499999999999986E-002    -49.372962951660156     
  -1.4399999999999996E-002    -86.676033020019531     
  -1.3299999999999992E-002    -131.48233032226562     
  -1.2199999999999989E-002    -175.48104858398438     
  -1.1099999999999985E-002    -218.50433349609375     
  -9.9999999999999950E-003    -268.72140502929688     
  -8.8999999999999913E-003    -334.52563476562500     
  -7.7999999999999875E-003    -416.70916748046875     
  -6.6999999999999837E-003    -509.84332275390625     
  -5.5999999999999939E-003    -612.47552490234375     
  -4.4999999999999901E-003    -735.85321044921875     
  -3.3999999999999864E-003    -901.03143310546875     
  -2.2999999999999826E-003    -1125.3708496093750     
  -1.1999999999999927E-003    -1411.0008544921875     
  -9.9999999999988987E-005    -1747.6342773437500     
   1.0000000000000148E-003    -2129.1010742187500     
   2.1000000000000185E-003    -2569.2175292968750     
   3.2000000000000084E-003    -3102.0007324218750     
   4.3000000000000121E-003    -3765.3837890625000     
   5.4000000000000159E-003    -4583.2636718750000     
   6.5000000000000058E-003    -5562.6176757812500     
   7.6000000000000234E-003    -6708.1933593750000     
   8.7000000000000133E-003    -8040.7675781250000     
   9.8000000000000032E-003    -9602.1503906250000     
   1.0900000000000021E-002    -11443.862304687500     
   1.2000000000000011E-002    -13612.482421875000     
   1.3100000000000001E-002    -16146.983398437500     
   1.4200000000000018E-002    -19090.076171875000     
   1.5300000000000008E-002    -22500.455078125000     
   1.6400000000000026E-002    -26452.503906250000     
   1.7500000000000016E-002    -31023.845703125000     
   1.8600000000000005E-002    -36285.285156250000     
   1.9700000000000023E-002    -42305.031250000000     
   2.0800000000000013E-002    -49163.070312500000     
   2.1900000000000003E-002    -56959.671875000000     
   2.3000000000000020E-002    -65805.703125000000     
   2.4100000000000010E-002    -75803.984375000000     
   2.5200000000000000E-002    -87040.671875000000     
   2.6300000000000018E-002    -99599.484375000000     
   2.7400000000000008E-002    -113584.97656250000     
   2.8500000000000025E-002    -129130.67187500000     
   2.9600000000000015E-002    -146378.40625000000     
   3.0700000000000005E-002    -165444.12500000000     
   3.1800000000000023E-002    -186399.89062500000     
   3.2900000000000013E-002    -209290.39062500000     
   3.4000000000000002E-002    -234167.34375000000     
   3.5100000000000020E-002    -261103.50000000000     
   3.6200000000000010E-002    -290172.65625000000     
   3.7300000000000028E-002    -321404.50000000000     
   3.8400000000000017E-002    -354758.71875000000     
   3.9500000000000007E-002    -390136.09375000000     
   4.0600000000000025E-002    -427417.93750000000     
   4.1700000000000015E-002    -466490.06250000000     
   4.2800000000000005E-002    -507229.59375000000     
   4.3900000000000022E-002    -549457.37500000000     
   4.5000000000000012E-002    -592903.31250000000     
   4.6100000000000002E-002    -637201.62500000000     
   4.7200000000000020E-002    -681921.75000000000     
   4.8300000000000010E-002    -726593.50000000000     
   4.9400000000000027E-002    -770717.06250000000     
   5.0500000000000017E-002    -813737.25000000000     
   5.1600000000000007E-002    -855028.31250000000     
   5.2700000000000025E-002    -893911.93750000000     
   5.3800000000000014E-002    -929668.43750000000     
   5.4900000000000004E-002    -961547.93750000000     
   5.6000000000000022E-002    -988756.31250000000     
   5.7100000000000012E-002    -1010436.6250000000     
   5.8200000000000002E-002    -1025687.3125000000     
   5.9300000000000019E-002    -1033606.6875000000     
   6.0400000000000009E-002    -1033338.3750000000     
   6.1500000000000027E-002    -1024094.3750000000     
   6.2600000000000017E-002    -1005133.8125000000     
   6.3700000000000007E-002    -975717.81250000000     
   6.4800000000000024E-002    -935133.12500000000     
   6.5900000000000014E-002    -882759.50000000000     
   6.7000000000000004E-002    -818117.62500000000     
   6.8100000000000022E-002    -740916.81250000000     
   6.9200000000000012E-002    -651022.50000000000     
   7.0300000000000029E-002    -548401.00000000000     
   7.1400000000000019E-002    -433143.03125000000     
   7.2500000000000009E-002    -305511.37500000000     
   7.3600000000000027E-002    -165983.39062500000     
   7.4700000000000016E-002    -15284.061523437500     
   7.5800000000000006E-002     145649.68750000000     
   7.6900000000000024E-002     315707.81250000000     
   7.8000000000000014E-002     493627.00000000000     
   7.9100000000000004E-002     677943.00000000000     
   8.0200000000000021E-002     866990.62500000000     
   8.1300000000000011E-002     1058898.7500000000     
   8.2400000000000029E-002     1251691.3750000000     
   8.3500000000000019E-002     1443323.5000000000     
   8.4600000000000009E-002     1631694.2500000000     
   8.5700000000000026E-002     1814633.0000000000     
   8.6800000000000016E-002     1989886.3750000000     
   8.7900000000000006E-002     2155180.0000000000     
   8.9000000000000024E-002     2308276.0000000000     
   9.0100000000000013E-002     2447082.7500000000     
   9.1200000000000003E-002     2569676.0000000000     
   9.2300000000000021E-002     2674256.0000000000     
   9.3400000000000011E-002     2759145.7500000000     
   9.4500000000000028E-002     2822856.0000000000     
   9.5600000000000018E-002     2864154.5000000000     
   9.6700000000000008E-002     2882150.5000000000     
   9.7800000000000026E-002     2876306.7500000000     
   9.8900000000000016E-002     2846352.2500000000     
  0.10000000000000001          2792255.5000000000     
  0.10110000000000002          2714253.0000000000     
  0.10220000000000001          2612904.0000000000     
  0.10330000000000003          2489174.0000000000     
  0.10440000000000002          2344410.2500000000     
  0.10550000000000001          2180217.0000000000     
  0.10660000000000003          1998349.5000000000     
  0.10770000000000002          1800747.1250000000     
  0.10880000000000001          1589552.6250000000     
  0.10990000000000003          1367175.3750000000     
  0.11100000000000002          1136211.2500000000     
  0.11210000000000001          899316.81250000000     
  0.11320000000000002          659099.62500000000     
  0.11430000000000001          418109.00000000000     
  0.11540000000000003          178882.93750000000     
  0.11650000000000002         -56017.554687500000     
  0.11760000000000001         -284056.81250000000     
  0.11870000000000003         -502902.93750000000     
  0.11980000000000002         -710491.12500000000     
  0.12090000000000001         -905075.06250000000     
  0.12200000000000003         -1085103.2500000000     
  0.12310000000000001         -1249146.3750000000     
  0.12420000000000003         -1395958.7500000000     
  0.12530000000000002         -1524580.6250000000     
  0.12640000000000001         -1634490.8750000000     
  0.12750000000000003         -1725465.3750000000     
  0.12860000000000002         -1797555.2500000000     
  0.12970000000000001         -1850961.2500000000     
  0.13080000000000003         -1886044.2500000000     
  0.13190000000000002         -1903354.5000000000     
  0.13300000000000001         -1903767.5000000000     
  0.13410000000000000         -1888456.6250000000     
  0.13520000000000004         -1858732.2500000000     
  0.13630000000000003         -1815970.2500000000     
  0.13740000000000002         -1761509.8750000000     
  0.13850000000000001         -1696767.5000000000     
  0.13960000000000000         -1623241.1250000000     
  0.14070000000000005         -1542566.0000000000     
  0.14180000000000004         -1456355.1250000000     
  0.14290000000000003         -1366153.1250000000     
  0.14400000000000002         -1273262.7500000000     
  0.14510000000000001         -1178983.6250000000     
  0.14620000000000000         -1084535.2500000000     
  0.14730000000000004         -991123.93750000000     
  0.14840000000000003         -899870.18750000000     
  0.14950000000000002         -811611.50000000000     
  0.15060000000000001         -726985.81250000000     
  0.15170000000000000         -646530.25000000000     
  0.15280000000000005         -570749.50000000000     
  0.15390000000000004         -500013.75000000000     
  0.15500000000000003         -434520.00000000000     
  0.15610000000000002         -374252.56250000000     
  0.15720000000000001         -318965.81250000000     
  0.15830000000000000         -268453.75000000000     
  0.15940000000000004         -222585.35937500000     
  0.16050000000000003         -181194.40625000000     
  0.16160000000000002         -143896.40625000000     
  0.16270000000000001         -110142.96093750000     
  0.16380000000000000         -79268.562500000000     
  0.16490000000000005         -50733.343750000000     
  0.16600000000000004         -24205.576171875000     
  0.16710000000000003          598.97064208984375     
  0.16820000000000002          24020.433593750000     
  0.16930000000000001          46487.113281250000     
  0.17040000000000000          68511.601562500000     
  0.17150000000000004          90425.710937500000     
  0.17260000000000003          112337.29687500000     
  0.17370000000000002          134160.12500000000     
  0.17480000000000001          155835.71875000000     
  0.17590000000000000          177404.43750000000     
  0.17700000000000005          198925.64062500000     
  0.17810000000000004          220356.45312500000     
  0.17920000000000003          241340.67187500000     
  0.18030000000000002          261462.76562500000     
  0.18140000000000001          280358.25000000000     
  0.18250000000000000          297703.75000000000     
  0.18360000000000004          313380.59375000000     
  0.18470000000000003          327137.28125000000     
  0.18580000000000002          338628.25000000000     
  0.18690000000000001          347333.43750000000     
  0.18800000000000000          352919.68750000000     
  0.18910000000000005          355243.40625000000     
  0.19020000000000004          354293.15625000000     
  0.19130000000000003          350156.43750000000     
  0.19240000000000002          342734.68750000000     
  0.19350000000000001          331854.37500000000     
  0.19460000000000005          317597.53125000000     
  0.19570000000000004          300221.71875000000     
  0.19680000000000003          280127.90625000000     
  0.19790000000000002          257658.20312500000     
  0.19900000000000001          233083.68750000000     
  0.20010000000000000          206755.20312500000     
  0.20120000000000005          179059.31250000000     
  0.20230000000000004          150693.17187500000     
  0.20340000000000003          122161.85156250000     
  0.20450000000000002          93923.226562500000     
  0.20560000000000000          66262.445312500000     
  0.20670000000000005          39650.375000000000     
  0.20780000000000004          14476.129882812500     
  0.20890000000000003         -8693.6240234375000     
