 -0.12000000000000000          0.0000000000000000
 -0.11889999999999999          0.0000000000000000
 -0.11780000000000000          0.0000000000000000
 -0.11670000000000000          0.0000000000000000
 -0.11559999999999999          0.0000000000000000
 -0.11449999999999999          0.0000000000000000
 -0.11340000000000000          0.0000000000000000
 -0.11230000000000000         -4.5849297864834239E-019
 -0.11119999999999999         -1.0991086288682000E-017
 -0.11009999999999999         -7.9307125751158704E-017
 -0.10900000000000000         -2.8788900224741996E-016
 -0.10790000000000000         -5.2225049854693326E-016
 -0.10679999999999999          8.7207971150461000E-017
 -0.10569999999999999          3.3113757809193848E-015
 -0.10460000000000000          9.7282496321808923E-015
 -0.10349999999999999          1.3625828540291245E-014
 -0.10239999999999999         -4.4949751521828132E-016
 -0.10130000000000000         -4.8583895560045873E-014
 -0.10020000000000000         -1.1905106349525962E-013
  -9.9099999999999994E-002    -1.4120588108079007E-013
  -9.7999999999999990E-002     1.5158772674606080E-015
  -9.6899999999999986E-002     3.7092900907927107E-013
  -9.5799999999999996E-002     8.1437883780316467E-013
  -9.4699999999999993E-002     8.8972232359374459E-013
  -9.3599999999999989E-002     6.5233327637206906E-014
  -9.2499999999999999E-002    -1.7635777820740328E-012
  -9.1399999999999995E-002    -3.7332394120515033E-012
  -9.0299999999999991E-002    -4.0239396016661377E-012
  -8.9200000000000002E-002    -8.7016331640210609E-013
  -8.8099999999999984E-002     5.6868468267801120E-012
  -8.6999999999999994E-002     1.2493684038716868E-011
  -8.5899999999999990E-002     1.3970559951947958E-011
  -8.4799999999999986E-002     5.4074917286983659E-012
  -8.3699999999999997E-002    -1.2552762648776472E-011
  -8.2599999999999993E-002    -3.1500045627463891E-011
  -8.1499999999999989E-002    -3.7987030188091353E-011
  -8.0399999999999999E-002    -2.1514453413251644E-011
  -7.9299999999999995E-002     1.6441445427339829E-011
  -7.8199999999999992E-002     5.9012669750835300E-011
  -7.7100000000000002E-002     8.0573998861854790E-011
  -7.5999999999999984E-002     6.1386840055632774E-011
  -7.4899999999999994E-002     1.6826800369740269E-012
  -7.3799999999999991E-002    -7.4601352872960547E-011
  -7.2699999999999987E-002    -1.3016683564348597E-010
  -7.1599999999999997E-002    -1.3311531044113423E-010
  -7.0499999999999993E-002    -7.3025405167292945E-011
  -6.9399999999999989E-002     3.3847154246036126E-011
  -6.8300000000000000E-002     1.5019652188641430E-010
  -6.7199999999999996E-002     2.2854848569231478E-010
  -6.6099999999999992E-002     2.2397879384516983E-010
  -6.5000000000000002E-002     1.1079877293429519E-010
  -6.3899999999999985E-002    -9.5711306935530871E-011
  -6.2799999999999995E-002    -3.2298616559067739E-010
  -6.1699999999999991E-002    -4.5220741040630230E-010
  -6.0599999999999994E-002    -3.7173270017731852E-010
  -5.9499999999999990E-002    -5.6570081952145301E-011
  -5.8399999999999994E-002     3.7819883336176474E-010
  -5.7299999999999990E-002     7.0606182012156182E-010
  -5.6199999999999986E-002     7.0869565771403131E-010
  -5.5099999999999996E-002     3.2238520186744779E-010
  -5.3999999999999992E-002    -2.9267430146084905E-010
  -5.2899999999999989E-002    -8.2536788514886439E-010
  -5.1799999999999985E-002    -9.9373331785557184E-010
  -5.0699999999999995E-002    -7.1162348236342154E-010
  -4.9599999999999991E-002    -1.2666614979117696E-010
  -4.8499999999999988E-002     4.8736265023663350E-010
  -4.7399999999999998E-002     8.9072899056574784E-010
  -4.6299999999999994E-002     9.7284369449113228E-010
  -4.5199999999999990E-002     7.4456851795190460E-010
  -4.4099999999999986E-002     2.9143090718442011E-010
  -4.2999999999999997E-002    -2.3329294052132354E-010
  -4.1899999999999993E-002    -5.8663712776407806E-010
  -4.0799999999999989E-002    -4.8894510662478297E-010
  -3.9699999999999985E-002     1.7675924612881033E-010
  -3.8599999999999995E-002     1.1152241352618830E-009
  -3.7499999999999992E-002     1.5671647313197923E-009
  -3.6399999999999988E-002     6.5118405112585265E-010
  -3.5299999999999984E-002    -1.9897412606439957E-009
  -3.4199999999999994E-002    -5.6416382676616195E-009
  -3.3099999999999991E-002    -8.5336289146198396E-009
  -3.1999999999999987E-002    -8.5575511121760428E-009
  -3.0899999999999997E-002    -4.3487276002451836E-009
  -2.9799999999999993E-002     3.9026479825565730E-009
  -2.8699999999999989E-002     1.4381294377585618E-008
  -2.7599999999999986E-002     2.4294362077625919E-008
  -2.6499999999999996E-002     3.0757249191992742E-008
  -2.5399999999999992E-002     3.1351632401310781E-008
  -2.4299999999999988E-002     2.4091736605669212E-008
  -2.3199999999999985E-002     6.9507972710880495E-009
  -2.2099999999999995E-002    -2.2676465150084368E-008
  -2.0999999999999991E-002    -6.8262814068020816E-008
  -1.9899999999999987E-002    -1.3408721599716955E-007
  -1.8799999999999983E-002    -2.2491049378459138E-007
  -1.7699999999999994E-002    -3.4558834727249632E-007
  -1.6599999999999990E-002    -5.0090397962776478E-007
  -1.5499999999999986E-002    -6.9592590534739429E-007
  -1.4399999999999996E-002    -9.3704062464894378E-007
  -1.3299999999999992E-002    -1.2334168104644050E-006
  -1.2199999999999989E-002    -1.5982445802364964E-006
  -1.1099999999999985E-002    -2.0490558654273627E-006
  -9.9999999999999950E-003    -2.6070169951708522E-006
  -8.8999999999999913E-003    -3.2959842428681441E-006
  -7.7999999999999875E-003    -4.1426096686336678E-006
  -6.6999999999999837E-003    -5.1783117669401690E-006
  -5.5999999999999939E-003    -6.4426853896293323E-006
  -4.4999999999999901E-003    -7.9867631939123385E-006
  -3.3999999999999864E-003    -9.8745395007426850E-006
  -2.2999999999999826E-003    -1.2182379578007385E-005
  -1.1999999999999927E-003    -1.4997541256889235E-005
  -9.9999999999988987E-005    -1.8417849787510931E-005
   1.0000000000000148E-003    -2.2553913368028589E-005
   2.1000000000000185E-003    -2.7533769753063098E-005
   3.2000000000000084E-003    -3.3508586056996137E-005
   4.3000000000000121E-003    -4.0657923818798736E-005
   5.4000000000000159E-003    -4.9193666200153530E-005
   6.5000000000000058E-003    -5.9362773754401132E-005
   7.6000000000000234E-003    -7.1449314418714494E-005
   8.7000000000000133E-003    -8.5776402556803077E-005
   9.8000000000000032E-003    -1.0270863276673481E-004
   1.0900000000000021E-002    -1.2265596888028085E-004
   1.2000000000000011E-002    -1.4607953198719770E-004
   1.3100000000000001E-002    -1.7349951667711139E-004
   1.4200000000000018E-002    -2.0550357294268906E-004
   1.5300000000000008E-002    -2.4275387113448232E-004
   1.6400000000000026E-002    -2.8599129291251302E-004
   1.7500000000000016E-002    -3.3603722113184631E-004
   1.8600000000000005E-002    -3.9379388908855617E-004
   1.9700000000000023E-002    -4.6024602488614619E-004
   2.0800000000000013E-002    -5.3646351443603635E-004
   2.1900000000000003E-002    -6.2360492302104831E-004
   2.3000000000000020E-002    -7.2292034747079015E-004
   2.4100000000000010E-002    -8.3575281314551830E-004
   2.5200000000000000E-002    -9.6353807020932436E-004
   2.6300000000000018E-002    -1.1078023817390203E-003
   2.7400000000000008E-002    -1.2701571686193347E-003
   2.8500000000000025E-002    -1.4522881247103214E-003
   2.9600000000000015E-002    -1.6559403156861663E-003
   3.0700000000000005E-002    -1.8828988540917635E-003
   3.1800000000000023E-002    -2.1349706221371889E-003
   3.2900000000000013E-002    -2.4139650631695986E-003
   3.4000000000000002E-002    -2.7216779999434948E-003
   3.5100000000000020E-002    -3.0598682351410389E-003
   3.6200000000000010E-002    -3.4302307758480310E-003
   3.7300000000000028E-002    -3.8343574851751328E-003
   3.8400000000000017E-002    -4.2736949399113655E-003
   3.9500000000000007E-002    -4.7494983300566673E-003
   4.0600000000000025E-002    -5.2627865225076675E-003
   4.1700000000000015E-002    -5.8142989873886108E-003
   4.2800000000000005E-002    -6.4044510945677757E-003
   4.3900000000000022E-002    -7.0332838222384453E-003
   4.5000000000000012E-002    -7.7004195190966129E-003
   4.6100000000000002E-002    -8.4050130099058151E-003
   4.7200000000000020E-002    -9.1457087546586990E-003
   4.8300000000000010E-002    -9.9205980077385902E-003
   4.9400000000000027E-002    -1.0727160610258579E-002
   5.0500000000000017E-002    -1.1562229134142399E-002
   5.1600000000000007E-002    -1.2421951629221439E-002
   5.2700000000000025E-002    -1.3301777653396130E-002
   5.3800000000000014E-002    -1.4196447096765041E-002
   5.4900000000000004E-002    -1.5099992044270039E-002
   5.6000000000000022E-002    -1.6005745157599449E-002
   5.7100000000000012E-002    -1.6906354576349258E-002
   5.8200000000000002E-002    -1.7793806269764900E-002
   5.9300000000000019E-002    -1.8659476190805435E-002
   6.0400000000000009E-002    -1.9494188949465752E-002
   6.1500000000000027E-002    -2.0288290455937386E-002
   6.2600000000000017E-002    -2.1031746640801430E-002
   6.3700000000000007E-002    -2.1714225411415100E-002
   6.4800000000000024E-002    -2.2325215861201286E-002
   6.5900000000000014E-002    -2.2854153066873550E-002
   6.7000000000000004E-002    -2.3290578275918961E-002
   6.8100000000000022E-002    -2.3624278604984283E-002
   6.9200000000000012E-002    -2.3845445364713669E-002
   7.0300000000000029E-002    -2.3944832384586334E-002
   7.1400000000000019E-002    -2.3913910612463951E-002
   7.2500000000000009E-002    -2.3745032027363777E-002
   7.3600000000000027E-002    -2.3431580513715744E-002
   7.4700000000000016E-002    -2.2968119010329247E-002
   7.5800000000000006E-002    -2.2350534796714783E-002
   7.6900000000000024E-002    -2.1576164290308952E-002
   7.8000000000000014E-002    -2.0643914118409157E-002
   7.9100000000000004E-002    -1.9554359838366508E-002
   8.0200000000000021E-002    -1.8309818580746651E-002
   8.1300000000000011E-002    -1.6914390027523041E-002
   8.2400000000000029E-002    -1.5373972244560719E-002
   8.3500000000000019E-002    -1.3696252368390560E-002
   8.4600000000000009E-002    -1.1890660040080547E-002
   8.5700000000000026E-002    -9.9683078005909920E-003
   8.6800000000000016E-002    -7.9419016838073730E-003
   8.7900000000000006E-002    -5.8256243355572224E-003
   8.9000000000000024E-002    -3.6349818110466003E-003
   9.0100000000000013E-002    -1.3866288354620337E-003
   9.1200000000000003E-002     9.0182543499395251E-004
   9.2300000000000021E-002     3.2120256219059229E-003
   9.3400000000000011E-002     5.5250967852771282E-003
   9.4500000000000028E-002     7.8218933194875717E-003
   9.5600000000000018E-002     1.0083255358040333E-002
   9.6700000000000008E-002     1.2290277518332005E-002
   9.7800000000000026E-002     1.4424559660255909E-002
   9.8900000000000016E-002     1.6468450427055359E-002
  0.10000000000000001          1.8405284732580185E-002
  0.10110000000000002          2.0219592377543449E-002
  0.10220000000000001          2.1897310391068459E-002
  0.10330000000000003          2.3425968363881111E-002
  0.10440000000000002          2.4794848635792732E-002
  0.10550000000000001          2.5995107367634773E-002
  0.10660000000000003          2.7019882574677467E-002
  0.10770000000000002          2.7864357456564903E-002
  0.10880000000000001          2.8525805100798607E-002
  0.10990000000000003          2.9003594070672989E-002
  0.11100000000000002          2.9299154877662659E-002
  0.11210000000000001          2.9415912926197052E-002
  0.11320000000000002          2.9359199106693268E-002
  0.11430000000000001          2.9136132448911667E-002
  0.11540000000000003          2.8755469247698784E-002
  0.11650000000000002          2.8227459639310837E-002
  0.11760000000000001          2.7563640847802162E-002
  0.11870000000000003          2.6776645332574844E-002
  0.11980000000000002          2.5880001485347748E-002
  0.12090000000000001          2.4887915700674057E-002
  0.12200000000000003          2.3815071210265160E-002
  0.12310000000000001          2.2676419466733932E-002
  0.12420000000000003          2.1486951038241386E-002
  0.12530000000000002          2.0261496305465698E-002
  0.12640000000000001          1.9014513120055199E-002
  0.12750000000000003          1.7759932205080986E-002
  0.12860000000000002          1.6510985791683197E-002
  0.12970000000000001          1.5280085615813732E-002
  0.13080000000000003          1.4078680425882339E-002
  0.13190000000000002          1.2917151674628258E-002
  0.13300000000000001          1.1804716661572456E-002
  0.13410000000000000          1.0749382898211479E-002
  0.13520000000000004          9.7579276189208031E-003
  0.13630000000000003          8.8358875364065170E-003
  0.13740000000000002          7.9875476658344269E-003
  0.13850000000000001          7.2159422561526299E-003
  0.13960000000000000          6.5228706225752831E-003
  0.14070000000000005          5.9089520946145058E-003
  0.14180000000000004          5.3737061098217964E-003
  0.14290000000000003          4.9156453460454941E-003
  0.14400000000000002          4.5323604717850685E-003
  0.14510000000000001          4.2205988429486752E-003
  0.14620000000000000          3.9763469249010086E-003
  0.14730000000000004          3.7949364632368088E-003
  0.14840000000000003          3.6711678840219975E-003
  0.14950000000000002          3.5994325298815966E-003
  0.15060000000000001          3.5738109145313501E-003
  0.15170000000000000          3.5881553776562214E-003
  0.15280000000000005          3.6361690144985914E-003
  0.15390000000000004          3.7114974111318588E-003
  0.15500000000000003          3.8078343495726585E-003
  0.15610000000000002          3.9190212264657021E-003
  0.15720000000000001          4.0391231887042522E-003
  0.15830000000000000          4.1624843142926693E-003
  0.15940000000000004          4.2837751097977161E-003
  0.16050000000000003          4.3980451300740242E-003
  0.16160000000000002          4.5007797889411449E-003
  0.16270000000000001          4.5879436656832695E-003
  0.16380000000000000          4.6559930779039860E-003
  0.16490000000000005          4.7018802724778652E-003
  0.16600000000000004          4.7230524942278862E-003
  0.16710000000000003          4.7174668870866299E-003
  0.16820000000000002          4.6836109831929207E-003
  0.16930000000000001          4.6204994432628155E-003
  0.17040000000000000          4.5276451855897903E-003
  0.17150000000000004          4.4050198048353195E-003
  0.17260000000000003          4.2530195787549019E-003
  0.17370000000000002          4.0724584832787514E-003
  0.17480000000000001          3.8645553868263960E-003
  0.17590000000000000          3.6308993585407734E-003
  0.17700000000000005          3.3733849413692951E-003
  0.17810000000000004          3.0941392760723829E-003
  0.17920000000000003          2.7954778634011745E-003
  0.18030000000000002          2.4798919912427664E-003
  0.18140000000000001          2.1500424481928349E-003
  0.18250000000000000          1.8087243661284447E-003
  0.18360000000000004          1.4587936457246542E-003
  0.18470000000000003          1.1030891910195351E-003
  0.18580000000000002          7.4438907904550433E-004
  0.18690000000000001          3.8540997775271535E-004
  0.18800000000000000          2.8816786652896553E-005
  0.18910000000000005         -3.2279884908348322E-004
  0.19020000000000004         -6.6697923466563225E-004
  0.19130000000000003         -1.0014685103669763E-003
  0.19240000000000002         -1.3242433778941631E-003
  0.19350000000000001         -1.6334980027750134E-003
  0.19460000000000005         -1.9276114180684090E-003
  0.19570000000000004         -2.2051436826586723E-003
  0.19680000000000003         -2.4648667313158512E-003
  0.19790000000000002         -2.7058031409978867E-003
  0.19900000000000001         -2.9272320680320263E-003
  0.20010000000000000         -3.1286585144698620E-003
  0.20120000000000005         -3.3097728155553341E-003
  0.20230000000000004         -3.4704399295151234E-003
  0.20340000000000003         -3.6107175983488560E-003
  0.20450000000000002         -3.7308733444660902E-003
  0.20560000000000000         -3.8313672412186861E-003
  0.20670000000000005         -3.9128065109252930E-003
  0.20780000000000004         -3.9759012870490551E-003
  0.20890000000000003         -4.0214555338025093E-003
