 -0.12000000000000000          0.0000000000000000
 -0.11889999999999999          0.0000000000000000
 -0.11780000000000000          0.0000000000000000
 -0.11670000000000000          0.0000000000000000
 -0.11559999999999999          0.0000000000000000
 -0.11449999999999999          0.0000000000000000
 -0.11340000000000000          6.5295053998168671E-022
 -0.11230000000000000         -4.8967248139148774E-020
 -0.11119999999999999         -1.9719433310781903E-019
 -0.11009999999999999          6.6805581603610525E-020
 -0.10900000000000000          1.4978313507752481E-018
 -0.10790000000000000          8.2309557168071991E-019
 -0.10679999999999999         -1.1384588185006960E-017
 -0.10569999999999999         -2.9061570691902972E-017
 -0.10460000000000000          9.2434256212947970E-018
 -0.10349999999999999          1.7873153933881105E-016
 -0.10239999999999999          3.3767642235102189E-016
 -0.10130000000000000         -7.1234633960595421E-017
 -0.10020000000000000         -1.5045686072070125E-015
  -9.9099999999999994E-002    -2.8142296545042033E-015
  -9.7999999999999990E-002    -4.5055429183117356E-016
  -9.6899999999999986E-002     8.2967775983891235E-015
  -9.5799999999999996E-002     1.7707749292027045E-014
  -9.4699999999999993E-002     1.0096531865918854E-014
  -9.3599999999999989E-002    -3.0024734920446426E-014
  -9.2499999999999999E-002    -8.3885987380856043E-014
  -9.1399999999999995E-002    -8.0640190595555906E-014
  -9.0299999999999991E-002     5.6397468167033704E-014
  -8.9200000000000002E-002     2.9448156487580062E-013
  -8.8099999999999984E-002     4.0704445533500536E-013
  -8.6999999999999994E-002     8.3560059241483672E-014
  -8.5899999999999990E-002    -7.2040005277853569E-013
  -8.4799999999999986E-002    -1.4470817944309396E-012
  -8.3699999999999997E-002    -1.0890616390001724E-012
  -8.2599999999999993E-002     9.3088326396573742E-013
  -8.1499999999999989E-002     3.6660194776934090E-012
  -8.0399999999999999E-002     4.5368265095721338E-012
  -7.9299999999999995E-002     1.0945004677396198E-012
  -7.8199999999999992E-002    -6.0836738027149694E-012
  -7.7100000000000002E-002    -1.1950293128727465E-011
  -7.5999999999999984E-002    -9.5690049317626076E-012
  -7.4899999999999994E-002     3.6826499513603569E-012
  -7.3799999999999991E-002     2.0931182192715191E-011
  -7.2699999999999987E-002     2.7701964440244549E-011
  -7.1599999999999997E-002     1.2508885819868659E-011
  -7.0499999999999993E-002    -2.0565811070894631E-011
  -6.9399999999999989E-002    -4.9089552558968910E-011
  -6.8300000000000000E-002    -4.6138662586283806E-011
  -6.7199999999999996E-002    -3.6850725243586705E-012
  -6.6099999999999992E-002     5.3700953172474014E-011
  -6.5000000000000002E-002     8.1257499026286530E-011
  -6.3899999999999985E-002     4.8937198437299602E-011
  -6.2799999999999995E-002    -2.7680223023671875E-011
  -6.1699999999999991E-002    -9.0809475711861084E-011
  -6.0599999999999994E-002    -8.3927504931149546E-011
  -5.9499999999999990E-002    -4.1072451111914583E-012
  -5.8399999999999994E-002     8.4289440751417086E-011
  -5.7299999999999990E-002     9.6620673205146549E-011
  -5.6199999999999986E-002     4.9069540233488515E-012
  -5.5099999999999996E-002    -1.2174917131024462E-010
  -5.3999999999999992E-002    -1.6008621441625684E-010
  -5.2899999999999989E-002    -3.7433914245582652E-011
  -5.1799999999999985E-002     1.8576533888640789E-010
  -5.0699999999999995E-002     3.3662810753950925E-010
  -4.9599999999999991E-002     2.5646068331527671E-010
  -4.8499999999999988E-002    -5.8569435306521910E-011
  -4.7399999999999998E-002    -4.2254481963032263E-010
  -4.6299999999999994E-002    -5.7677009467991913E-010
  -4.5199999999999990E-002    -3.8117381210252184E-010
  -4.4099999999999986E-002     6.8278134846772816E-011
  -4.2999999999999997E-002     4.9647418234047740E-010
  -4.1899999999999993E-002     6.4485030858736922E-010
  -4.0799999999999989E-002     4.5610463865758280E-010
  -3.9699999999999985E-002     1.0246310975243402E-010
  -3.8599999999999995E-002    -1.6429951225619802E-010
  -3.7499999999999992E-002    -2.1904718593652578E-010
  -3.6399999999999988E-002    -1.5719663975768670E-010
  -3.5299999999999984E-002    -1.9717119325548281E-010
  -3.4199999999999994E-002    -4.6597732396834350E-010
  -3.3099999999999991E-002    -8.3971922760293952E-010
  -3.1999999999999987E-002    -9.7727279752942527E-010
  -3.0899999999999997E-002    -5.4682491291067004E-010
  -2.9799999999999993E-002     4.9852734790821979E-010
  -2.8699999999999989E-002     1.7897825235846749E-009
  -2.7599999999999986E-002     2.6717304687969341E-009
  -2.6499999999999996E-002     2.5494821716701245E-009
  -2.5399999999999992E-002     1.2594016307611634E-009
  -2.4299999999999988E-002    -7.7198297031363572E-010
  -2.3199999999999985E-002    -2.7130029492269676E-009
  -2.2099999999999995E-002    -3.7754906397674557E-009
  -2.0999999999999991E-002    -3.6517943833128231E-009
  -1.9899999999999987E-002    -2.6352233112543466E-009
  -1.8799999999999983E-002    -1.3166482463451792E-009
  -1.7699999999999994E-002    -6.8917830023038900E-011
  -1.6599999999999990E-002     1.2661930775055240E-009
  -1.5499999999999986E-002     3.1843306465805686E-009
  -1.4399999999999996E-002     5.9074574712900497E-009
  -1.3299999999999992E-002     8.8320416224614370E-009
  -1.2199999999999989E-002     1.0550772292006396E-008
  -1.1099999999999985E-002     9.5513726141894697E-009
  -9.9999999999999950E-003     5.1215707761768244E-009
  -8.8999999999999913E-003    -2.2728244075468189E-009
  -7.7999999999999875E-003    -1.1548083815895171E-008
  -6.6999999999999837E-003    -2.2208687616447206E-008
  -5.5999999999999939E-003    -3.5372826251874484E-008
  -4.4999999999999901E-003    -5.3877819645573049E-008
  -3.3999999999999864E-003    -8.1391551365967207E-008
  -2.2999999999999826E-003    -1.2117671126814383E-007
  -1.1999999999999927E-003    -1.7536133801371906E-007
  -9.9999999999988987E-005    -2.4512870902311574E-007
   1.0000000000000148E-003    -3.3155359979436005E-007
   2.1000000000000185E-003    -4.3645072679356998E-007
   3.2000000000000084E-003    -5.6280405090630367E-007
   4.3000000000000121E-003    -7.1484709278825845E-007
   5.4000000000000159E-003    -8.9817617861731371E-007
   6.5000000000000058E-003    -1.1201485003492499E-006
   7.6000000000000234E-003    -1.3904460639352336E-006
   8.7000000000000133E-003    -1.7214581911396800E-006
   9.8000000000000032E-003    -2.1282756616421600E-006
   1.0900000000000021E-002    -2.6284281762969653E-006
   1.2000000000000011E-002    -3.2417167546112362E-006
   1.3100000000000001E-002    -3.9904213590115891E-006
   1.4200000000000018E-002    -4.8999331215062060E-006
   1.5300000000000008E-002    -5.9996802246962295E-006
   1.6400000000000026E-002    -7.3242026078698663E-006
   1.7500000000000016E-002    -8.9142491236465484E-006
   1.8600000000000005E-002    -1.0817736596645524E-005
   1.9700000000000023E-002    -1.3090392327978110E-005
   2.0800000000000013E-002    -1.5796110998725686E-005
   2.1900000000000003E-002    -1.9007369414203681E-005
   2.3000000000000020E-002    -2.2806249059996149E-005
   2.4100000000000010E-002    -2.7286365660799812E-005
   2.5200000000000000E-002    -3.2555307163501627E-005
   2.6300000000000018E-002    -3.8736683579443406E-005
   2.7400000000000008E-002    -4.5971026985496124E-005
   2.8500000000000025E-002    -5.4415649116508266E-005
   2.9600000000000015E-002    -6.4244345692819751E-005
   3.0700000000000005E-002    -7.5648021480727236E-005
   3.1800000000000023E-002    -8.8836533536859429E-005
   3.2900000000000013E-002    -1.0404067621281284E-004
   3.4000000000000002E-002    -1.2151326747051591E-004
   3.5100000000000020E-002    -1.4152879445836344E-004
   3.6200000000000010E-002    -1.6438249285336774E-004
   3.7300000000000028E-002    -1.9038994698087047E-004
   3.8400000000000017E-002    -2.1988766931984672E-004
   3.9500000000000007E-002    -2.5323411941708025E-004
   4.0600000000000025E-002    -2.9080953938351675E-004
   4.1700000000000015E-002    -3.3301363554178571E-004
   4.2800000000000005E-002    -3.8026089019752908E-004
   4.3900000000000022E-002    -4.3297558940948026E-004
   4.5000000000000012E-002    -4.9158652272689174E-004
   4.6100000000000002E-002    -5.5652268746056075E-004
   4.7200000000000020E-002    -6.2820794590880201E-004
   4.8300000000000010E-002    -7.0705413677906175E-004
   4.9400000000000027E-002    -7.9345232867813575E-004
   5.0500000000000017E-002    -8.8776337804357969E-004
   5.1600000000000007E-002    -9.9030716033696067E-004
   5.2700000000000025E-002    -1.1013523225364388E-003
   5.3800000000000014E-002    -1.2211056638079957E-003
   5.4900000000000004E-002    -1.3497000742485324E-003
   5.6000000000000022E-002    -1.4871825472634725E-003
   5.7100000000000012E-002    -1.6335017799886287E-003
   5.8200000000000002E-002    -1.7884943484336585E-003
   5.9300000000000019E-002    -1.9518710465750147E-003
   6.0400000000000009E-002    -2.1232031559246254E-003
   6.1500000000000027E-002    -2.3019092743694451E-003
   6.2600000000000017E-002    -2.4872431028607834E-003
   6.3700000000000007E-002    -2.6782850380218277E-003
   6.4800000000000024E-002    -2.8739369332473055E-003
   6.5900000000000014E-002    -3.0729153977085361E-003
   6.7000000000000004E-002    -3.2737472144462668E-003
   6.8100000000000022E-002    -3.4747666054165717E-003
   6.9200000000000012E-002    -3.6741149640604348E-003
   7.0300000000000029E-002    -3.8697455220712308E-003
   7.1400000000000019E-002    -4.0594326165542642E-003
   7.2500000000000009E-002    -4.2407875661661359E-003
   7.3600000000000027E-002    -4.4112745094466374E-003
   7.4700000000000016E-002    -4.5682292515597002E-003
   7.5800000000000006E-002    -4.7088833698263003E-003
   7.6900000000000024E-002    -4.8303935341176812E-003
   7.8000000000000014E-002    -4.9298744709367088E-003
   7.9100000000000004E-002    -5.0044368114367330E-003
   8.0200000000000021E-002    -5.0512277445022378E-003
   8.1300000000000011E-002    -5.0674711966074773E-003
   8.2400000000000029E-002    -5.0505143724897984E-003
   8.3500000000000019E-002    -4.9978730297123158E-003
   8.4600000000000009E-002    -4.9072795576985771E-003
   8.5700000000000026E-002    -4.7767280071145789E-003
   8.6800000000000016E-002    -4.6045241418142301E-003
   8.7900000000000006E-002    -4.3893262976402656E-003
   8.9000000000000024E-002    -4.1301873864865281E-003
   9.0100000000000013E-002    -3.8265964147629382E-003
   9.1200000000000003E-002    -3.4785136518644512E-003
   9.2300000000000021E-002    -3.0863990500514991E-003
   9.3400000000000011E-002    -2.6512349496841886E-003
   9.4500000000000028E-002    -2.1745392704438024E-003
   9.5600000000000018E-002    -1.6583744677712104E-003
   9.6700000000000008E-002    -1.1053501592699537E-003
   9.7800000000000026E-002    -5.1861605238861120E-004
   9.8900000000000016E-002     9.8154261561570616E-005
  0.10000000000000001          7.4078957201299204E-004
  0.10110000000000002          1.4046551316961708E-003
  0.10220000000000001          2.0846920610589313E-003
  0.10330000000000003          2.7754651573965177E-003
  0.10440000000000002          3.4712139739194840E-003
  0.10550000000000001          4.1659137913915177E-003
  0.10660000000000003          4.8533418572772507E-003
  0.10770000000000002          5.5271487259906139E-003
  0.10880000000000001          6.1809275943357483E-003
  0.10990000000000003          6.8082861879776684E-003
  0.11100000000000002          7.4029167369135881E-003
  0.11210000000000001          7.9586696754019408E-003
  0.11320000000000002          8.4696200272597229E-003
  0.11430000000000001          8.9301306668406952E-003
  0.11540000000000003          9.3349104051195231E-003
  0.11650000000000002          9.6790590565240704E-003
  0.11760000000000001          9.9581168098718774E-003
  0.11870000000000003          1.0168097691938872E-002
  0.11980000000000002          1.0305523683786254E-002
  0.12090000000000001          1.0367449629970309E-002
  0.12200000000000003          1.0351465053751790E-002
  0.12310000000000001          1.0255698516407789E-002
  0.12420000000000003          1.0078805521137489E-002
  0.12530000000000002          9.8199663086465470E-003
  0.12640000000000001          9.4788688743806856E-003
  0.12750000000000003          9.0556880335536834E-003
  0.12860000000000002          8.5510522179803074E-003
  0.12970000000000001          7.9660125446661921E-003
  0.13080000000000003          7.3020052916243977E-003
  0.13190000000000002          6.5608230427503644E-003
  0.13300000000000001          5.7445912788701790E-003
  0.13410000000000000          4.8557426065899984E-003
  0.13520000000000004          3.8969889288438600E-003
  0.13630000000000003          2.8712972301351246E-003
  0.13740000000000002          1.7818735997246656E-003
  0.13850000000000001          6.3216119144491809E-004
  0.13960000000000000         -5.7415125339575074E-004
  0.14070000000000005         -1.8331176232454713E-003
  0.14180000000000004         -3.1405230353510651E-003
  0.14290000000000003         -4.4918674138304535E-003
  0.14400000000000002         -5.8823385070282926E-003
  0.14510000000000001         -7.3067748052852901E-003
  0.14620000000000000         -8.7596207849034609E-003
  0.14730000000000004         -1.0234880067368633E-002
  0.14840000000000003         -1.1726077765895463E-002
  0.14950000000000002         -1.3226226513831291E-002
  0.15060000000000001         -1.4727800340406886E-002
  0.15170000000000000         -1.6222694313030837E-002
  0.15280000000000005         -1.7702193746152197E-002
  0.15390000000000004         -1.9156956173312374E-002
  0.15500000000000003         -2.0577020432133997E-002
  0.15610000000000002         -2.1951828774440310E-002
  0.15720000000000001         -2.3270260503698778E-002
  0.15830000000000000         -2.4520674377779196E-002
  0.15940000000000004         -2.5690972988108247E-002
  0.16050000000000003         -2.6768686130681583E-002
  0.16160000000000002         -2.7741073010941475E-002
  0.16270000000000001         -2.8595264457391779E-002
  0.16380000000000000         -2.9318402352805015E-002
  0.16490000000000005         -2.9897803919391862E-002
  0.16600000000000004         -3.0321131940807551E-002
  0.16710000000000003         -3.0576585829279676E-002
  0.16820000000000002         -3.0653091625800905E-002
  0.16930000000000001         -3.0540516539407377E-002
  0.17040000000000000         -3.0229873534648018E-002
  0.17150000000000004         -2.9713537088958325E-002
  0.17260000000000003         -2.8985430127620327E-002
  0.17370000000000002         -2.8041209969081660E-002
  0.17480000000000001         -2.6878443646166726E-002
  0.17590000000000000         -2.5496775705694658E-002
  0.17700000000000005         -2.3898041119265079E-002
  0.17810000000000004         -2.2086384323137219E-002
  0.17920000000000003         -2.0068306871213335E-002
  0.18030000000000002         -1.7852713833674851E-002
  0.18140000000000001         -1.5450907857875056E-002
  0.18250000000000000         -1.2876560366046147E-002
  0.18360000000000004         -1.0145628634052183E-002
  0.18470000000000003         -7.2762357593070884E-003
  0.18580000000000002         -4.2885117433560938E-003
  0.18690000000000001         -1.2043880987626654E-003
  0.18800000000000000          1.9526289305124289E-003
  0.18910000000000005          5.1577065447558634E-003
  0.19020000000000004          8.3849792003043572E-003
  0.19130000000000003          1.1607852515201376E-002
  0.19240000000000002          1.4799342032044402E-002
  0.19350000000000001          1.7932423517717851E-002
  0.19460000000000005          2.0980378625405298E-002
  0.19570000000000004          2.3917141696573559E-002
  0.19680000000000003          2.6717625713934927E-002
  0.19790000000000002          2.9358046425219317E-002
  0.19900000000000001          3.1816231932574990E-002
  0.20010000000000000          3.4071921056255165E-002
  0.20120000000000005          3.6107019942128393E-002
  0.20230000000000004          3.7905825063999463E-002
  0.20340000000000003          3.9455197450105214E-002
  0.20450000000000002          4.0744697513999326E-002
  0.20560000000000000          4.1766667201195470E-002
  0.20670000000000005          4.2516307543520558E-002
  0.20780000000000004          4.2991715504296660E-002
  0.20890000000000003          4.3193840918269291E-002
