 -0.12000000000000000          0.0000000000000000     
 -0.11889999999999999          0.0000000000000000     
 -0.11780000000000000          0.0000000000000000     
 -0.11670000000000000          0.0000000000000000     
 -0.11559999999999999          0.0000000000000000     
 -0.11449999999999999          0.0000000000000000     
 -0.11340000000000000          0.0000000000000000     
 -0.11230000000000000          4.2106230629788776E-019
 -0.11119999999999999          1.5789836680041247E-018
 -0.11009999999999999          6.9475280151410569E-018
 -0.10900000000000000         -5.0527475721770766E-018
 -0.10790000000000000          0.0000000000000000     
 -0.10679999999999999          6.7369969834842655E-017
 -0.10569999999999999         -2.6947987603064817E-017
 -0.10460000000000000         -1.6168792230966645E-016
 -0.10349999999999999         -1.9402551735951158E-015
 -0.10239999999999999          2.5870067569546632E-015
 -0.10130000000000000          3.6649264860703825E-015
 -0.10020000000000000          1.7246712065961483E-015
  -9.9099999999999994E-002    -1.3797369652769186E-014
  -9.7999999999999990E-002    -2.0696054055637306E-014
  -9.6899999999999986E-002     1.3797369652769186E-014
  -9.5799999999999996E-002     1.2072698763810393E-014
  -9.4699999999999993E-002     8.9682899778384395E-014
  -9.3599999999999989E-002     0.0000000000000000     
  -9.2499999999999999E-002     1.3797369652769186E-014
  -9.1399999999999995E-002     2.0696054055637306E-014
  -9.0299999999999991E-002    -2.7594739644351551E-013
  -8.9200000000000002E-002    -3.3113686489019689E-013
  -8.8099999999999984E-002     5.5189478611076745E-014
  -8.6999999999999994E-002    -1.1037895722215349E-013
  -8.5899999999999990E-002     3.8632636044193258E-013
  -8.4799999999999986E-002     0.0000000000000000     
  -8.3699999999999997E-002     1.7660633155544558E-012
  -8.2599999999999993E-002     8.8303165777722792E-013
  -8.1499999999999989E-002    -1.8212527840011372E-012
  -8.0399999999999999E-002    -1.7660633155544558E-012
  -7.9299999999999995E-002    -1.7660633155544558E-012
  -7.8199999999999992E-002     4.4151582888861396E-013
  -7.7100000000000002E-002     3.9736425955227972E-012
  -7.5999999999999984E-002    -2.6490949191215751E-012
  -7.4899999999999994E-002     7.0642532622178233E-012
  -7.3799999999999991E-002     5.2981898382431503E-012
  -7.2699999999999987E-002    -1.0596379676486301E-011
  -7.1599999999999997E-002    -1.0817137983953895E-011
  -7.0499999999999993E-002    -7.0642532622178233E-012
  -6.9399999999999989E-002     7.0642532622178233E-012
  -6.8300000000000000E-002     2.6490950058577489E-011
  -6.7199999999999996E-002     3.8853392725357594E-011
  -6.6099999999999992E-002    -1.1037895424059752E-011
  -6.5000000000000002E-002    -6.7110407508952363E-011
  -6.3899999999999985E-002    -8.8303163392478012E-011
  -6.2799999999999995E-002    -7.0642532622178233E-012
  -6.1699999999999991E-002     1.1920926745734306E-010
  -6.0599999999999994E-002     1.5894570382091189E-010
  -5.9499999999999990E-002     6.3578281528364755E-011
  -5.8399999999999994E-002    -1.2009231109555429E-010
  -5.7299999999999990E-002    -2.5078097931618970E-010
  -5.6199999999999986E-002    -2.5607918563430587E-010
  -5.5099999999999996E-002     2.1192759352972601E-011
  -5.3999999999999992E-002     3.5321265356991205E-010
  -5.2899999999999989E-002     6.2871852168910891E-010
  -5.1799999999999985E-002     2.7815497127825495E-010
  -5.0699999999999995E-002    -6.1459004552233409E-010
  -4.9599999999999991E-002    -1.5682641851810786E-009
  -4.8499999999999988E-002    -1.2291800910446682E-009
  -4.7399999999999998E-002     1.3280796462566968E-009
  -4.6299999999999994E-002     3.9277248120583863E-009
  -4.5199999999999990E-002     3.5321265912102717E-009
  -4.4099999999999986E-002    -1.2150516148778934E-009
  -4.2999999999999997E-002    -7.1772814358439518E-009
  -4.1899999999999993E-002    -9.1340792707228502E-009
  -4.0799999999999989E-002    -2.7268016733472678E-009
  -3.9699999999999985E-002     1.0172525044538361E-008
  -3.8599999999999995E-002     1.8423572001324828E-008
  -3.7499999999999992E-002     1.1105005803813128E-008
  -3.6399999999999988E-002    -9.0139868902383569E-009
  -3.5299999999999984E-002    -2.7585908668470438E-008
  -3.4199999999999994E-002    -2.4414060106892066E-008
  -3.3099999999999991E-002     7.3468231498452496E-010
  -3.1999999999999987E-002     3.2608593159011434E-008
  -3.0899999999999997E-002     4.5437275275617139E-008
  -2.9799999999999993E-002     1.1952716150176457E-008
  -2.8699999999999989E-002    -4.1453038335248493E-008
  -2.7599999999999986E-002    -6.0102664178884879E-008
  -2.6499999999999996E-002    -2.7804901492345380E-008
  -2.5399999999999992E-002     4.6927834063126284E-008
  -2.4299999999999988E-002     7.9592943791340076E-008
  -2.3199999999999985E-002     3.4162727757802713E-008
  -2.2099999999999995E-002    -6.2278459722620028E-008
  -2.0999999999999991E-002    -1.0059496702297110E-007
  -1.9899999999999987E-002    -2.2153498591137577E-008
  -1.8799999999999983E-002     1.3653789210366085E-007
  -1.7699999999999994E-002     1.2116606740164571E-007
  -1.6599999999999990E-002    -1.1031537638928057E-007
  -1.5499999999999986E-002    -2.6765042093757074E-007
  -1.4399999999999996E-002    -1.5552660670437035E-007
  -1.3299999999999992E-002     3.2732924637457472E-007
  -1.2199999999999989E-002     7.5231469054415356E-007
  -1.1099999999999985E-002     7.2337953405110511E-009
  -9.9999999999999950E-003    -8.7167234141816152E-007
  -8.8999999999999913E-003    -1.3382521046878537E-006
  -7.7999999999999875E-003    -3.3275458122261625E-007
  -6.6999999999999837E-003     1.6203701989070396E-006
  -5.5999999999999939E-003     3.1539348128717393E-006
  -4.4999999999999901E-003     1.5046293810883071E-006
  -3.3999999999999864E-003    -2.3292820969800232E-006
  -2.2999999999999826E-003    -5.0347216529189609E-006
  -1.1999999999999927E-003    -3.2262726108456263E-006
  -9.9999999999988987E-005     2.7777773539128248E-006
   1.0000000000000148E-003     6.1053233366692439E-006
   2.1000000000000185E-003     3.9062492760422174E-006
   3.2000000000000084E-003    -6.1921286942379083E-006
   4.3000000000000121E-003    -5.9027770475950092E-006
   5.4000000000000159E-003     9.8379621249478078E-007
   6.5000000000000058E-003     6.7708324422710575E-006
   7.6000000000000234E-003     6.3657398641225882E-006
   8.7000000000000133E-003    -9.4907391030574217E-006
   9.8000000000000032E-003    -1.5277775673894212E-005
   1.0900000000000021E-002     1.0416665645607281E-006
   1.2000000000000011E-002     1.9907405658159405E-005
   1.3100000000000001E-002     2.2916663510841317E-005
   1.4200000000000018E-002    -4.6296290179270727E-007
   1.5300000000000008E-002    -1.8518516299081966E-005
   1.6400000000000026E-002    -2.6851848815567791E-005
   1.7500000000000016E-002    -1.9444441932137124E-005
   1.8600000000000005E-002     4.6296290179270727E-007
   1.9700000000000023E-002     3.4259253880009055E-005
   2.0800000000000013E-002     1.5740739399916492E-005
   2.1900000000000003E-002    -7.8703696999582462E-006
   2.3000000000000020E-002    -2.7777774448622949E-005
   2.4100000000000010E-002     1.6666665032971650E-005
   2.5200000000000000E-002     4.1666662582429126E-005
   2.6300000000000018E-002     4.3518513848539442E-005
   2.7400000000000008E-002    -1.1111109415651299E-005
   2.8500000000000025E-002    -1.0370369273005053E-004
   2.9600000000000015E-002    -7.2222210292238742E-005
   3.0700000000000005E-002     7.0370362664107233E-005
   3.1800000000000023E-002     7.5925912824459374E-005
   3.2900000000000013E-002     5.5555547078256495E-006
   3.4000000000000002E-002    -2.5925923182512634E-005
   3.5100000000000020E-002    -6.4814805227797478E-005
   3.6200000000000010E-002    -2.9629625714733265E-005
   3.7300000000000028E-002     5.5555547078256495E-006
   3.8400000000000017E-002     1.8333330808673054E-004
   3.9500000000000007E-002     2.1481479052454233E-004
   4.0600000000000025E-002    -1.0370369273005053E-004
   4.1700000000000015E-002    -3.4814811078831553E-004
   4.2800000000000005E-002    -3.6296292091719806E-004
   4.3900000000000022E-002     3.8148142630234361E-004
   4.5000000000000012E-002     3.7407403578981757E-004
   4.6100000000000002E-002     2.3703700571786612E-004
   4.7200000000000020E-002    -7.4074064286833163E-006
   4.8300000000000010E-002    -7.5925915734842420E-004
   4.9400000000000027E-002    -5.2962958579882979E-004
   5.0500000000000017E-002     2.2592589084524661E-004
   5.1600000000000007E-002     6.2962953234091401E-004
   5.2700000000000025E-002     5.5555551080033183E-004
   5.3800000000000014E-002    -4.0740735130384564E-005
   5.4900000000000004E-002    -3.1851849053055048E-004
   5.6000000000000022E-002    -4.7407401143573225E-004
   5.7100000000000012E-002    -3.2962957629933953E-004
   5.8200000000000002E-002     1.5740738308522850E-004
   5.9300000000000019E-002    -6.4814805227797478E-005
   6.0400000000000009E-002     7.9629622632637620E-005
   6.1500000000000027E-002     1.0833331907633692E-004
   6.2600000000000017E-002     8.9398137060925364E-004
   6.3700000000000007E-002     4.0972215356305242E-004
   6.4800000000000024E-002     4.2777773342095315E-004
   6.5900000000000014E-002    -1.0555554035818204E-004
   6.7000000000000004E-002    -1.2703702086582780E-003
   6.8100000000000022E-002    -1.8629627302289009E-003
   6.9200000000000012E-002    -4.4814808643423021E-004
   7.0300000000000029E-002     1.1703702621161938E-003
   7.1400000000000019E-002     1.2296295026317239E-003
   7.2500000000000009E-002     1.0222221026197076E-003
   7.3600000000000027E-002    -1.2592591519933194E-004
   7.4700000000000016E-002    -6.0740730259567499E-004
   7.5800000000000006E-002    -8.5925916209816933E-004
   7.6900000000000024E-002     1.0370369273005053E-004
   7.8000000000000014E-002     1.2592590646818280E-003
   7.9100000000000004E-002     2.5185183039866388E-004
   8.0200000000000021E-002    -1.3629627646878362E-003
   8.1300000000000011E-002    -2.1185183431953192E-003
   8.2400000000000029E-002    -8.2962954184040427E-004
   8.3500000000000019E-002     1.3925924431532621E-003
   8.4600000000000009E-002     3.0370366293936968E-003
   8.5700000000000026E-002     1.8666663672775030E-003
   8.6800000000000016E-002    -7.8518508234992623E-004
   8.7900000000000006E-002    -2.8888885863125324E-003
   8.9000000000000024E-002    -2.4740737862884998E-003
   9.0100000000000013E-002     6.0740730259567499E-004
   9.1200000000000003E-002     3.4962957724928856E-003
   9.2300000000000021E-002     2.6518513914197683E-003
   9.3400000000000011E-002    -9.1851840261369944E-004
   9.4500000000000028E-002    -4.2666662484407425E-003
   9.5600000000000018E-002    -3.4370366483926773E-003
   9.6700000000000008E-002     3.4074069117195904E-004
   9.7800000000000026E-002     4.4740736484527588E-003
   9.8900000000000016E-002     4.3851844966411591E-003
  0.10000000000000001          5.7777768233790994E-004
  0.10110000000000002         -3.6370365414768457E-003
  0.10220000000000001         -3.2740735914558172E-003
  0.10330000000000003          2.4444441078230739E-004
  0.10440000000000002          2.7407403104007244E-003
  0.10550000000000001          2.5962959043681622E-003
  0.10660000000000003         -2.0379626657813787E-003
  0.10770000000000002         -4.6018511056900024E-003
  0.10880000000000001         -4.2481473647058010E-003
  0.10990000000000003          1.2777775991708040E-003
  0.11100000000000002          6.0370364226400852E-003
  0.11210000000000001          4.2592585086822510E-003
  0.11320000000000002         -8.2222209312021732E-004
  0.11430000000000001         -4.9185180105268955E-003
  0.11540000000000003         -3.7333327345550060E-003
  0.11650000000000002          2.5333329103887081E-003
  0.11760000000000001          6.9185174070298672E-003
  0.11870000000000003          4.0148142725229263E-003
  0.11980000000000002         -2.5777774862945080E-003
  0.12090000000000001         -7.1407398208975792E-003
  0.12200000000000003         -4.7851847484707832E-003
  0.12310000000000001          1.1851850431412458E-003
  0.12420000000000003          5.4962956346571445E-003
  0.12530000000000002          3.5259255673736334E-003
  0.12640000000000001         -1.1851850431412458E-003
  0.12750000000000003         -3.9999992586672306E-003
  0.12860000000000002         -2.4888885673135519E-003
  0.12970000000000001          1.9703700672835112E-003
  0.13080000000000003          4.2074066586792469E-003
  0.13190000000000002          2.5185181293636560E-003
  0.13300000000000001         -2.7407403104007244E-003
  0.13410000000000000         -5.6148138828575611E-003
  0.13520000000000004         -2.7555550914257765E-003
  0.13630000000000003          2.5037033483386040E-003
  0.13740000000000002          5.0222217105329037E-003
  0.13850000000000001          2.7111107483506203E-003
  0.13960000000000000         -2.5037033483386040E-003
  0.14070000000000005         -4.8148143105208874E-003
  0.14180000000000004         -1.8814812647178769E-003
  0.14290000000000003          3.4666662104427814E-003
  0.14400000000000002          5.3925919346511364E-003
  0.14510000000000001          2.3111107293516397E-003
  0.14620000000000000         -2.7703701052814722E-003
  0.14730000000000004         -4.8740734346210957E-003
  0.14840000000000003         -2.3407405242323875E-003
  0.14950000000000002          2.1629626862704754E-003
  0.15060000000000001          4.0370365604758263E-003
  0.15170000000000000          1.0148147121071815E-003
  0.15280000000000005         -3.2666663173586130E-003
  0.15390000000000004         -3.9185178466141224E-003
  0.15500000000000003         -3.4074069117195904E-004
  0.15610000000000002          4.2962958104908466E-003
  0.15720000000000001          5.0444439984858036E-003
  0.15830000000000000          1.3296294491738081E-003
  0.15940000000000004         -3.1666662544012070E-003
  0.16050000000000003         -4.5166662894189358E-003
  0.16160000000000002         -1.9462960772216320E-003
  0.16270000000000001          1.4153933152556419E-003
  0.16380000000000000          1.9055552547797561E-003
  0.16490000000000005         -6.6296284785494208E-004
  0.16600000000000004         -2.8185180854052305E-003
  0.16710000000000003         -1.4740738552063704E-003
  0.16820000000000002          2.4222219362854958E-003
  0.16930000000000001          5.0518512725830078E-003
  0.17040000000000000          3.6222217604517937E-003
  0.17150000000000004         -1.1999998241662979E-003
  0.17260000000000003         -4.8666661605238914E-003
  0.17370000000000002         -4.2888885363936424E-003
  0.17480000000000001         -4.5925920130684972E-004
  0.17590000000000000          2.6074070483446121E-003
  0.17700000000000005          1.9999996293336153E-003
  0.17810000000000004         -5.9259252157062292E-004
  0.17920000000000003         -1.7777775647118688E-003
  0.18030000000000002          6.0740730259567499E-004
  0.18140000000000001          3.4222218673676252E-003
  0.18250000000000000          3.5703699104487896E-003
  0.18360000000000004         -6.2222214182838798E-004
  0.18470000000000003         -5.0074066966772079E-003
  0.18580000000000002         -5.0518512725830078E-003
  0.18690000000000001         -1.4814813039265573E-004
  0.18800000000000000          5.6148138828575611E-003
  0.18910000000000005          6.1481473967432976E-003
  0.19020000000000004          8.5925916209816933E-004
  0.19130000000000003         -5.2740732207894325E-003
  0.19240000000000002         -6.6814804449677467E-003
  0.19350000000000001         -1.6518515767529607E-003
  0.19460000000000005          4.7999992966651917E-003
  0.19570000000000004          5.9629622846841812E-003
  0.19680000000000003          1.0740739526227117E-003
  0.19790000000000002         -4.8518511466681957E-003
  0.19900000000000001         -5.8666658587753773E-003
  0.20010000000000000         -8.4444432286545634E-004
  0.20120000000000005          5.0370362587273121E-003
  0.20230000000000004          5.8518513105809689E-003
  0.20340000000000003          6.6666660131886601E-004
  0.20450000000000002         -5.3962958045303822E-003
  0.20560000000000000         -6.3111102208495140E-003
  0.20670000000000005         -1.0851850965991616E-003
  0.20780000000000004          4.9333325587213039E-003
  0.20890000000000003          6.1111100949347019E-003
