 -0.12000000000000000          0.0000000000000000     
 -0.11889999999999999          0.0000000000000000     
 -0.11780000000000000         -3.8884611129760742     
 -0.11670000000000000         -14.011061668395996     
 -0.11559999999999999         -25.049211502075195     
 -0.11449999999999999         -24.564632415771484     
 -0.11340000000000000         -2.1739039421081543     
 -0.11230000000000000          38.785930633544922     
 -0.11119999999999999          77.079200744628906     
 -0.11009999999999999          82.875556945800781     
 -0.10900000000000000          37.247829437255859     
 -0.10790000000000000         -49.724239349365234     
 -0.10679999999999999         -135.60371398925781     
 -0.10569999999999999         -163.76638793945312     
 -0.10460000000000000         -97.240303039550781     
 -0.10349999999999999          50.327198028564453     
 -0.10239999999999999          209.51776123046875     
 -0.10130000000000000          287.95059204101562     
 -0.10020000000000000          228.59617614746094     
  -9.9099999999999994E-002     57.007137298583984     
  -9.7999999999999990E-002    -121.67919158935547     
  -9.6899999999999986E-002    -185.47645568847656     
  -9.5799999999999996E-002    -81.078933715820312     
  -9.4699999999999993E-002     131.30599975585938     
  -9.3599999999999989E-002     314.84741210937500     
  -9.2499999999999999E-002     353.53982543945312     
  -9.1399999999999995E-002     236.08677673339844     
  -9.0299999999999991E-002     57.803066253662109     
  -8.9200000000000002E-002    -61.453712463378906     
  -8.8099999999999984E-002    -73.487716674804688     
  -8.6999999999999994E-002    -30.994607925415039     
  -8.5899999999999990E-002    -31.168924331665039     
  -8.4799999999999986E-002    -133.16062927246094     
  -8.3699999999999997E-002    -326.86920166015625     
  -8.2599999999999993E-002    -571.15948486328125     
  -8.1499999999999989E-002    -845.82891845703125     
  -8.0399999999999999E-002    -1153.6495361328125     
  -7.9299999999999995E-002    -1477.2867431640625     
  -7.8199999999999992E-002    -1763.0412597656250     
  -7.7100000000000002E-002    -1984.5880126953125     
  -7.5999999999999984E-002    -2241.0009765625000     
  -7.4899999999999994E-002    -2771.4929199218750     
  -7.3799999999999991E-002    -3822.5351562500000     
  -7.2699999999999987E-002    -5453.4809570312500     
  -7.1599999999999997E-002    -7466.5288085937500     
  -7.0499999999999993E-002    -9569.0478515625000     
  -6.9399999999999989E-002    -11663.917968750000     
  -6.8300000000000000E-002    -14015.365234375000     
  -6.7199999999999996E-002    -17119.335937500000     
  -6.6099999999999992E-002    -21372.519531250000     
  -6.5000000000000002E-002    -26836.091796875000     
  -6.3899999999999985E-002    -33321.015625000000     
  -6.2799999999999995E-002    -40726.554687500000     
  -6.1699999999999991E-002    -49313.031250000000     
  -6.0599999999999994E-002    -59646.105468750000     
  -5.9499999999999990E-002    -72261.718750000000     
  -5.8399999999999994E-002    -87385.335937500000     
  -5.7299999999999990E-002    -104989.16406250000     
  -5.6199999999999986E-002    -125143.21875000000     
  -5.5099999999999996E-002    -148323.43750000000     
  -5.3999999999999992E-002    -175366.17187500000     
  -5.2899999999999989E-002    -207118.89062500000     
  -5.1799999999999985E-002    -244115.07812500000     
  -5.0699999999999995E-002    -286591.96875000000     
  -4.9599999999999991E-002    -334800.71875000000     
  -4.8499999999999988E-002    -389311.96875000000     
  -4.7399999999999998E-002    -451001.71875000000     
  -4.6299999999999994E-002    -520783.75000000000     
  -4.5199999999999990E-002    -599376.56250000000     
  -4.4099999999999986E-002    -687343.37500000000     
  -4.2999999999999997E-002    -785312.68750000000     
  -4.1899999999999993E-002    -894081.00000000000     
  -4.0799999999999989E-002    -1014468.4375000000     
  -3.9699999999999985E-002    -1147047.2500000000     
  -3.8599999999999995E-002    -1292118.6250000000     
  -3.7499999999999992E-002    -1449923.3750000000     
  -3.6399999999999988E-002    -1620905.6250000000     
  -3.5299999999999984E-002    -1805635.5000000000     
  -3.4199999999999994E-002    -2004421.8750000000     
  -3.3099999999999991E-002    -2216962.2500000000     
  -3.1999999999999987E-002    -2442400.2500000000     
  -3.0899999999999997E-002    -2679847.0000000000     
  -2.9799999999999993E-002    -2928696.0000000000     
  -2.8699999999999989E-002    -3188500.2500000000     
  -2.7599999999999986E-002    -3458313.2500000000     
  -2.6499999999999996E-002    -3736155.7500000000     
  -2.5399999999999992E-002    -4019195.7500000000     
  -2.4299999999999988E-002    -4304390.5000000000     
  -2.3199999999999985E-002    -4589025.0000000000     
  -2.2099999999999995E-002    -4870658.0000000000     
  -2.0999999999999991E-002    -5146320.0000000000     
  -1.9899999999999987E-002    -5411980.0000000000     
  -1.8799999999999983E-002    -5662690.5000000000     
  -1.7699999999999994E-002    -5893393.5000000000     
  -1.6599999999999990E-002    -6099530.5000000000     
  -1.5499999999999986E-002    -6276864.5000000000     
  -1.4399999999999996E-002    -6420847.5000000000     
  -1.3299999999999992E-002    -6525939.5000000000     
  -1.2199999999999989E-002    -6586115.0000000000     
  -1.1099999999999985E-002    -6595632.0000000000     
  -9.9999999999999950E-003    -6549722.5000000000     
  -8.8999999999999913E-003    -6444349.5000000000     
  -7.7999999999999875E-003    -6275672.0000000000     
  -6.6999999999999837E-003    -6039443.0000000000     
  -5.5999999999999939E-003    -5731623.5000000000     
  -4.4999999999999901E-003    -5349191.0000000000     
  -3.3999999999999864E-003    -4890562.0000000000     
  -2.2999999999999826E-003    -4355357.5000000000     
  -1.1999999999999927E-003    -3743634.7500000000     
  -9.9999999999988987E-005    -3055856.5000000000     
   1.0000000000000148E-003    -2293321.2500000000     
   2.1000000000000185E-003    -1459123.1250000000     
   3.2000000000000084E-003    -558123.75000000000     
   4.3000000000000121E-003     403621.59375000000     
   5.4000000000000159E-003     1419471.7500000000     
   6.5000000000000058E-003     2482426.2500000000     
   7.6000000000000234E-003     3584365.2500000000     
   8.7000000000000133E-003     4715220.5000000000     
   9.8000000000000032E-003     5863400.5000000000     
   1.0900000000000021E-002     7016606.5000000000     
   1.2000000000000011E-002     8163008.5000000000     
   1.3100000000000001E-002     9291142.0000000000     
   1.4200000000000018E-002     10388900.000000000     
   1.5300000000000008E-002     11442939.000000000     
   1.6400000000000026E-002     12439077.000000000     
   1.7500000000000016E-002     13363802.000000000     
   1.8600000000000005E-002     14205437.000000000     
   1.9700000000000023E-002     14953949.000000000     
   2.0800000000000013E-002     15599823.000000000     
   2.1900000000000003E-002     16133193.000000000     
   2.3000000000000020E-002     16544415.000000000     
   2.4100000000000010E-002     16825736.000000000     
   2.5200000000000000E-002     16972416.000000000     
   2.6300000000000018E-002     16982350.000000000     
   2.7400000000000008E-002     16854790.000000000     
   2.8500000000000025E-002     16589281.000000000     
   2.9600000000000015E-002     16186264.000000000     
   3.0700000000000005E-002     15648460.000000000     
   3.1800000000000023E-002     14981597.000000000     
   3.2900000000000013E-002     14194064.000000000     
   3.4000000000000002E-002     13295216.000000000     
   3.5100000000000020E-002     12294434.000000000     
   3.6200000000000010E-002     11201759.000000000     
   3.7300000000000028E-002     10028874.000000000     
   3.8400000000000017E-002     8789609.0000000000     
   3.9500000000000007E-002     7499204.5000000000     
   4.0600000000000025E-002     6172420.0000000000     
   4.1700000000000015E-002     4822977.5000000000     
   4.2800000000000005E-002     3464419.0000000000     
   4.3900000000000022E-002     2110884.2500000000     
   4.5000000000000012E-002     777367.00000000000     
   4.6100000000000002E-002    -521504.46875000000     
   4.7200000000000020E-002    -1773170.3750000000     
   4.8300000000000010E-002    -2967194.5000000000     
   4.9400000000000027E-002    -4094520.7500000000     
   5.0500000000000017E-002    -5145848.5000000000     
   5.1600000000000007E-002    -6111881.0000000000     
   5.2700000000000025E-002    -6984933.5000000000     
   5.3800000000000014E-002    -7760155.5000000000     
   5.4900000000000004E-002    -8435482.0000000000     
   5.6000000000000022E-002    -9010049.0000000000     
   5.7100000000000012E-002    -9482619.0000000000     
   5.8200000000000002E-002    -9852047.0000000000     
   5.9300000000000019E-002    -10118732.000000000     
   6.0400000000000009E-002    -10286274.000000000     
   6.1500000000000027E-002    -10360715.000000000     
   6.2600000000000017E-002    -10348397.000000000     
   6.3700000000000007E-002    -10254467.000000000     
   6.4800000000000024E-002    -10083482.000000000     
   6.5900000000000014E-002    -9841074.0000000000     
   6.7000000000000004E-002    -9535281.0000000000     
   6.8100000000000022E-002    -9175692.0000000000     
   6.9200000000000012E-002    -8771371.0000000000     
   7.0300000000000029E-002    -8329329.0000000000     
   7.1400000000000019E-002    -7855213.0000000000     
   7.2500000000000009E-002    -7355235.5000000000     
   7.3600000000000027E-002    -6837305.0000000000     
   7.4700000000000016E-002    -6310112.5000000000     
   7.5800000000000006E-002    -5781030.0000000000     
   7.6900000000000024E-002    -5254984.0000000000     
   7.8000000000000014E-002    -4735398.0000000000     
   7.9100000000000004E-002    -4226067.5000000000     
   8.0200000000000021E-002    -3732076.7500000000     
   8.1300000000000011E-002    -3258627.7500000000     
   8.2400000000000029E-002    -2809217.2500000000     
   8.3500000000000019E-002    -2385008.5000000000     
   8.4600000000000009E-002    -1986124.7500000000     
   8.5700000000000026E-002    -1613543.1250000000     
   8.6800000000000016E-002    -1269433.3750000000     
   8.7900000000000006E-002    -955713.25000000000     
   8.9000000000000024E-002    -672369.06250000000     
   9.0100000000000013E-002    -417449.06250000000     
   9.1200000000000003E-002    -188745.67187500000     
   9.2300000000000021E-002     14481.730468750000     
   9.3400000000000011E-002     191637.04687500000     
   9.4500000000000028E-002     342572.46875000000     
   9.5600000000000018E-002     469230.96875000000     
   9.6700000000000008E-002     575207.37500000000     
   9.7800000000000026E-002     663622.50000000000     
   9.8900000000000016E-002     735564.75000000000     
  0.10000000000000001          790587.00000000000     
  0.10110000000000002          828933.25000000000     
  0.10220000000000001          853013.37500000000     
  0.10330000000000003          866641.37500000000     
  0.10440000000000002          872645.50000000000     
  0.10550000000000001          871479.00000000000     
  0.10660000000000003          862084.68750000000     
  0.10770000000000002          844339.93750000000     
  0.10880000000000001          820425.06250000000     
  0.10990000000000003          793703.50000000000     
  0.11100000000000002          766301.50000000000     
  0.11210000000000001          737825.18750000000     
  0.11320000000000002          706629.00000000000     
  0.11430000000000001          672248.06250000000     
  0.11540000000000003          636471.68750000000     
  0.11650000000000002          602030.81250000000     
  0.11760000000000001          570213.75000000000     
  0.11870000000000003          539908.37500000000     
  0.11980000000000002          509121.53125000000     
  0.12090000000000001          477270.06250000000     
  0.12200000000000003          445963.03125000000     
  0.12310000000000001          417409.71875000000     
  0.12420000000000003          392214.31250000000     
  0.12530000000000002          368878.50000000000     
  0.12640000000000001          345454.18750000000     
  0.12750000000000003          321661.53125000000     
  0.12860000000000002          299143.46875000000     
  0.12970000000000001          279669.34375000000     
  0.13080000000000003          263173.90625000000     
  0.13190000000000002          247804.68750000000     
  0.13300000000000001          231833.62500000000     
  0.13410000000000000          215432.98437500000     
  0.13520000000000004          200426.17187500000     
  0.13630000000000003          188246.60937500000     
  0.13740000000000002          178328.81250000000     
  0.13850000000000001          168619.67187500000     
  0.13960000000000000          157707.01562500000     
  0.14070000000000005          146300.26562500000     
  0.14180000000000004          136441.43750000000     
  0.14290000000000003          129303.14062500000     
  0.14400000000000002          123859.14062500000     
  0.14510000000000001          117882.27343750000     
  0.14620000000000000          110227.37500000000     
  0.14730000000000004          101999.95312500000     
  0.14840000000000003          95381.875000000000     
  0.14950000000000002          91309.437500000000     
  0.15060000000000001          88451.804687500000     
  0.15170000000000000          84579.312500000000     
  0.15280000000000005          78863.054687500000     
  0.15390000000000004          72731.476562500000     
  0.15500000000000003          68365.039062500000     
  0.15610000000000002          66396.484375000000     
  0.15720000000000001          65259.691406250000     
  0.15830000000000000          62813.296875000000     
  0.15940000000000004          58564.617187500000     
  0.16050000000000003          54154.660156250000     
  0.16160000000000002          51598.753906250000     
  0.16270000000000001          51153.585937500000     
  0.16380000000000000          51043.226562500000     
  0.16490000000000005          49313.847656250000     
  0.16600000000000004          45857.535156250000     
  0.16710000000000003          42492.929687500000     
  0.16820000000000002          41029.769531250000     
  0.16930000000000001          41367.605468750000     
  0.17040000000000000          41609.992187500000     
  0.17150000000000004          40064.031250000000     
  0.17260000000000003          36994.496093750000     
  0.17370000000000002          34312.976562500000     
  0.17480000000000001          33530.207031250000     
  0.17590000000000000          34156.269531250000     
  0.17700000000000005          34219.375000000000     
  0.17810000000000004          32349.785156250000     
  0.17920000000000003          29215.289062500000     
  0.18030000000000002          26813.777343750000     
  0.18140000000000001          26364.181640625000     
  0.18250000000000000          27033.507812500000     
  0.18360000000000004          26825.195312500000     
  0.18470000000000003          24689.527343750000     
  0.18580000000000002          21634.003906250000     
  0.18690000000000001          19681.771484375000     
  0.18800000000000000          19769.564453125000     
  0.18910000000000005          20786.994140625000     
  0.19020000000000004          20750.960937500000     
  0.19130000000000003          18854.263671875000     
  0.19240000000000002          16273.340820312500     
  0.19350000000000001          14909.946289062500     
  0.19460000000000005          15409.442382812500     
  0.19570000000000004          16529.216796875000     
  0.19680000000000003          16481.408203125000     
  0.19790000000000002          14802.503906250000     
  0.19900000000000001          12806.285156250000     
  0.20010000000000000          12169.524414062500     
  0.20120000000000005          13172.601562500000     
  0.20230000000000004          14431.033203125000     
  0.20340000000000003          14364.779296875000     
  0.20450000000000002          12839.625000000000     
  0.20560000000000000          11259.867187500000     
  0.20670000000000005          11051.271484375000     
  0.20780000000000004          12164.887695312500     
  0.20890000000000003          13144.992187500000     
