 -0.12000000000000000          0.0000000000000000     
 -0.11889999999999999          0.0000000000000000     
 -0.11780000000000000          0.0000000000000000     
 -0.11670000000000000          0.0000000000000000     
 -0.11559999999999999          0.0000000000000000     
 -0.11449999999999999          0.0000000000000000     
 -0.11340000000000000          3.1364573892620634E-016
 -0.11230000000000000         -2.2966237456033918E-015
 -0.11119999999999999         -3.1050432136494471E-014
 -0.11009999999999999         -1.1831638099812913E-013
 -0.10900000000000000         -1.4952020741323957E-013
 -0.10790000000000000          3.7294993482372973E-013
 -0.10679999999999999          1.9716017013449161E-012
 -0.10569999999999999          3.5098762004442952E-012
 -0.10460000000000000          6.0405846991073986E-013
 -0.10349999999999999         -1.1300415464488012E-011
 -0.10239999999999999         -2.6855710363871133E-011
 -0.10130000000000000         -2.3405968135881139E-011
 -0.10020000000000000          2.3633241197362764E-011
  -9.9099999999999994E-002     9.8557023653356168E-011
  -9.7999999999999990E-002     1.1917378195391848E-010
  -9.6899999999999986E-002    -4.5737719167604496E-012
  -9.5799999999999996E-002    -2.2853602343886337E-010
  -9.4699999999999993E-002    -3.0033170395071807E-010
  -9.3599999999999989E-002     4.3096304302991939E-011
  -9.2499999999999999E-002     6.4412009059822140E-010
  -9.1399999999999995E-002     7.2668127071295885E-010
  -9.0299999999999991E-002    -5.0159532083426939E-010
  -8.9200000000000002E-002    -2.5875332987368438E-009
  -8.8099999999999984E-002    -3.2033800057007511E-009
  -8.6999999999999994E-002     3.0959590446855145E-010
  -8.5899999999999990E-002     7.4752133372157914E-009
  -8.4799999999999986E-002     1.2458506226664667E-008
  -8.3699999999999997E-002     7.0894001780175131E-009
  -8.2599999999999993E-002    -1.0767728930716203E-008
  -8.1499999999999989E-002    -3.0210955515030946E-008
  -8.0399999999999999E-002    -3.1202361583382299E-008
  -7.9299999999999995E-002    -1.6333494556874939E-009
  -7.8199999999999992E-002     4.4626411010995071E-008
  -7.7100000000000002E-002     6.8956708787482057E-008
  -7.5999999999999984E-002     3.7286142173797998E-008
  -7.4899999999999994E-002    -4.1367329117747431E-008
  -7.3799999999999991E-002    -1.0550173357160020E-007
  -7.2699999999999987E-002    -8.4363719565772044E-008
  -7.1599999999999997E-002     3.0720688215524206E-008
  -7.0499999999999993E-002     1.5273101894308638E-007
  -6.9399999999999989E-002     1.5441234779700608E-007
  -6.8300000000000000E-002    -1.2337125099293189E-008
  -6.7199999999999996E-002    -2.3659852388391300E-007
  -6.6099999999999992E-002    -3.0684824992022186E-007
  -6.5000000000000002E-002    -9.4274383855008637E-008
  -6.3899999999999985E-002     2.8828137033087842E-007
  -6.2799999999999995E-002     5.2358615221237415E-007
  -6.1699999999999991E-002     3.4497671208555403E-007
  -6.0599999999999994E-002    -1.8688115233089775E-007
  -5.9499999999999990E-002    -6.5825213368952973E-007
  -5.8399999999999994E-002    -6.1841075194024597E-007
  -5.7299999999999990E-002    -6.9126997459534323E-009
  -5.6199999999999986E-002     7.0493450721187401E-007
  -5.5099999999999996E-002     8.6013028521847446E-007
  -5.3999999999999992E-002     2.1059867094663787E-007
  -5.2899999999999989E-002    -7.7227400652191136E-007
  -5.1799999999999985E-002    -1.2248960956640076E-006
  -5.0699999999999995E-002    -6.4700856228228076E-007
  -4.9599999999999991E-002     5.7813895182334818E-007
  -4.8499999999999988E-002     1.4353175856740563E-006
  -4.7399999999999998E-002     1.1602792255871464E-006
  -4.6299999999999994E-002    -2.2503797936224146E-008
  -4.5199999999999990E-002    -1.0399872962807422E-006
  -4.4099999999999986E-002    -9.4622220103701693E-007
  -4.2999999999999997E-002     1.3812569932269980E-007
  -4.1899999999999993E-002     1.0555992275840254E-006
  -4.0799999999999989E-002     6.8305422473713406E-007
  -3.9699999999999985E-002    -9.1305901150917634E-007
  -3.8599999999999995E-002    -2.3782267817296088E-006
  -3.7499999999999992E-002    -2.2329736566462088E-006
  -3.6399999999999988E-002    -2.7146177217218792E-007
  -3.5299999999999984E-002     2.1486953301064204E-006
  -3.4199999999999994E-002     3.2739851576479850E-006
  -3.3099999999999991E-002     2.5120154987234855E-006
  -3.1999999999999987E-002     8.7152955074998317E-007
  -3.0899999999999997E-002    -1.6397615354435402E-007
  -2.9799999999999993E-002    -2.0038831394231238E-007
  -2.8699999999999989E-002    -2.9900203912802681E-007
  -2.7599999999999986E-002    -1.6823908026708523E-006
  -2.6499999999999996E-002    -4.0761551645118743E-006
  -2.5399999999999992E-002    -5.5142327255452983E-006
  -2.4299999999999988E-002    -4.0552122300141491E-006
  -2.3199999999999985E-002     1.6095509636215866E-007
  -2.2099999999999995E-002     4.6598947847087402E-006
  -2.0999999999999991E-002     6.6881248130812310E-006
  -1.9899999999999987E-002     5.7251481848652475E-006
  -1.8799999999999983E-002     3.9394744817400351E-006
  -1.7699999999999994E-002     3.9819419725972693E-006
  -1.6599999999999990E-002     6.2358176364796236E-006
  -1.5499999999999986E-002     8.3990253187948838E-006
  -1.4399999999999996E-002     8.0661866377340630E-006
  -1.3299999999999992E-002     5.8392215578351170E-006
  -1.2199999999999989E-002     5.6443118410243187E-006
  -1.1099999999999985E-002     1.1505233487696387E-005
  -9.9999999999999950E-003     2.3669612346566282E-005
  -8.8999999999999913E-003     3.7998102925485000E-005
  -7.7999999999999875E-003     4.9591086280997843E-005
  -6.6999999999999837E-003     5.7414486946072429E-005
  -5.5999999999999939E-003     6.5428495872765779E-005
  -4.4999999999999901E-003     7.8950724855531007E-005
  -3.3999999999999864E-003     9.9723634775727987E-005
  -2.2999999999999826E-003     1.2465530016925186E-004
  -1.1999999999999927E-003     1.4971534255892038E-004
  -9.9999999999988987E-005     1.7526620649732649E-004
   1.0000000000000148E-003     2.0743334607686847E-004
   2.1000000000000185E-003     2.5387908681295812E-004
   3.2000000000000084E-003     3.1796356779523194E-004
   4.3000000000000121E-003     3.9707223186269403E-004
   5.4000000000000159E-003     4.8685292131267488E-004
   6.5000000000000058E-003     5.8716163039207458E-004
   7.6000000000000234E-003     7.0374808274209499E-004
   8.7000000000000133E-003     8.4409379633143544E-004
   9.8000000000000032E-003     1.0119582293555140E-003
   1.0900000000000021E-002     1.2066724011674523E-003
   1.2000000000000011E-002     1.4282760675996542E-003
   1.3100000000000001E-002     1.6832133987918496E-003
   1.4200000000000018E-002     1.9842954352498055E-003
   1.5300000000000008E-002     2.3444117978215218E-003
   1.6400000000000026E-002     2.7702352963387966E-003
   1.7500000000000016E-002     3.2626495230942965E-003
   1.8600000000000005E-002     3.8238596171140671E-003
   1.9700000000000023E-002     4.4639473780989647E-003
   2.0800000000000013E-002     5.1997615955770016E-003
   2.1900000000000003E-002     6.0469293966889381E-003
   2.3000000000000020E-002     7.0134545676410198E-003
   2.4100000000000010E-002     8.1024290993809700E-003
   2.5200000000000000E-002     9.3220155686140060E-003
   2.6300000000000018E-002     1.0692529380321503E-002
   2.7400000000000008E-002     1.2242341414093971E-002
   2.8500000000000025E-002     1.3995443470776081E-002
   2.9600000000000015E-002     1.5962682664394379E-002
   3.0700000000000005E-002     1.8146099522709846E-002
   3.1800000000000023E-002     2.0552897825837135E-002
   3.2900000000000013E-002     2.3205192759633064E-002
   3.4000000000000002E-002     2.6134928688406944E-002
   3.5100000000000020E-002     2.9367979615926743E-002
   3.6200000000000010E-002     3.2912980765104294E-002
   3.7300000000000028E-002     3.6766454577445984E-002
   3.8400000000000017E-002     4.0929596871137619E-002
   3.9500000000000007E-002     4.5419573783874512E-002
   4.0600000000000025E-002     5.0262793898582458E-002
   4.1700000000000015E-002     5.5475763976573944E-002
   4.2800000000000005E-002     6.1052393168210983E-002
   4.3900000000000022E-002     6.6970974206924438E-002
   4.5000000000000012E-002     7.3213927447795868E-002
   4.6100000000000002E-002     7.9779833555221558E-002
   4.7200000000000020E-002     8.6674153804779053E-002
   4.8300000000000010E-002     9.3886576592922211E-002
   4.9400000000000027E-002    0.10137742012739182     
   5.0500000000000017E-002    0.10908803343772888     
   5.1600000000000007E-002    0.11696557700634003     
   5.2700000000000025E-002    0.12497646361589432     
   5.3800000000000014E-002    0.13309358060359955     
   5.4900000000000004E-002    0.14126844704151154     
   5.6000000000000022E-002    0.14941619336605072     
   5.7100000000000012E-002    0.15742979943752289     
   5.8200000000000002E-002    0.16521081328392029     
   5.9300000000000019E-002    0.17268581688404083     
   6.0400000000000009E-002    0.17979183793067932     
   6.1500000000000027E-002    0.18644466996192932     
   6.2600000000000017E-002    0.19252263009548187     
   6.3700000000000007E-002    0.19788439571857452     
   6.4800000000000024E-002    0.20240414142608643     
   6.5900000000000014E-002    0.20598967373371124     
   6.7000000000000004E-002    0.20856387913227081     
   6.8100000000000022E-002    0.21002838015556335     
   6.9200000000000012E-002    0.21024784445762634     
   7.0300000000000029E-002    0.20907348394393921     
   7.1400000000000019E-002    0.20638471841812134     
   7.2500000000000009E-002    0.20210886001586914     
   7.3600000000000027E-002    0.19619898498058319     
   7.4700000000000016E-002    0.18859077990055084     
   7.5800000000000006E-002    0.17918309569358826     
   7.6900000000000024E-002    0.16786259412765503     
   7.8000000000000014E-002    0.15454980731010437     
   7.9100000000000004E-002    0.13921999931335449     
   8.0200000000000021E-002    0.12187704443931580     
   8.1300000000000011E-002    0.10250801593065262     
   8.2400000000000029E-002     8.1063531339168549E-002
   8.3500000000000019E-002     5.7485233992338181E-002
   8.4600000000000009E-002     3.1751692295074463E-002
   8.5700000000000026E-002     3.8944492116570473E-003
   8.6800000000000016E-002    -2.6032786816358566E-002
   8.7900000000000006E-002    -5.8004297316074371E-002
   8.9000000000000024E-002    -9.2040888965129852E-002
   9.0100000000000013E-002   -0.12817914783954620     
   9.1200000000000003E-002   -0.16642111539840698     
   9.2300000000000021E-002   -0.20671844482421875     
   9.3400000000000011E-002   -0.24900844693183899     
   9.4500000000000028E-002   -0.29326644539833069     
   9.5600000000000018E-002   -0.33952322602272034     
   9.6700000000000008E-002   -0.38782691955566406     
   9.7800000000000026E-002   -0.43818891048431396     
   9.8900000000000016E-002   -0.49056583642959595     
  0.10000000000000001        -0.54489570856094360     
  0.10110000000000002        -0.60114985704421997     
  0.10220000000000001        -0.65934485197067261     
  0.10330000000000003        -0.71949875354766846     
  0.10440000000000002        -0.78157156705856323     
  0.10550000000000001        -0.84544599056243896     
  0.10660000000000003        -0.91096353530883789     
  0.10770000000000002        -0.97797369956970215     
  0.10880000000000001         -1.0463374853134155     
  0.10990000000000003         -1.1158744096755981     
  0.11100000000000002         -1.1862990856170654     
  0.11210000000000001         -1.2572040557861328     
  0.11320000000000002         -1.3281019926071167     
  0.11430000000000001         -1.3984788656234741     
  0.11540000000000003         -1.4677987098693848     
  0.11650000000000002         -1.5354492664337158     
  0.11760000000000001         -1.6006809473037720     
  0.11870000000000003         -1.6626002788543701     
  0.11980000000000002         -1.7202198505401611     
  0.12090000000000001         -1.7725152969360352     
  0.12200000000000003         -1.8184400796890259     
  0.12310000000000001         -1.8568854331970215     
  0.12420000000000003         -1.8866369724273682     
  0.12530000000000002         -1.9063868522644043     
  0.12640000000000001         -1.9148019552230835     
  0.12750000000000003         -1.9105875492095947     
  0.12860000000000002         -1.8925102949142456     
  0.12970000000000001         -1.8593772649765015     
  0.13080000000000003         -1.8100110292434692     
  0.13190000000000002         -1.7432761192321777     
  0.13300000000000001         -1.6581561565399170     
  0.13410000000000000         -1.5538288354873657     
  0.13520000000000004         -1.4296936988830566     
  0.13630000000000003         -1.2853560447692871     
  0.13740000000000002         -1.1206065416336060     
  0.13850000000000001        -0.93544799089431763     
  0.13960000000000000        -0.73015660047531128     
  0.14070000000000005        -0.50534266233444214     
  0.14180000000000004        -0.26196432113647461     
  0.14290000000000003         -1.2972652912139893E-003
  0.14400000000000002         0.27510607242584229     
  0.14510000000000001         0.56541609764099121     
  0.14620000000000000         0.86749005317687988     
  0.14730000000000004          1.1788450479507446     
  0.14840000000000003          1.4966802597045898     
  0.14950000000000002          1.8179601430892944     
  0.15060000000000001          2.1394829750061035     
  0.15170000000000000          2.4579100608825684     
  0.15280000000000005          2.7697613239288330     
  0.15390000000000004          3.0714232921600342     
  0.15500000000000003          3.3592162132263184     
  0.15610000000000002          3.6295044422149658     
  0.15720000000000001          3.8787925243377686     
  0.15830000000000000          4.1037554740905762     
  0.15940000000000004          4.3012442588806152     
  0.16050000000000003          4.4683237075805664     
  0.16160000000000002          4.6023521423339844     
  0.16270000000000001          4.7010755538940430     
  0.16380000000000000          4.7626900672912598     
  0.16490000000000005          4.7858476638793945     
  0.16600000000000004          4.7696423530578613     
  0.16710000000000003          4.7136216163635254     
  0.16820000000000002          4.6178412437438965     
  0.16930000000000001          4.4829168319702148     
  0.17040000000000000          4.3100256919860840     
  0.17150000000000004          4.1008515357971191     
  0.17260000000000003          3.8575139045715332     
  0.17370000000000002          3.5825486183166504     
  0.17480000000000001          3.2789144515991211     
  0.17590000000000000          2.9499800205230713     
  0.17700000000000005          2.5994579792022705     
  0.17810000000000004          2.2313036918640137     
  0.17920000000000003          1.8496266603469849     
  0.18030000000000002          1.4586402177810669     
  0.18140000000000001          1.0626381635665894     
  0.18250000000000000         0.66595005989074707     
  0.18360000000000004         0.27285221219062805     
  0.18470000000000003        -0.11253336071968079     
  0.18580000000000002        -0.48632410168647766     
  0.18690000000000001        -0.84490197896957397     
  0.18800000000000000         -1.1849205493927002     
  0.18910000000000005         -1.5033450126647949     
  0.19020000000000004         -1.7975139617919922     
  0.19130000000000003         -2.0651965141296387     
  0.19240000000000002         -2.3046195507049561     
  0.19350000000000001         -2.5144562721252441     
  0.19460000000000005         -2.6937868595123291     
  0.19570000000000004         -2.8420934677124023     
  0.19680000000000003         -2.9592981338500977     
  0.19790000000000002         -3.0457730293273926     
  0.19900000000000001         -3.1022984981536865     
  0.20010000000000000         -3.1299772262573242     
  0.20120000000000005         -3.1301631927490234     
  0.20230000000000004         -3.1044631004333496     
  0.20340000000000003         -3.0547537803649902     
  0.20450000000000002         -2.9831588268280029     
  0.20560000000000000         -2.8919665813446045     
  0.20670000000000005         -2.7835233211517334     
  0.20780000000000004         -2.6601641178131104     
  0.20890000000000003         -2.5242207050323486     
