 -0.12000000000000000          0.0000000000000000
 -0.11889999999999999          0.0000000000000000
 -0.11780000000000000          0.0000000000000000
 -0.11670000000000000         -2.7977897687350962E-011
 -0.11559999999999999         -8.1552533678465029E-011
 -0.11449999999999999         -1.2490255369357403E-011
 -0.11340000000000000          3.9207060309256393E-010
 -0.11230000000000000          1.0264758308220169E-009
 -0.11119999999999999          1.1883380173163247E-009
 -0.11009999999999999          6.3622965752858787E-012
 -0.10900000000000000         -2.4854220876445849E-009
 -0.10790000000000000         -4.6819110621660905E-009
 -0.10679999999999999         -4.2678623632135706E-009
 -0.10569999999999999         -3.3339286047834841E-010
 -0.10460000000000000          5.1652761333977801E-009
 -0.10349999999999999          8.4422287750600799E-009
 -0.10239999999999999          7.0167427728926486E-009
 -0.10130000000000000          2.1342196026333472E-009
 -0.10020000000000000         -2.2053696054220056E-009
  -9.9099999999999994E-002    -3.1710173551951782E-009
  -9.7999999999999990E-002    -2.2610758105177927E-009
  -9.6899999999999986E-002    -4.1097715777350517E-009
  -9.5799999999999996E-002    -1.1357052912649265E-008
  -9.4699999999999993E-002    -2.0283197391022447E-008
  -9.3599999999999989E-002    -2.2025455495529332E-008
  -9.2499999999999999E-002    -9.4184546579723342E-009
  -9.1399999999999995E-002     1.5994600380158770E-008
  -9.0299999999999991E-002     4.3131173625093146E-008
  -8.9200000000000002E-002     5.8109226540952841E-008
  -8.8099999999999984E-002     5.3386188035676339E-008
  -8.6999999999999994E-002     3.1872758466152392E-008
  -8.5899999999999990E-002     2.6865249218038910E-009
  -8.4799999999999986E-002    -2.8030891596858513E-008
  -8.3699999999999997E-002    -6.4227849897835475E-008
  -8.2599999999999993E-002    -1.2025055400397804E-007
  -8.1499999999999989E-002    -2.1517300728491834E-007
  -8.0399999999999999E-002    -3.6591262393052796E-007
  -7.9299999999999995E-002    -5.8349143665533771E-007
  -7.8199999999999992E-002    -8.7347880601946097E-007
  -7.7100000000000002E-002    -1.2388752940719094E-006
  -7.5999999999999984E-002    -1.6834751006394376E-006
  -7.4899999999999994E-002    -2.2152341207529853E-006
  -7.3799999999999991E-002    -2.8501577601095458E-006
  -7.2699999999999987E-002    -3.6165797892598207E-006
  -7.1599999999999997E-002    -4.5582071017640433E-006
  -7.0499999999999993E-002    -5.7337323945612595E-006
  -6.9399999999999989E-002    -7.2121461934865223E-006
  -6.8300000000000000E-002    -9.0657034040469963E-006
  -6.7199999999999996E-002    -1.1365032818526331E-005
  -6.6099999999999992E-002    -1.4181155691446872E-005
  -6.5000000000000002E-002    -1.7596124344906749E-005
  -6.3899999999999985E-002    -2.1718722757773618E-005
  -6.2799999999999995E-002    -2.6697597596229715E-005
  -6.1699999999999991E-002    -3.2724973801520426E-005
  -6.0599999999999994E-002    -4.0030300482447458E-005
  -5.9499999999999990E-002    -4.8870702828703966E-005
  -5.8399999999999994E-002    -5.9527985068093889E-005
  -5.7299999999999990E-002    -7.2316910492917745E-005
  -5.6199999999999986E-002    -8.7600889385150923E-005
  -5.5099999999999996E-002    -1.0580604057141643E-004
  -5.3999999999999992E-002    -1.2742870114219960E-004
  -5.2899999999999989E-002    -1.5303902985717177E-004
  -5.1799999999999985E-002    -1.8328840760319787E-004
  -5.0699999999999995E-002    -2.1892368206940884E-004
  -4.9599999999999991E-002    -2.6080250573514406E-004
  -4.8499999999999988E-002    -3.0990103721960865E-004
  -4.7399999999999998E-002    -3.6731164867499376E-004
  -4.6299999999999994E-002    -4.3423898659115685E-004
  -4.5199999999999990E-002    -5.1200635810481334E-004
  -4.4099999999999986E-002    -6.0207575956134414E-004
  -4.2999999999999997E-002    -7.0607122026221305E-004
  -4.1899999999999993E-002    -8.2579346974065578E-004
  -4.0799999999999989E-002    -9.6322158545052627E-004
  -3.9699999999999985E-002    -1.1205102469765314E-003
  -3.8599999999999995E-002    -1.2999930645940846E-003
  -3.7499999999999992E-002    -1.5041908997854498E-003
  -3.6399999999999988E-002    -1.7358131504034446E-003
  -3.5299999999999984E-002    -1.9977417956563402E-003
  -3.4199999999999994E-002    -2.2930044168442804E-003
  -3.3099999999999991E-002    -2.6247546120153936E-003
  -3.1999999999999987E-002    -2.9962686824854053E-003
  -3.0899999999999997E-002    -3.4109487860233393E-003
  -2.9799999999999993E-002    -3.8723101202255417E-003
  -2.8699999999999989E-002    -4.3839293644249338E-003
  -2.7599999999999986E-002    -4.9493795246833092E-003
  -2.6499999999999996E-002    -5.5721698781705962E-003
  -2.5399999999999992E-002    -6.2557151148711224E-003
  -2.4299999999999988E-002    -7.0033091792024759E-003
  -2.3199999999999985E-002    -7.8180690268682129E-003
  -2.2099999999999995E-002    -8.7028338871910065E-003
  -2.0999999999999991E-002    -9.6600348568775408E-003
  -1.9899999999999987E-002    -1.0691587369282697E-002
  -1.8799999999999983E-002    -1.1798835805283818E-002
  -1.7699999999999994E-002    -1.2982517714928046E-002
  -1.6599999999999990E-002    -1.4242707027179056E-002
  -1.5499999999999986E-002    -1.5578698373870718E-002
  -1.4399999999999996E-002    -1.6988863025419267E-002
  -1.3299999999999992E-002    -1.8470517744924225E-002
  -1.2199999999999989E-002    -2.0019857337500276E-002
  -1.1099999999999985E-002    -2.1631917894144346E-002
  -9.9999999999999950E-003    -2.3300533844120602E-002
  -8.8999999999999913E-003    -2.5018251516919582E-002
  -7.7999999999999875E-003    -2.6776244678085467E-002
  -6.6999999999999837E-003    -2.8564243993254468E-002
  -5.5999999999999939E-003    -3.0370578709772989E-002
  -4.4999999999999901E-003    -3.2182216541851071E-002
  -3.3999999999999864E-003    -3.3984824838056329E-002
  -2.2999999999999826E-003    -3.5762802989796234E-002
  -1.1999999999999927E-003    -3.7499294508578231E-002
  -9.9999999999988987E-005    -3.9176295836982920E-002
   1.0000000000000148E-003    -4.0774796474370011E-002
   2.1000000000000185E-003    -4.2275010799673871E-002
   3.2000000000000084E-003    -4.3656547600570542E-002
   4.3000000000000121E-003    -4.4898565979626937E-002
   5.4000000000000159E-003    -4.5979979038220348E-002
   6.5000000000000058E-003    -4.6879694675757977E-002
   7.6000000000000234E-003    -4.7576953524761323E-002
   8.7000000000000133E-003    -4.8051647489848429E-002
   9.8000000000000032E-003    -4.8284631292994332E-002
   1.0900000000000021E-002    -4.8257950440517859E-002
   1.2000000000000011E-002    -4.7955087566946782E-002
   1.3100000000000001E-002    -4.7361288237592329E-002
   1.4200000000000018E-002    -4.6463927743469718E-002
   1.5300000000000008E-002    -4.5252830281786172E-002
   1.6400000000000026E-002    -4.3720478558715775E-002
   1.7500000000000016E-002    -4.1862163443130262E-002
   1.8600000000000005E-002    -3.9676122326451436E-002
   1.9700000000000023E-002    -3.7163732185871254E-002
   2.0800000000000013E-002    -3.4329744319622268E-002
   2.1900000000000003E-002    -3.1182418277824725E-002
   2.3000000000000020E-002    -2.7733525233856308E-002
   2.4100000000000010E-002    -2.3998246278957500E-002
   2.5200000000000000E-002    -1.9995036041895817E-002
   2.6300000000000018E-002    -1.5745544391863105E-002
   2.7400000000000008E-002    -1.1274525533777356E-002
   2.8500000000000025E-002    -6.6096855711461353E-003
   2.9600000000000015E-002    -1.7813690196772799E-003
   3.0700000000000005E-002     3.1778329383691708E-003
   3.1800000000000023E-002     8.2334874371104410E-003
   3.2900000000000013E-002     1.3349637105449683E-002
   3.4000000000000002E-002     1.8489104164199660E-002
   3.5100000000000020E-002     2.3613868926561365E-002
   3.6200000000000010E-002     2.8685545852972061E-002
   3.7300000000000028E-002     3.3665938388434846E-002
   3.8400000000000017E-002     3.8517504941557187E-002
   3.9500000000000007E-002     4.3203750531778377E-002
   4.0600000000000025E-002     4.7689568117726108E-002
   4.1700000000000015E-002     5.1941632605324452E-002
   4.2800000000000005E-002     5.5928846345270740E-002
   4.3900000000000022E-002     5.9622777312290744E-002
   4.5000000000000012E-002     6.2997934445259515E-002
   4.6100000000000002E-002     6.6031969257430198E-002
   4.7200000000000020E-002     6.8705814883157842E-002
   4.8300000000000010E-002     7.1003836628032987E-002
   4.9400000000000027E-002     7.2914060235507200E-002
   5.0500000000000017E-002     7.4428298444694507E-002
   5.1600000000000007E-002     7.5542152550313255E-002
   5.2700000000000025E-002     7.6254889765646650E-002
   5.3800000000000014E-002     7.6569266784540124E-002
   5.4900000000000004E-002     7.6491436241038505E-002
   5.6000000000000022E-002     7.6030912108745130E-002
   5.7100000000000012E-002     7.5200453132383410E-002
   5.8200000000000002E-002     7.4015766595577015E-002
   5.9300000000000019E-002     7.2495128942037385E-002
   6.0400000000000009E-002     7.0659002298305004E-002
   6.1500000000000027E-002     6.8529756262264888E-002
   6.2600000000000017E-002     6.6131520259270243E-002
   6.3700000000000007E-002     6.3489892127035971E-002
   6.4800000000000024E-002     6.0631577759896325E-002
   6.5900000000000014E-002     5.7583923939930386E-002
   6.7000000000000004E-002     5.4374541867914343E-002
   6.8100000000000022E-002     5.1031079820590491E-002
   6.9200000000000012E-002     4.7581058100702116E-002
   7.0300000000000029E-002     4.4051691180286352E-002
   7.1400000000000019E-002     4.0469548127427278E-002
   7.2500000000000009E-002     3.6860212665330516E-002
   7.3600000000000027E-002     3.3247999549164846E-002
   7.4700000000000016E-002     2.9655836817525282E-002
   7.5800000000000006E-002     2.6105257239663230E-002
   7.6900000000000024E-002     2.2616328872807748E-002
   7.8000000000000014E-002     1.9207478643335170E-002
   7.9100000000000004E-002     1.5895313555490606E-002
   8.0200000000000021E-002     1.2694540133744117E-002
   8.1300000000000011E-002     9.6180400940915380E-003
   8.2400000000000029E-002     6.6769729901894719E-003
   8.3500000000000019E-002     3.8808240784522852E-003
   8.4600000000000009E-002     1.2373461257651362E-003
   8.5700000000000026E-002    -1.2474900837122374E-003
   8.6800000000000016E-002    -3.5694363115115770E-003
   8.7900000000000006E-002    -5.7257774217000313E-003
   8.9000000000000024E-002    -7.7151476515147487E-003
   9.0100000000000013E-002    -9.5374510626729751E-003
   9.1200000000000003E-002    -1.1193873392406474E-002
   9.2300000000000021E-002    -1.2686859836497522E-002
   9.3400000000000011E-002    -1.4019961292706613E-002
   9.4500000000000028E-002    -1.5197576881352351E-002
   9.5600000000000018E-002    -1.6224755128348565E-002
   9.6700000000000008E-002    -1.7107121077982373E-002
   9.7800000000000026E-002    -1.7850924358318566E-002
   9.8900000000000016E-002    -1.8463014289724088E-002
  0.10000000000000001         -1.8950680275553310E-002
  0.10110000000000002         -1.9321413591463495E-002
  0.10220000000000001         -1.9582728831420343E-002
  0.10330000000000003         -1.9742145874911698E-002
  0.10440000000000002         -1.9807271265929505E-002
  0.10550000000000001         -1.9785804833400412E-002
  0.10660000000000003         -1.9685401191727361E-002
  0.10770000000000002         -1.9513456724665212E-002
  0.10880000000000001         -1.9276985321431912E-002
  0.10990000000000003         -1.8982657178112261E-002
  0.11100000000000002         -1.8636921006946017E-002
  0.11210000000000001         -1.8246053007889045E-002
  0.11320000000000002         -1.7816043767057619E-002
  0.11430000000000001         -1.7352435964569556E-002
  0.11540000000000003         -1.6860265317858430E-002
  0.11650000000000002         -1.6344150853497962E-002
  0.11760000000000001         -1.5808430280463057E-002
  0.11870000000000003         -1.5257218939151796E-002
  0.11980000000000002         -1.4694313282230673E-002
  0.12090000000000001         -1.4123071134495690E-002
  0.12200000000000003         -1.3546399785844416E-002
  0.12310000000000001         -1.2966876270746856E-002
  0.12420000000000003         -1.2386891434513032E-002
  0.12530000000000002         -1.1808672525278573E-002
  0.12640000000000001         -1.1234194233017398E-002
  0.12750000000000003         -1.0665084566704506E-002
  0.12860000000000002         -1.0102655030075626E-002
  0.12970000000000001         -9.5480480300661075E-003
  0.13080000000000003         -9.0023597073864720E-003
  0.13190000000000002         -8.4666369915878878E-003
  0.13300000000000001         -7.9417642162279197E-003
  0.13410000000000000         -7.4283807350608352E-003
  0.13520000000000004         -6.9269349587272825E-003
  0.13630000000000003         -6.4378336869254614E-003
  0.13740000000000002         -5.9615467746097902E-003
  0.13850000000000001         -5.4985692198421332E-003
  0.13960000000000000         -5.0492896399196470E-003
  0.14070000000000005         -4.6139186543623931E-003
  0.14180000000000004         -4.1925568255358125E-003
  0.14290000000000003         -3.7853444855562523E-003
  0.14400000000000002         -3.3925430628841064E-003
  0.14510000000000001         -3.0144712371484271E-003
  0.14620000000000000         -2.6513692079141457E-003
  0.14730000000000004         -2.3033364512403511E-003
  0.14840000000000003         -1.9704094603691306E-003
  0.14950000000000002         -1.6526969737554113E-003
  0.15060000000000001         -1.3504304578274247E-003
  0.15170000000000000         -1.0638775159321954E-003
  0.15280000000000005         -7.9321008009860085E-004
  0.15390000000000004         -5.3846441242549729E-004
  0.15500000000000003         -2.9962810269815524E-004
  0.15610000000000002         -7.6758117137145238E-005
  0.15720000000000001          1.3000077995549376E-004
  0.15830000000000000          3.2052045910600845E-004
  0.15940000000000004          4.9480758530214268E-004
  0.16050000000000003          6.5301371536491187E-004
  0.16160000000000002          7.9533139585097660E-004
  0.16270000000000001          9.2188850178477014E-004
  0.16380000000000000          1.0327593681809621E-003
  0.16490000000000005          1.1280834711866338E-003
  0.16600000000000004          1.2081714545467989E-003
  0.16710000000000003          1.2734894912048208E-003
  0.16820000000000002          1.3245402987117942E-003
  0.16930000000000001          1.3617679071086619E-003
  0.17040000000000000          1.3855846743104881E-003
  0.17150000000000004          1.3964897343745897E-003
  0.17260000000000003          1.3951517718430327E-003
  0.17370000000000002          1.3823656343580791E-003
  0.17480000000000001          1.3589227432556270E-003
  0.17590000000000000          1.3255269726307254E-003
  0.17700000000000005          1.2828360716104772E-003
  0.17810000000000004          1.2315785578333178E-003
  0.17920000000000003          1.1726182546828025E-003
  0.18030000000000002          1.1068955281637455E-003
  0.18140000000000001          1.0353022186224518E-003
  0.18250000000000000          9.5861424395239354E-004
  0.18360000000000004          8.7754419493061230E-004
  0.18470000000000003          7.9284952815752551E-004
  0.18580000000000002          7.0537738016780423E-004
  0.18690000000000001          6.1599711072147113E-004
  0.18800000000000000          5.2548859512514378E-004
  0.18910000000000005          4.3449801385034661E-004
  0.19020000000000004          3.4359949779543312E-004
  0.19130000000000003          2.5338917060768084E-004
  0.19240000000000002          1.6450930736355010E-004
  0.19350000000000001          7.7577935087146758E-005
  0.19460000000000005         -6.8992888696578146E-006
  0.19570000000000004         -8.8541705631557977E-005
  0.19680000000000003         -1.6701961705261690E-004
  0.19790000000000002         -2.4197481502572686E-004
  0.19900000000000001         -3.1302050295517876E-004
  0.20010000000000000         -3.7981982014324535E-004
  0.20120000000000005         -4.4215885872532013E-004
  0.20230000000000004         -4.9993769302310428E-004
  0.20340000000000003         -5.5309119978281108E-004
  0.20450000000000002         -6.0152523559432324E-004
  0.20560000000000000         -6.4513572964859395E-004
  0.20670000000000005         -6.8388837708977814E-004
  0.20780000000000004         -7.1787290287737263E-004
  0.20890000000000003         -7.4727196566511643E-004
