 -0.12000000000000000          0.0000000000000000     
 -0.11889999999999999          0.0000000000000000     
 -0.11780000000000000          1.7570082854945213E-004
 -0.11670000000000000          2.9667609487660229E-004
 -0.11559999999999999         -2.8444678173400462E-004
 -0.11449999999999999         -1.5258657513186336E-003
 -0.11340000000000000         -1.9011363619938493E-003
 -0.11230000000000000          3.1476849108003080E-004
 -0.11119999999999999          4.4039986096322536E-003
 -0.11009999999999999          6.4795166254043579E-003
 -0.10900000000000000          2.7576850261539221E-003
 -0.10790000000000000         -5.6839082390069962E-003
 -0.10679999999999999         -1.2104554101824760E-002
 -0.10569999999999999         -9.6243619918823242E-003
 -0.10460000000000000          1.4482042752206326E-003
 -0.10349999999999999          1.2294574640691280E-002
 -0.10239999999999999          1.3055385090410709E-002
 -0.10130000000000000          2.6818665210157633E-003
 -0.10020000000000000         -8.9308870956301689E-003
  -9.9099999999999994E-002    -9.8512275144457817E-003
  -9.7999999999999990E-002     1.8791435286402702E-003
  -9.6899999999999986E-002     1.5191494487226009E-002
  -9.5799999999999996E-002     1.5821184962987900E-002
  -9.4699999999999993E-002     8.6092113633640110E-005
  -9.3599999999999989E-002    -2.0862579345703125E-002
  -9.2499999999999999E-002    -3.0889431014657021E-002
  -9.1399999999999995E-002    -2.3626504465937614E-002
  -9.0299999999999991E-002    -8.0947214737534523E-003
  -8.9200000000000002E-002    -1.4711369294673204E-004
  -8.8099999999999984E-002    -8.4034968167543411E-003
  -8.6999999999999994E-002    -2.8095811605453491E-002
  -8.5899999999999990E-002    -4.7714672982692719E-002
  -8.4799999999999986E-002    -6.0663286596536636E-002
  -8.3699999999999997E-002    -7.0083104074001312E-002
  -8.2599999999999993E-002    -8.2983165979385376E-002
  -8.1499999999999989E-002   -0.10097052901983261     
  -8.0399999999999999E-002   -0.11787033826112747     
  -7.9299999999999995E-002   -0.12700673937797546     
  -7.8199999999999992E-002   -0.13096424937248230     
  -7.7100000000000002E-002   -0.14407564699649811     
  -7.5999999999999984E-002   -0.18440127372741699     
  -7.4899999999999994E-002   -0.26102825999259949     
  -7.3799999999999991E-002   -0.36635509133338928     
  -7.2699999999999987E-002   -0.47940820455551147     
  -7.1599999999999997E-002   -0.57885664701461792     
  -7.0499999999999993E-002   -0.65813463926315308     
  -6.9399999999999989E-002   -0.73294270038604736     
  -6.8300000000000000E-002   -0.83513301610946655     
  -6.7199999999999996E-002   -0.99473112821578979     
  -6.6099999999999992E-002    -1.2216076850891113     
  -6.5000000000000002E-002    -1.5007435083389282     
  -6.3899999999999985E-002    -1.8067663908004761     
  -6.2799999999999995E-002    -2.1277875900268555     
  -6.1699999999999991E-002    -2.4785375595092773     
  -6.0599999999999994E-002    -2.8901038169860840     
  -5.9499999999999990E-002    -3.3849425315856934     
  -5.8399999999999994E-002    -3.9603486061096191     
  -5.7299999999999990E-002    -4.5983862876892090     
  -5.6199999999999986E-002    -5.2939143180847168     
  -5.5099999999999996E-002    -6.0728888511657715     
  -5.3999999999999992E-002    -6.9801044464111328     
  -5.2899999999999989E-002    -8.0455560684204102     
  -5.1799999999999985E-002    -9.2617397308349609     
  -5.0699999999999995E-002    -10.595372200012207     
  -4.9599999999999991E-002    -12.024194717407227     
  -4.8499999999999988E-002    -13.562376022338867     
  -4.7399999999999998E-002    -15.250041961669922     
  -4.6299999999999994E-002    -17.117967605590820     
  -4.5199999999999990E-002    -19.165771484375000     
  -4.4099999999999986E-002    -21.373559951782227     
  -4.2999999999999997E-002    -23.733699798583984     
  -4.1899999999999993E-002    -26.260803222656250     
  -4.0799999999999989E-002    -28.971256256103516     
  -3.9699999999999985E-002    -31.850069046020508     
  -3.8599999999999995E-002    -34.847900390625000     
  -3.7499999999999992E-002    -37.915950775146484     
  -3.6399999999999988E-002    -41.044025421142578     
  -3.5299999999999984E-002    -44.251014709472656     
  -3.4199999999999994E-002    -47.533874511718750     
  -3.3099999999999991E-002    -50.827770233154297     
  -3.1999999999999987E-002    -54.023845672607422     
  -3.0899999999999997E-002    -57.042053222656250     
  -2.9799999999999993E-002    -59.870334625244141     
  -2.8699999999999989E-002    -62.534332275390625     
  -2.7599999999999986E-002    -65.007484436035156     
  -2.6499999999999996E-002    -67.151840209960938     
  -2.5399999999999992E-002    -68.770835876464844     
  -2.4299999999999988E-002    -69.714241027832031     
  -2.3199999999999985E-002    -69.955665588378906     
  -2.2099999999999995E-002    -69.541030883789062     
  -2.0999999999999991E-002    -68.465087890625000     
  -1.9899999999999987E-002    -66.587074279785156     
  -1.8799999999999983E-002    -63.682422637939453     
  -1.7699999999999994E-002    -59.591102600097656     
  -1.6599999999999990E-002    -54.299194335937500     
  -1.5499999999999986E-002    -47.893684387207031     
  -1.4399999999999996E-002    -40.415164947509766     
  -1.3299999999999992E-002    -31.768350601196289     
  -1.2199999999999989E-002    -21.762723922729492     
  -1.1099999999999985E-002    -10.305776596069336     
  -9.9999999999999950E-003     2.5268738269805908     
  -8.8999999999999913E-003     16.543228149414062     
  -7.7999999999999875E-003     31.593063354492188     
  -6.6999999999999837E-003     47.663932800292969     
  -5.5999999999999939E-003     64.779846191406250     
  -4.4999999999999901E-003     82.877799987792969     
  -3.3999999999999864E-003     101.71044921875000     
  -2.2999999999999826E-003     120.96265411376953     
  -1.1999999999999927E-003     140.39428710937500     
  -9.9999999999988987E-005     159.88018798828125     
   1.0000000000000148E-003     179.31007385253906     
   2.1000000000000185E-003     198.45469665527344     
   3.2000000000000084E-003     216.92121887207031     
   4.3000000000000121E-003     234.29951477050781     
   5.4000000000000159E-003     250.30674743652344     
   6.5000000000000058E-003     264.78372192382812     
   7.6000000000000234E-003     277.57775878906250     
   8.7000000000000133E-003     288.38931274414062     
   9.8000000000000032E-003     296.80328369140625     
   1.0900000000000021E-002     302.44262695312500     
   1.2000000000000011E-002     305.16229248046875     
   1.3100000000000001E-002     305.00305175781250     
   1.4200000000000018E-002     301.97595214843750     
   1.5300000000000008E-002     295.90692138671875     
   1.6400000000000026E-002     286.50234985351562     
   1.7500000000000016E-002     273.57791137695312     
   1.8600000000000005E-002     257.25921630859375     
   1.9700000000000023E-002     237.88145446777344     
   2.0800000000000013E-002     215.74882507324219     
   2.1900000000000003E-002     190.93698120117188     
   2.3000000000000020E-002     163.38557434082031     
   2.4100000000000010E-002     133.19215393066406     
   2.5200000000000000E-002     100.78185272216797     
   2.6300000000000018E-002     66.793594360351562     
   2.7400000000000008E-002     31.775640487670898     
   2.8500000000000025E-002    -3.9882662296295166     
   2.9600000000000015E-002    -40.374156951904297     
   3.0700000000000005E-002    -77.112045288085938     
   3.1800000000000023E-002    -113.65011596679688     
   3.2900000000000013E-002    -149.25852966308594     
   3.4000000000000002E-002    -183.37289428710938     
   3.5100000000000020E-002    -215.72856140136719     
   3.6200000000000010E-002    -246.22148132324219     
   3.7300000000000028E-002    -274.61068725585938     
   3.8400000000000017E-002    -300.40374755859375     
   3.9500000000000007E-002    -323.05239868164062     
   4.0600000000000025E-002    -342.21505737304688     
   4.1700000000000015E-002    -357.88995361328125     
   4.2800000000000005E-002    -370.20227050781250     
   4.3900000000000022E-002    -379.08663940429688     
   4.5000000000000012E-002    -384.29553222656250     
   4.6100000000000002E-002    -385.56878662109375     
   4.7200000000000020E-002    -382.96969604492188     
   4.8300000000000010E-002    -376.87731933593750     
   4.9400000000000027E-002    -367.70104980468750     
   5.0500000000000017E-002    -355.59869384765625     
   5.1600000000000007E-002    -340.49078369140625     
   5.2700000000000025E-002    -322.37573242187500     
   5.3800000000000014E-002    -301.59906005859375     
   5.4900000000000004E-002    -278.82586669921875     
   5.6000000000000022E-002    -254.63027954101562     
   5.7100000000000012E-002    -229.25555419921875     
   5.8200000000000002E-002    -202.66528320312500     
   5.9300000000000019E-002    -174.95506286621094     
   6.0400000000000009E-002    -146.58036804199219     
   6.1500000000000027E-002    -118.28828430175781     
   6.2600000000000017E-002    -90.641235351562500     
   6.3700000000000007E-002    -63.782272338867188     
   6.4800000000000024E-002    -37.552764892578125     
   6.5900000000000014E-002    -11.926161766052246     
   6.7000000000000004E-002     12.692146301269531     
   6.8100000000000022E-002     35.677211761474609     
   6.9200000000000012E-002     56.630035400390625     
   7.0300000000000029E-002     75.620964050292969     
   7.1400000000000019E-002     92.985054016113281     
   7.2500000000000009E-002     108.86961364746094     
   7.3600000000000027E-002     123.00211334228516     
   7.4700000000000016E-002     134.93348693847656     
   7.5800000000000006E-002     144.49372863769531     
   7.6900000000000024E-002     151.96009826660156     
   7.8000000000000014E-002     157.80502319335938     
   7.9100000000000004E-002     162.25022888183594     
   8.0200000000000021E-002     165.11393737792969     
   8.1300000000000011E-002     166.09899902343750     
   8.2400000000000029E-002     165.22575378417969     
   8.3500000000000019E-002     162.92584228515625     
   8.4600000000000009E-002     159.71209716796875     
   8.5700000000000026E-002     155.76683044433594     
   8.6800000000000016E-002     150.87182617187500     
   8.7900000000000006E-002     144.79550170898438     
   8.9000000000000024E-002     137.67681884765625     
   9.0100000000000013E-002     130.03230285644531     
   9.1200000000000003E-002     122.33316802978516     
   9.2300000000000021E-002     114.63617706298828     
   9.3400000000000011E-002     106.63979339599609     
   9.4500000000000028E-002     98.119674682617188     
   9.5600000000000018E-002     89.283187866210938     
   9.6700000000000008E-002     80.673492431640625     
   9.7800000000000026E-002     72.679557800292969     
   9.8900000000000016E-002     65.203926086425781     
  0.10000000000000001          57.818897247314453     
  0.10110000000000002          50.276283264160156     
  0.10220000000000001          42.817260742187500     
  0.10330000000000003          35.976989746093750     
  0.10440000000000002          30.061426162719727     
  0.10550000000000001          24.847475051879883     
  0.10660000000000003          19.825471878051758     
  0.10770000000000002          14.748183250427246     
  0.10880000000000001          9.8756580352783203     
  0.10990000000000003          5.7205548286437988     
  0.11100000000000002          2.5023849010467529     
  0.11210000000000001         -9.6770361065864563E-002
  0.11320000000000002         -2.6069552898406982     
  0.11430000000000001         -5.2480735778808594     
  0.11540000000000003         -7.7223324775695801     
  0.11650000000000002         -9.5491619110107422     
  0.11760000000000001         -10.595517158508301     
  0.11870000000000003         -11.242020606994629     
  0.11980000000000002         -11.999464988708496     
  0.12090000000000001         -13.005583763122559     
  0.12200000000000003         -13.904228210449219     
  0.12310000000000001         -14.253442764282227     
  0.12420000000000003         -14.010568618774414     
  0.12530000000000002         -13.595561027526855     
  0.12640000000000001         -13.467424392700195     
  0.12750000000000003         -13.654643058776855     
  0.12860000000000002         -13.749290466308594     
  0.12970000000000001         -13.352620124816895     
  0.13080000000000003         -12.519483566284180     
  0.13190000000000002         -11.710646629333496     
  0.13300000000000001         -11.314746856689453     
  0.13410000000000000         -11.247783660888672     
  0.13520000000000004         -11.047042846679688     
  0.13630000000000003         -10.373027801513672     
  0.13740000000000002         -9.3770322799682617     
  0.13850000000000001         -8.5471801757812500     
  0.13960000000000000         -8.2009010314941406     
  0.14070000000000005         -8.1495189666748047     
  0.14180000000000004         -7.9010601043701172     
  0.14290000000000003         -7.1827526092529297     
  0.14400000000000002         -6.2359805107116699     
  0.14510000000000001         -5.5639066696166992     
  0.14620000000000000         -5.4052882194519043     
  0.14730000000000004         -5.4841861724853516     
  0.14840000000000003         -5.3036065101623535     
  0.14950000000000002         -4.6700215339660645     
  0.15060000000000001         -3.9003105163574219     
  0.15170000000000000         -3.4882273674011230     
  0.15280000000000005         -3.5821790695190430     
  0.15390000000000004         -3.8251364231109619     
  0.15500000000000003         -3.7300014495849609     
  0.15610000000000002         -3.1881654262542725     
  0.15720000000000001         -2.5841534137725830     
  0.15830000000000000         -2.3893737792968750     
  0.15940000000000004         -2.6637117862701416     
  0.16050000000000003         -2.9915032386779785     
  0.16160000000000002         -2.9165616035461426     
  0.16270000000000001         -2.4182579517364502     
  0.16380000000000000         -1.9310766458511353     
  0.16490000000000005         -1.8852303028106689     
  0.16600000000000004         -2.2532784938812256     
  0.16710000000000003         -2.5794117450714111     
  0.16820000000000002         -2.4560458660125732     
  0.16930000000000001         -1.9474756717681885     
  0.17040000000000000         -1.5182071924209595     
  0.17150000000000004         -1.5432938337326050     
  0.17260000000000003         -1.9161524772644043     
  0.17370000000000002         -2.1658904552459717     
  0.17480000000000001         -1.9538775682449341     
  0.17590000000000000         -1.4278678894042969     
  0.17700000000000005         -1.0639322996139526     
  0.17810000000000004         -1.1669985055923462     
  0.17920000000000003         -1.5561766624450684     
  0.18030000000000002         -1.7601302862167358     
  0.18140000000000001         -1.5126590728759766     
  0.18250000000000000         -1.0255901813507080     
  0.18360000000000004        -0.75706702470779419     
  0.18470000000000003        -0.92600870132446289     
  0.18580000000000002         -1.2851477861404419     
  0.18690000000000001         -1.3880778551101685     
  0.18800000000000000         -1.0617972612380981     
  0.18910000000000005        -0.58669042587280273     
  0.19020000000000004        -0.39657124876976013     
  0.19130000000000003        -0.62217837572097778     
  0.19240000000000002        -0.95736956596374512     
  0.19350000000000001        -0.98563575744628906     
  0.19460000000000005        -0.61690151691436768     
  0.19570000000000004        -0.17694650590419769     
  0.19680000000000003         -5.7729620486497879E-002
  0.19790000000000002        -0.30492195487022400     
  0.19900000000000001        -0.57288950681686401     
  0.20010000000000000        -0.49470248818397522     
  0.20120000000000005         -7.0069901645183563E-002
  0.20230000000000004         0.33365225791931152     
  0.20340000000000003         0.36567795276641846     
  0.20450000000000002          5.3537722676992416E-002
  0.20560000000000000        -0.23288966715335846     
  0.20670000000000005        -0.17230056226253510     
  0.20780000000000004         0.17577126622200012     
  0.20890000000000003         0.44214367866516113     
