 -0.12000000000000000          0.0000000000000000
 -0.11889999999999999          0.0000000000000000
 -0.11780000000000000          0.0000000000000000
 -0.11670000000000000          0.0000000000000000
 -0.11559999999999999          0.0000000000000000
 -0.11449999999999999          0.0000000000000000
 -0.11340000000000000          0.0000000000000000
 -0.11230000000000000          0.0000000000000000
 -0.11119999999999999          0.0000000000000000
 -0.11009999999999999          0.0000000000000000
 -0.10900000000000000          0.0000000000000000
 -0.10790000000000000         -1.8620614532372278E-026
 -0.10679999999999999         -2.3248108527224332E-025
 -0.10569999999999999         -1.2559038673368302E-024
 -0.10460000000000000         -3.1669396849031418E-024
 -0.10349999999999999          1.4061073892039600E-024
 -0.10239999999999999          4.1898376752111572E-023
 -0.10130000000000000          1.6229499156296254E-022
 -0.10020000000000000          2.9939516385778234E-022
  -9.9099999999999994E-002    -2.1897933600915675E-023
  -9.7999999999999990E-002    -1.8726613000513079E-021
  -9.6899999999999986E-002    -5.9141505882415637E-021
  -9.5799999999999996E-002    -8.9736374173945679E-021
  -9.4699999999999993E-002     3.2240104039153127E-022
  -9.3599999999999989E-002     3.8807679466868349E-020
  -9.2499999999999999E-002     1.0615235985775937E-019
  -9.1399999999999995E-002     1.4149835665789000E-019
  -9.0299999999999991E-002    -1.3021343170068831E-021
  -8.9200000000000002E-002    -4.7312734673500575E-019
  -8.8099999999999984E-002    -1.1768426972487901E-018
  -8.6999999999999994E-002    -1.4483257058891330E-018
  -8.5899999999999990E-002    -7.0193243497520277E-020
  -8.4799999999999986E-002     3.8507415257618125E-018
  -8.3699999999999997E-002     9.0868713868501057E-018
  -8.2599999999999993E-002     1.0761197711674666E-017
  -8.1499999999999989E-002     1.5407259327683298E-018
  -8.0399999999999999E-002    -2.2418640178826442E-017
  -7.9299999999999995E-002    -5.2343737825579747E-017
  -7.8199999999999992E-002    -6.1882630606572913E-017
  -7.7100000000000002E-002    -1.6803235623237780E-017
  -7.5999999999999984E-002     9.6153543903096267E-017
  -7.4899999999999994E-002     2.3380421772863783E-016
  -7.3799999999999991E-002     2.8589803554983909E-016
  -7.2699999999999987E-002     1.2246864153173819E-016
  -7.1599999999999997E-002    -2.9917529792936720E-016
  -7.0499999999999993E-002    -8.2366787694148926E-016
  -6.9399999999999989E-002    -1.0835029480005760E-015
  -6.8300000000000000E-002    -6.6192846520409574E-016
  -6.7199999999999996E-002     5.9325077168493568E-016
  -6.6099999999999992E-002     2.2762580538239669E-015
  -6.5000000000000002E-002     3.3988282510191069E-015
  -6.3899999999999985E-002     2.7952516020757935E-015
  -6.2799999999999995E-002    -1.3385557869997535E-016
  -6.1699999999999991E-002    -4.7122707227743593E-015
  -6.0599999999999994E-002    -8.8058207748057539E-015
  -5.9499999999999990E-002    -9.4946129619623689E-015
  -5.8399999999999994E-002    -4.5243784577944615E-015
  -5.7299999999999990E-002     5.9968361926140134E-015
  -5.6199999999999986E-002     1.8502229945233378E-014
  -5.5099999999999996E-002     2.6346437358338962E-014
  -5.3999999999999992E-002     2.2197216142563030E-014
  -5.2899999999999989E-002     2.1701763771505843E-015
  -5.1799999999999985E-002    -2.9793741532731672E-014
  -5.0699999999999995E-002    -6.0017570494741363E-014
  -4.9599999999999991E-002    -6.8531181611942030E-014
  -4.8499999999999988E-002    -3.8812406774584400E-014
  -4.7399999999999998E-002     2.9336159727125492E-014
  -4.6299999999999994E-002     1.1124854646248643E-013
  -4.5199999999999990E-002     1.6165708302212480E-013
  -4.4099999999999986E-002     1.3510946452148569E-013
  -4.2999999999999997E-002     1.5654059899551958E-014
  -4.1899999999999993E-002    -1.6075940859353253E-013
  -4.0799999999999989E-002    -3.0912442361113465E-013
  -3.9699999999999985E-002    -3.3054457531465729E-013
  -3.8599999999999995E-002    -1.6765136628841241E-013
  -3.7499999999999992E-002     1.4807936580787020E-013
  -3.6399999999999988E-002     4.8745158060336480E-013
  -3.5299999999999984E-002     6.6754784787799364E-013
  -3.4199999999999994E-002     5.3660023988560675E-013
  -3.3099999999999991E-002     6.4437781220911500E-014
  -3.1999999999999987E-002    -6.0550323004611671E-013
  -3.0899999999999997E-002    -1.1771887906905900E-012
  -2.9799999999999993E-002    -1.3061626191999134E-012
  -2.8699999999999989E-002    -7.6319399352974800E-013
  -2.7599999999999986E-002     4.0223743224973415E-013
  -2.6499999999999996E-002     1.7832696087212816E-012
  -2.5399999999999992E-002     2.7000520320295642E-012
  -2.4299999999999988E-002     2.4699737284573912E-012
  -2.3199999999999985E-002     7.8747076072870895E-013
  -2.2099999999999995E-002    -1.9623819179626570E-012
  -2.0999999999999991E-002    -4.6645518507101780E-012
  -1.9899999999999987E-002    -5.8315216394114350E-012
  -1.8799999999999983E-002    -4.2891106867196444E-012
  -1.7699999999999994E-002     8.6897119505685711E-014
  -1.6599999999999990E-002     5.9674117390181112E-012
  -1.5499999999999986E-002     1.0805829081658931E-011
  -1.4399999999999996E-002     1.1765419994931390E-011
  -1.3299999999999992E-002     7.0621984366250019E-012
  -1.2199999999999989E-002    -2.8173916976113546E-012
  -1.1099999999999985E-002    -1.4644889766713770E-011
  -9.9999999999999950E-003    -2.3174294966923264E-011
  -8.8999999999999913E-003    -2.3091132934264198E-011
  -7.7999999999999875E-003    -1.1632979216025282E-011
  -6.6999999999999837E-003     9.2066429042083384E-012
  -5.5999999999999939E-003     3.2163857435387193E-011
  -4.4999999999999901E-003     4.6717547323219022E-011
  -3.3999999999999864E-003     4.3392170911317809E-011
  -2.2999999999999826E-003     1.8780991317341896E-011
  -1.1999999999999927E-003    -2.1152461192978162E-011
  -9.9999999999988987E-005    -6.1675233708341211E-011
   1.0000000000000148E-003    -8.4407813924625933E-011
   2.1000000000000185E-003    -7.5326274842356153E-011
   3.2000000000000084E-003    -3.2181756673813842E-011
   4.3000000000000121E-003     3.2421328560199721E-011
   5.4000000000000159E-003     9.4455080898303843E-011
   6.5000000000000058E-003     1.2770117432572235E-010
   7.6000000000000234E-003     1.1522870939513316E-010
   8.7000000000000133E-003     5.8069105644432091E-011
   9.8000000000000032E-003    -2.3303579242431901E-011
   1.0900000000000021E-002    -9.6364192506592388E-011
   1.2000000000000011E-002    -1.3062826708204094E-010
   1.3100000000000001E-002    -1.1277103908703934E-010
   1.4200000000000018E-002    -5.5552512707174310E-011
   1.5300000000000008E-002     5.1336979574508009E-012
   1.6400000000000026E-002     2.6142614627100023E-011
   1.7500000000000016E-002    -1.9261873664288428E-011
   1.8600000000000005E-002    -1.2021114012888568E-010
   1.9700000000000023E-002    -2.2094986046097508E-010
   2.0800000000000013E-002    -2.3489035829514623E-010
   2.1900000000000003E-002    -7.9143648081121354E-011
   2.3000000000000020E-002     2.8080375532467793E-010
   2.4100000000000010E-002     7.9341938709464308E-010
   2.5200000000000000E-002     1.3087447134857642E-009
   2.6300000000000018E-002     1.6037965464525120E-009
   2.7400000000000008E-002     1.4463666985050741E-009
   2.8500000000000025E-002     6.8277435664313687E-010
   2.9600000000000015E-002    -6.7831911108470433E-010
   3.0700000000000005E-002    -2.4196764299927470E-009
   3.1800000000000023E-002    -4.1332592071759932E-009
   3.2900000000000013E-002    -5.3073030028452496E-009
   3.4000000000000002E-002    -5.4592034726968597E-009
   3.5100000000000020E-002    -4.2674819954823465E-009
   3.6200000000000010E-002    -1.6527441588445407E-009
   3.7300000000000028E-002     2.2191279608737244E-009
   3.8400000000000017E-002     6.9961079440965219E-009
   3.9500000000000007E-002     1.2206219320348966E-008
   4.0600000000000025E-002     1.7262731217184049E-008
   4.1700000000000015E-002     2.1367358311887547E-008
   4.2800000000000005E-002     2.3328251617887714E-008
   4.3900000000000022E-002     2.1368650420127844E-008
   4.5000000000000012E-002     1.3027825349685725E-008
   4.6100000000000002E-002    -4.7718878246271399E-009
   4.7200000000000020E-002    -3.5491319881378587E-008
   4.8300000000000010E-002    -8.2658023842781042E-008
   4.9400000000000027E-002    -1.4960491993117325E-007
   5.0500000000000017E-002    -2.3939785308651598E-007
   5.1600000000000007E-002    -3.5502607800016166E-007
   5.2700000000000025E-002    -4.9984566959055574E-007
   5.3800000000000014E-002    -6.7819689039311378E-007
   5.4900000000000004E-002    -8.9609177485821431E-007
   5.6000000000000022E-002    -1.1618809960459034E-006
   5.7100000000000012E-002    -1.4868467973719819E-006
   5.8200000000000002E-002    -1.8856935806269202E-006
   5.9300000000000019E-002    -2.3769274858714522E-006
   6.0400000000000009E-002    -2.9831350738912789E-006
   6.1500000000000027E-002    -3.7312181688439555E-006
   6.2600000000000017E-002    -4.6527042671482255E-006
   6.3700000000000007E-002    -5.7843185296584017E-006
   6.4800000000000024E-002    -7.1689807548424392E-006
   6.5900000000000014E-002    -8.8572927173412463E-006
   6.7000000000000004E-002    -1.0909407370620626E-005
   6.8100000000000022E-002    -1.3397011922523629E-005
   6.9200000000000012E-002    -1.6405128487756607E-005
   7.0300000000000029E-002    -2.0033595598724379E-005
   7.1400000000000019E-002    -2.4398369809232390E-005
   7.2500000000000009E-002    -2.9633054418913941E-005
   7.3600000000000027E-002    -3.5891096245332009E-005
   7.4700000000000016E-002    -4.3348936620284307E-005
   7.5800000000000006E-002    -5.2209979587771984E-005
   7.6900000000000024E-002    -6.2708870166386466E-005
   7.8000000000000014E-002    -7.5115411359739730E-005
   7.9100000000000004E-002    -8.9737671325103240E-005
   8.0200000000000021E-002    -1.0692432810381635E-004
   8.1300000000000011E-002    -1.2706669920674161E-004
   8.2400000000000029E-002    -1.5060133778589793E-004
   8.3500000000000019E-002    -1.7801364526793241E-004
   8.4600000000000009E-002    -2.0984254175865759E-004
   8.5700000000000026E-002    -2.4668578160083084E-004
   8.6800000000000016E-002    -2.8920463949826840E-004
   8.7900000000000006E-002    -3.3812729318534392E-004
   8.9000000000000024E-002    -3.9425034315608202E-004
   9.0100000000000013E-002    -4.5843878502158580E-004
   9.1200000000000003E-002    -5.3162474113870105E-004
   9.2300000000000021E-002    -6.1480588176589040E-004
   9.3400000000000011E-002    -7.0904344170075455E-004
   9.4500000000000028E-002    -8.1546004653565787E-004
   9.5600000000000018E-002    -9.3523614668526256E-004
   9.6700000000000008E-002    -1.0696046409833977E-003
   9.7800000000000026E-002    -1.2198428901941346E-003
   9.8900000000000016E-002    -1.3872624531695275E-003
  0.10000000000000001         -1.5731948488991502E-003
  0.10110000000000002         -1.7789761313228279E-003
  0.10220000000000001         -2.0059276503342281E-003
  0.10330000000000003         -2.2553347721787427E-003
  0.10440000000000002         -2.5284228130101742E-003
  0.10550000000000001         -2.8263311624585024E-003
  0.10660000000000003         -3.1500858054931465E-003
  0.10770000000000002         -3.5005681214969608E-003
  0.10880000000000001         -3.8784844298317537E-003
  0.10990000000000003         -4.2843301867938376E-003
  0.11100000000000002         -4.7183542632067430E-003
  0.11210000000000001         -5.1805195168375005E-003
  0.11320000000000002         -5.6704661843904446E-003
  0.11430000000000001         -6.1874733191385920E-003
  0.11540000000000003         -6.7304257230650488E-003
  0.11650000000000002         -7.2977792246252367E-003
  0.11760000000000001         -7.8875352109874439E-003
  0.11870000000000003         -8.4972124876835191E-003
  0.11980000000000002         -9.1238239904639553E-003
  0.12090000000000001         -9.7638611393934850E-003
  0.12200000000000003         -1.0413274869429095E-002
  0.12310000000000001         -1.1067478892535815E-002
  0.12420000000000003         -1.1721354481134908E-002
  0.12530000000000002         -1.2369265666325268E-002
  0.12640000000000001         -1.3005092790788052E-002
  0.12750000000000003         -1.3622268197000293E-002
  0.12860000000000002         -1.4213823656420781E-002
  0.12970000000000001         -1.4772446259496131E-002
  0.13080000000000003         -1.5290541966815414E-002
  0.13190000000000002         -1.5760315281585873E-002
  0.13300000000000001         -1.6173857387111454E-002
  0.13410000000000000         -1.6523243490843730E-002
  0.13520000000000004         -1.6800649114984460E-002
  0.13630000000000003         -1.6998458723514166E-002
  0.13740000000000002         -1.7109387807111433E-002
  0.13850000000000001         -1.7126603435809688E-002
  0.13960000000000000         -1.7043843343246230E-002
  0.14070000000000005         -1.6855539012601173E-002
  0.14180000000000004         -1.6556933524837638E-002
  0.14290000000000003         -1.6144195575726415E-002
  0.14400000000000002         -1.5614524657540171E-002
  0.14510000000000001         -1.4966253615146143E-002
  0.14620000000000000         -1.4198930025736746E-002
  0.14730000000000004         -1.3313383470166118E-002
  0.14840000000000003         -1.2311776662349403E-002
  0.14950000000000002         -1.1197632764489610E-002
  0.15060000000000001         -9.9758508455264419E-003
  0.15170000000000000         -8.6526974500092824E-003
  0.15280000000000005         -7.2357732244495215E-003
  0.15390000000000004         -5.7339641803298312E-003
  0.15500000000000003         -4.1573632322935462E-003
  0.15610000000000002         -2.5171698549531583E-003
  0.15720000000000001         -8.2557654679025008E-004
  0.15830000000000000          9.0437027708420306E-004
  0.15940000000000004          2.6589165040432185E-003
  0.16050000000000003          4.4237648885507783E-003
  0.16160000000000002          6.1842544509079986E-003
  0.16270000000000001          7.9255486546890175E-003
  0.16380000000000000          9.6328331959764802E-003
  0.16490000000000005          1.1291515463839146E-002
  0.16600000000000004          1.2887417536291083E-002
  0.16710000000000003          1.4406964601207129E-002
  0.16820000000000002          1.5837364327625635E-002
  0.16930000000000001          1.7166770618688022E-002
  0.17040000000000000          1.8384438143267755E-002
  0.17150000000000004          1.9480857280064077E-002
  0.17260000000000003          2.0447875167300213E-002
  0.17370000000000002          2.1278787904792641E-002
  0.17480000000000001          2.1968425735007669E-002
  0.17590000000000000          2.2513200185831510E-002
  0.17700000000000005          2.2911126810122966E-002
  0.17810000000000004          2.3161822056422386E-002
  0.17920000000000003          2.3266474196685670E-002
  0.18030000000000002          2.3227790583006679E-002
  0.18140000000000001          2.3049924066411671E-002
  0.18250000000000000          2.2738377582548010E-002
  0.18360000000000004          2.2299901500267935E-002
  0.18470000000000003          2.1742362745939388E-002
  0.18580000000000002          2.1074616364460501E-002
  0.18690000000000001          2.0306355709824222E-002
  0.18800000000000000          1.9447960035226561E-002
  0.18910000000000005          1.8510329390382625E-002
  0.19020000000000004          1.7504719627654670E-002
  0.19130000000000003          1.6442577779320570E-002
  0.19240000000000002          1.5335385149020548E-002
  0.19350000000000001          1.4194507678366145E-002
  0.19460000000000005          1.3031059339703869E-002
  0.19570000000000004          1.1855782994191303E-002
  0.19680000000000003          1.0678939634519633E-002
  0.19790000000000002          9.5102038005943912E-003
  0.19900000000000001          8.3585769137950704E-003
  0.20010000000000000          7.2323109949822984E-003
  0.20120000000000005          6.1388510574616273E-003
  0.20230000000000004          5.0847944238822116E-003
  0.20340000000000003          4.0758687126567017E-003
  0.20450000000000002          3.1169253447829452E-003
  0.20560000000000000          2.2119435005371457E-003
  0.20670000000000005          1.3640524821081550E-003
  0.20780000000000004          5.7555916644330652E-004
  0.20890000000000003         -1.5200993141362140E-004
