 -0.12000000000000000          0.0000000000000000     
 -0.11889999999999999          0.0000000000000000     
 -0.11780000000000000          0.0000000000000000     
 -0.11670000000000000          0.0000000000000000     
 -0.11559999999999999          0.0000000000000000     
 -0.11449999999999999          0.0000000000000000     
 -0.11340000000000000         -2.5329530072576037E-023
 -0.11230000000000000         -3.1841614907580375E-016
 -0.11119999999999999         -2.2528766114600753E-015
 -0.11009999999999999         -4.5913289615812525E-015
 -0.10900000000000000          1.1094252889954324E-014
 -0.10790000000000000          8.5399820082352612E-014
 -0.10679999999999999          1.9858759276770999E-013
 -0.10569999999999999          7.2923668514336681E-014
 -0.10460000000000000         -8.4122753251161808E-013
 -0.10349999999999999         -2.5666400428614455E-012
 -0.10239999999999999         -2.9965275052945550E-012
 -0.10130000000000000          2.3731385780101366E-012
 -0.10020000000000000          1.5761083410614773E-011
  -9.9099999999999994E-002     2.7672954205915090E-011
  -9.7999999999999990E-002     1.3142039539948414E-011
  -9.6899999999999986E-002    -4.9615200836683471E-011
  -9.5799999999999996E-002    -1.3678044807896583E-010
  -9.4699999999999993E-002    -1.5079197612788420E-010
  -9.3599999999999989E-002     2.9089924913350274E-011
  -9.2499999999999999E-002     3.9880121427415816E-010
  -9.1399999999999995E-002     6.9157368720595969E-010
  -9.0299999999999991E-002     4.5621051381061761E-010
  -8.9200000000000002E-002    -5.4336501964513673E-010
  -8.8099999999999984E-002    -1.8414805236233178E-009
  -8.6999999999999994E-002    -2.2438686464454349E-009
  -8.5899999999999990E-002    -6.5183392017331698E-010
  -8.4799999999999986E-002     2.6423627730309818E-009
  -8.3699999999999997E-002     5.3981912273570742E-009
  -8.2599999999999993E-002     4.6990802360369344E-009
  -8.1499999999999989E-002    -3.6033176442629156E-010
  -8.0399999999999999E-002    -6.8493246629941495E-009
  -7.9299999999999995E-002    -9.4776790859896209E-009
  -7.8199999999999992E-002    -5.1869544215321639E-009
  -7.7100000000000002E-002     2.9985165461710039E-009
  -7.5999999999999984E-002     7.5459505310959685E-009
  -7.4899999999999994E-002     3.7587746248846088E-009
  -7.3799999999999991E-002    -3.4761538092453748E-009
  -7.2699999999999987E-002    -2.0404762324233161E-009
  -7.1599999999999997E-002     1.4558350969195999E-008
  -7.0499999999999993E-002     3.4492803280272710E-008
  -6.9399999999999989E-002     3.0767385084118359E-008
  -6.8300000000000000E-002    -1.5179892898231628E-008
  -6.7199999999999996E-002    -8.6256889630931255E-008
  -6.6099999999999992E-002    -1.2755175760048587E-007
  -6.5000000000000002E-002    -8.3051745036755165E-008
  -6.3899999999999985E-002     5.0517716232434395E-008
  -6.2799999999999995E-002     2.0017293422824878E-007
  -6.1699999999999991E-002     2.5629321953601902E-007
  -6.0599999999999994E-002     1.5597456126670295E-007
  -5.9499999999999990E-002    -5.6390263125649653E-008
  -5.8399999999999994E-002    -2.5082024990297214E-007
  -5.7299999999999990E-002    -3.0861781397106824E-007
  -5.6199999999999986E-002    -2.1514441073122725E-007
  -5.5099999999999996E-002    -6.2869709438473365E-008
  -5.3999999999999992E-002     4.3413866279706781E-008
  -5.2899999999999989E-002     9.0509402639327163E-008
  -5.1799999999999985E-002     1.6136321789872454E-007
  -5.0699999999999995E-002     3.2245702641375829E-007
  -4.9599999999999991E-002     5.0145467866968829E-007
  -4.8499999999999988E-002     4.9615351827014820E-007
  -4.7399999999999998E-002     1.4494077049675980E-007
  -4.6299999999999994E-002    -4.7758413757037488E-007
  -4.5199999999999990E-002    -1.0354598316553165E-006
  -4.4099999999999986E-002    -1.1436899285399704E-006
  -4.2999999999999997E-002    -6.6666166276263539E-007
  -4.1899999999999993E-002     1.5282478216249729E-007
  -4.0799999999999989E-002     8.6157996292968164E-007
  -3.9699999999999985E-002     1.1278846159257228E-006
  -3.8599999999999995E-002     9.5111988684948301E-007
  -3.7499999999999992E-002     5.7440638556727208E-007
  -3.6399999999999988E-002     2.0719051008200040E-007
  -3.5299999999999984E-002    -1.5364973648956948E-007
  -3.4199999999999994E-002    -6.2120830079948064E-007
  -3.3099999999999991E-002    -1.1510917374835117E-006
  -3.1999999999999987E-002    -1.4201166322891368E-006
  -3.0899999999999997E-002    -1.0390002671556431E-006
  -2.9799999999999993E-002     5.2889106427755905E-008
  -2.8699999999999989E-002     1.3847491118212929E-006
  -2.7599999999999986E-002     2.1819801077072043E-006
  -2.6499999999999996E-002     1.8775965600070776E-006
  -2.5399999999999992E-002     4.9383226041754824E-007
  -2.4299999999999988E-002    -1.4027242514202953E-006
  -2.3199999999999985E-002    -3.0797041290497873E-006
  -2.2099999999999995E-002    -3.9825722524255980E-006
  -2.0999999999999991E-002    -3.7811410038557369E-006
  -1.9899999999999987E-002    -2.2153662939672358E-006
  -1.8799999999999983E-002     9.5071561645454494E-007
  -1.7699999999999994E-002     5.7313845900353044E-006
  -1.6599999999999990E-002     1.1709803402482066E-005
  -1.5499999999999986E-002     1.8174616343458183E-005
  -1.4399999999999996E-002     2.4644605218782090E-005
  -1.3299999999999992E-002     3.1360152206616476E-005
  -1.2199999999999989E-002     3.9229409594554454E-005
  -1.1099999999999985E-002     4.9184876843355596E-005
  -9.9999999999999950E-003     6.1523707699961960E-005
  -8.8999999999999913E-003     7.5928786827716976E-005
  -7.7999999999999875E-003     9.2283065896481276E-005
  -6.6999999999999837E-003     1.1159804853377864E-004
  -5.5999999999999939E-003     1.3616467185784131E-004
  -4.4999999999999901E-003     1.6867886006366462E-004
  -3.3999999999999864E-003     2.1104341431055218E-004
  -2.2999999999999826E-003     2.6390008861199021E-004
  -1.1999999999999927E-003     3.2733217813074589E-004
  -9.9999999999988987E-005     4.0215582703240216E-004
   1.0000000000000148E-003     4.9074355047196150E-004
   2.1000000000000185E-003     5.9682357823476195E-004
   3.2000000000000084E-003     7.2465918492525816E-004
   4.3000000000000121E-003     8.7849947158247232E-004
   5.4000000000000159E-003     1.0627676965668797E-003
   6.5000000000000058E-003     1.2826351448893547E-003
   7.6000000000000234E-003     1.5442871954292059E-003
   8.7000000000000133E-003     1.8546439241617918E-003
   9.8000000000000032E-003     2.2210094612091780E-003
   1.0900000000000021E-002     2.6512625627219677E-003
   1.2000000000000011E-002     3.1546240206807852E-003
   1.3100000000000001E-002     3.7423332687467337E-003
   1.4200000000000018E-002     4.4275568798184395E-003
   1.5300000000000008E-002     5.2246409468352795E-003
   1.6400000000000026E-002     6.1485171318054199E-003
   1.7500000000000016E-002     7.2149406187236309E-003
   1.8600000000000005E-002     8.4413345903158188E-003
   1.9700000000000023E-002     9.8473308607935905E-003
   2.0800000000000013E-002     1.1454360559582710E-002
   2.1900000000000003E-002     1.3284686952829361E-002
   2.3000000000000020E-002     1.5360961668193340E-002
   2.4100000000000010E-002     1.7706828191876411E-002
   2.5200000000000000E-002     2.0348059013485909E-002
   2.6300000000000018E-002     2.3312851786613464E-002
   2.7400000000000008E-002     2.6630608364939690E-002
   2.8500000000000025E-002     3.0329959467053413E-002
   2.9600000000000015E-002     3.4437481313943863E-002
   3.0700000000000005E-002     3.8977891206741333E-002
   3.1800000000000023E-002     4.3975252658128738E-002
   3.2900000000000013E-002     4.9453534185886383E-002
   3.4000000000000002E-002     5.5435594171285629E-002
   3.5100000000000020E-002     6.1941239982843399E-002
   3.6200000000000010E-002     6.8985253572463989E-002
   3.7300000000000028E-002     7.6576344668865204E-002
   3.8400000000000017E-002     8.4716901183128357E-002
   3.9500000000000007E-002     9.3402490019798279E-002
   4.0600000000000025E-002    0.10262087732553482     
   4.1700000000000015E-002    0.11235076189041138     
   4.2800000000000005E-002    0.12256076931953430     
   4.3900000000000022E-002    0.13320897519588470     
   4.5000000000000012E-002    0.14424259960651398     
   4.6100000000000002E-002    0.15559691190719604     
   4.7200000000000020E-002    0.16719307005405426     
   4.8300000000000010E-002    0.17893713712692261     
   4.9400000000000027E-002    0.19072027504444122     
   5.0500000000000017E-002    0.20242065191268921     
   5.1600000000000007E-002    0.21390409767627716     
   5.2700000000000025E-002    0.22502310574054718     
   5.3800000000000014E-002    0.23561605811119080     
   5.4900000000000004E-002    0.24550747871398926     
   5.6000000000000022E-002    0.25451108813285828     
   5.7100000000000012E-002    0.26243278384208679     
   5.8200000000000002E-002    0.26907387375831604     
   5.9300000000000019E-002    0.27423179149627686     
   6.0400000000000009E-002    0.27770188450813293     
   6.1500000000000027E-002    0.27928099036216736     
   6.2600000000000017E-002    0.27877143025398254     
   6.3700000000000007E-002    0.27598580718040466     
   6.4800000000000024E-002    0.27074912190437317     
   6.5900000000000014E-002    0.26290091872215271     
   6.7000000000000004E-002    0.25229987502098083     
   6.8100000000000022E-002    0.23882916569709778     
   6.9200000000000012E-002    0.22240233421325684     
   7.0300000000000029E-002    0.20296753942966461     
   7.1400000000000019E-002    0.18050871789455414     
   7.2500000000000009E-002    0.15504643321037292     
   7.3600000000000027E-002    0.12663921713829041     
   7.4700000000000016E-002     9.5386996865272522E-002
   7.5800000000000006E-002     6.1437100172042847E-002
   7.6900000000000024E-002     2.4985574185848236E-002
   7.8000000000000014E-002    -1.3727899640798569E-002
   7.9100000000000004E-002    -5.4426409304141998E-002
   8.0200000000000021E-002    -9.6797563135623932E-002
   8.1300000000000011E-002   -0.14048860967159271     
   8.2400000000000029E-002   -0.18510740995407104     
   8.3500000000000019E-002   -0.23022760450839996     
   8.4600000000000009E-002   -0.27539792656898499     
   8.5700000000000026E-002   -0.32015493512153625     
   8.6800000000000016E-002   -0.36403152346611023     
   8.7900000000000006E-002   -0.40655601024627686     
   8.9000000000000024E-002   -0.44725260138511658     
   9.0100000000000013E-002   -0.48565274477005005     
   9.1200000000000003E-002   -0.52131044864654541     
   9.2300000000000021E-002   -0.55381530523300171     
   9.3400000000000011E-002   -0.58279645442962646     
   9.4500000000000028E-002   -0.60792195796966553     
   9.5600000000000018E-002   -0.62890148162841797     
   9.6700000000000008E-002   -0.64549577236175537     
   9.7800000000000026E-002   -0.65753024816513062     
   9.8900000000000016E-002   -0.66490513086318970     
  0.10000000000000001        -0.66759419441223145     
  0.10110000000000002        -0.66563713550567627     
  0.10220000000000001        -0.65913385152816772     
  0.10330000000000003        -0.64824783802032471     
  0.10440000000000002        -0.63321512937545776     
  0.10550000000000001        -0.61434525251388550     
  0.10660000000000003        -0.59201192855834961     
  0.10770000000000002        -0.56663715839385986     
  0.10880000000000001        -0.53867799043655396     
  0.10990000000000003        -0.50862419605255127     
  0.11100000000000002        -0.47700116038322449     
  0.11210000000000001        -0.44436669349670410     
  0.11320000000000002        -0.41129279136657715     
  0.11430000000000001        -0.37834241986274719     
  0.11540000000000003        -0.34605497121810913     
  0.11650000000000002        -0.31494027376174927     
  0.11760000000000001        -0.28548252582550049     
  0.11870000000000003        -0.25813710689544678     
  0.11980000000000002        -0.23331376910209656     
  0.12090000000000001        -0.21135549247264862     
  0.12200000000000003        -0.19252577424049377     
  0.12310000000000001        -0.17700915038585663     
  0.12420000000000003        -0.16491703689098358     
  0.12530000000000002        -0.15629296004772186     
  0.12640000000000001        -0.15110400319099426     
  0.12750000000000003        -0.14922352135181427     
  0.12860000000000002        -0.15042702853679657     
  0.12970000000000001        -0.15440297126770020     
  0.13080000000000003        -0.16077058017253876     
  0.13190000000000002        -0.16909338533878326     
  0.13300000000000001        -0.17887631058692932     
  0.13410000000000000        -0.18955637514591217     
  0.13520000000000004        -0.20050804316997528     
  0.13630000000000003        -0.21106517314910889     
  0.13740000000000002        -0.22054794430732727     
  0.13850000000000001        -0.22828061878681183     
  0.13960000000000000        -0.23359303176403046     
  0.14070000000000005        -0.23581787943840027     
  0.14180000000000004        -0.23429636657238007     
  0.14290000000000003        -0.22840373218059540     
  0.14400000000000002        -0.21758210659027100     
  0.14510000000000001        -0.20135729014873505     
  0.14620000000000000        -0.17933714389801025     
  0.14730000000000004        -0.15120702981948853     
  0.14840000000000003        -0.11673530936241150     
  0.14950000000000002         -7.5792945921421051E-002
  0.15060000000000001         -2.8375860303640366E-002
  0.15170000000000000          2.5386715307831764E-002
  0.15280000000000005          8.5242785513401031E-002
  0.15390000000000004         0.15083064138889313     
  0.15500000000000003         0.22168388962745667     
  0.15610000000000002         0.29722529649734497     
  0.15720000000000001         0.37675592303276062     
  0.15830000000000000         0.45945996046066284     
  0.15940000000000004         0.54442769289016724     
  0.16050000000000003         0.63067942857742310     
  0.16160000000000002         0.71718138456344604     
  0.16270000000000001         0.80285513401031494     
  0.16380000000000000         0.88658070564270020     
  0.16490000000000005         0.96721142530441284     
  0.16600000000000004          1.0436030626296997     
  0.16710000000000003          1.1146441698074341     
  0.16820000000000002          1.1792763471603394     
  0.16930000000000001          1.2365027666091919     
  0.17040000000000000          1.2853960990905762     
  0.17150000000000004          1.3251148462295532     
  0.17260000000000003          1.3549288511276245     
  0.17370000000000002          1.3742420673370361     
  0.17480000000000001          1.3826029300689697     
  0.17590000000000000          1.3797037601470947     
  0.17700000000000005          1.3653805255889893     
  0.17810000000000004          1.3396210670471191     
  0.17920000000000003          1.3025738000869751     
  0.18030000000000002          1.2545497417449951     
  0.18140000000000001          1.1960141658782959     
  0.18250000000000000          1.1275718212127686     
  0.18360000000000004          1.0499550104141235     
  0.18470000000000003         0.96401673555374146     
  0.18580000000000002         0.87072324752807617     
  0.18690000000000001         0.77113610506057739     
  0.18800000000000000         0.66639155149459839     
  0.18910000000000005         0.55767714977264404     
  0.19020000000000004         0.44621112942695618     
  0.19130000000000003         0.33322980999946594     
  0.19240000000000002         0.21997106075286865     
  0.19350000000000001         0.10765331983566284     
  0.19460000000000005         -2.5478452444076538E-003
  0.19570000000000004        -0.10951912403106689     
  0.19680000000000003        -0.21222332119941711     
  0.19790000000000002        -0.30970925092697144     
  0.19900000000000001        -0.40111824870109558     
  0.20010000000000000        -0.48569661378860474     
  0.20120000000000005        -0.56281232833862305     
  0.20230000000000004        -0.63196051120758057     
  0.20340000000000003        -0.69275808334350586     
  0.20450000000000002        -0.74494200944900513     
  0.20560000000000000        -0.78836995363235474     
  0.20670000000000005        -0.82302147150039673     
  0.20780000000000004        -0.84899747371673584     
  0.20890000000000003        -0.86650669574737549     
