 -0.12000000000000000          0.0000000000000000
 -0.11889999999999999          0.0000000000000000
 -0.11780000000000000          0.0000000000000000
 -0.11670000000000000          0.0000000000000000
 -0.11559999999999999          0.0000000000000000
 -0.11449999999999999          0.0000000000000000
 -0.11340000000000000          0.0000000000000000
 -0.11230000000000000         -4.5849297864834239E-019
 -0.11119999999999999         -1.0991086288682000E-017
 -0.11009999999999999         -7.9307125751158704E-017
 -0.10900000000000000         -2.8788900224741996E-016
 -0.10790000000000000         -5.2225049854693326E-016
 -0.10679999999999999          8.7207971150461000E-017
 -0.10569999999999999          3.3113757809193848E-015
 -0.10460000000000000          9.7282496321808923E-015
 -0.10349999999999999          1.3625828540291245E-014
 -0.10239999999999999         -4.4949751521828132E-016
 -0.10130000000000000         -4.8583895560045873E-014
 -0.10020000000000000         -1.1905106349525962E-013
  -9.9099999999999994E-002    -1.4120588108079007E-013
  -9.7999999999999990E-002     1.5158772674606080E-015
  -9.6899999999999986E-002     3.7092900907927107E-013
  -9.5799999999999996E-002     8.1437883780316467E-013
  -9.4699999999999993E-002     8.8972232359374459E-013
  -9.3599999999999989E-002     6.5233327637206906E-014
  -9.2499999999999999E-002    -1.7635777820740328E-012
  -9.1399999999999995E-002    -3.7332394120515033E-012
  -9.0299999999999991E-002    -4.0239396016661377E-012
  -8.9200000000000002E-002    -8.7016331640210609E-013
  -8.8099999999999984E-002     5.6868468267801120E-012
  -8.6999999999999994E-002     1.2493684038716868E-011
  -8.5899999999999990E-002     1.3970559951947958E-011
  -8.4799999999999986E-002     5.4074917286983659E-012
  -8.3699999999999997E-002    -1.2552762648776472E-011
  -8.2599999999999993E-002    -3.1500045627463891E-011
  -8.1499999999999989E-002    -3.7987030188091353E-011
  -8.0399999999999999E-002    -2.1514453413251644E-011
  -7.9299999999999995E-002     1.6441445427339829E-011
  -7.8199999999999992E-002     5.9012669750835300E-011
  -7.7100000000000002E-002     8.0573998861854790E-011
  -7.5999999999999984E-002     6.1386840055632774E-011
  -7.4899999999999994E-002     1.6826800369740269E-012
  -7.3799999999999991E-002    -7.4601352872960547E-011
  -7.2699999999999987E-002    -1.3016683564348597E-010
  -7.1599999999999997E-002    -1.3311531044113423E-010
  -7.0499999999999993E-002    -7.3025391289505137E-011
  -6.9399999999999989E-002     3.3847161184930030E-011
  -6.8300000000000000E-002     1.5019649413083869E-010
  -6.7199999999999996E-002     2.2854845793673917E-010
  -6.6099999999999992E-002     2.2397880772295764E-010
  -6.5000000000000002E-002     1.1079874517871957E-010
  -6.3899999999999985E-002    -9.5711369385576006E-011
  -6.2799999999999995E-002    -3.2298622110182862E-010
  -6.1699999999999991E-002    -4.5220743816187792E-010
  -6.0599999999999994E-002    -3.7173270017731852E-010
  -5.9499999999999990E-002    -5.6570012563206262E-011
  -5.8399999999999994E-002     3.7819886111734036E-010
  -5.7299999999999990E-002     7.0606170909925936E-010
  -5.6199999999999986E-002     7.0869554669172885E-010
  -5.5099999999999996E-002     3.2238520186744779E-010
  -5.3999999999999992E-002    -2.9267427370527344E-010
  -5.2899999999999989E-002    -8.2536794066001562E-010
  -5.1799999999999985E-002    -9.9373342887787430E-010
  -5.0699999999999995E-002    -7.1162337134111908E-010
  -4.9599999999999991E-002    -1.2666588611320861E-010
  -4.8499999999999988E-002     4.8736276125893596E-010
  -4.7399999999999998E-002     8.9072882403229414E-010
  -4.6299999999999994E-002     9.7284325040192243E-010
  -4.5199999999999990E-002     7.4456818488499721E-010
  -4.4099999999999986E-002     2.9143090718442011E-010
  -4.2999999999999997E-002    -2.3329291276574793E-010
  -4.1899999999999993E-002    -5.8663723878638052E-010
  -4.0799999999999989E-002    -4.8894555071399282E-010
  -3.9699999999999985E-002     1.7675882979517610E-010
  -3.8599999999999995E-002     1.1152243573064879E-009
  -3.7499999999999992E-002     1.5671643982528849E-009
  -3.6399999999999988E-002     6.5118177516865217E-010
  -3.5299999999999984E-002    -1.9897461456253041E-009
  -3.4199999999999994E-002    -5.6416431526429278E-009
  -3.3099999999999991E-002    -8.5336262500845805E-009
  -3.1999999999999987E-002    -8.5575377894997473E-009
  -3.0899999999999997E-002    -4.3487116130336290E-009
  -2.9799999999999993E-002     3.9026524234486715E-009
  -2.8699999999999989E-002     1.4381283719444582E-008
  -2.7599999999999986E-002     2.4294333655916489E-008
  -2.6499999999999996E-002     3.0757227875710669E-008
  -2.5399999999999992E-002     3.1351650164879175E-008
  -2.4299999999999988E-002     2.4091763251021803E-008
  -2.3199999999999985E-002     6.9507946065527904E-009
  -2.2099999999999995E-002    -2.2676541533428463E-008
  -2.0999999999999991E-002    -6.8262892227721750E-008
  -1.9899999999999987E-002    -1.3408723020802427E-007
  -1.8799999999999983E-002    -2.2491045115202724E-007
  -1.7699999999999994E-002    -3.4558831885078689E-007
  -1.6599999999999990E-002    -5.0090386594092706E-007
  -1.5499999999999986E-002    -6.9592562113029999E-007
  -1.4399999999999996E-002    -9.3704011305817403E-007
  -1.3299999999999992E-002    -1.2334165830907295E-006
  -1.2199999999999989E-002    -1.5982445802364964E-006
  -1.1099999999999985E-002    -2.0490556380536873E-006
  -9.9999999999999950E-003    -2.6070167677971767E-006
  -8.8999999999999913E-003    -3.2959842428681441E-006
  -7.7999999999999875E-003    -4.1426096686336678E-006
  -6.6999999999999837E-003    -5.1783126764348708E-006
  -5.5999999999999939E-003    -6.4426862991240341E-006
  -4.4999999999999901E-003    -7.9867622844176367E-006
  -3.3999999999999864E-003    -9.8745385912479833E-006
  -2.2999999999999826E-003    -1.2182378668512683E-005
  -1.1999999999999927E-003    -1.4997538528405130E-005
  -9.9999999999988987E-005    -1.8417847968521528E-005
   1.0000000000000148E-003    -2.2553909730049782E-005
   2.1000000000000185E-003    -2.7533760658116080E-005
   3.2000000000000084E-003    -3.3508575143059716E-005
   4.3000000000000121E-003    -4.0657920180819929E-005
   5.4000000000000159E-003    -4.9193677114089951E-005
   6.5000000000000058E-003    -5.9362791944295168E-005
   7.6000000000000234E-003    -7.1449328970629722E-005
   8.7000000000000133E-003    -8.5776395280845463E-005
   9.8000000000000032E-003    -1.0270860366290435E-004
   1.0900000000000021E-002    -1.2265591067261994E-004
   1.2000000000000011E-002    -1.4607950288336724E-004
   1.3100000000000001E-002    -1.7349954578094184E-004
   1.4200000000000018E-002    -2.0550364570226520E-004
   1.5300000000000008E-002    -2.4275395844597369E-004
   1.6400000000000026E-002    -2.8599135112017393E-004
   1.7500000000000016E-002    -3.3603719202801585E-004
   1.8600000000000005E-002    -3.9379380177706480E-004
   1.9700000000000023E-002    -4.6024590847082436E-004
   2.0800000000000013E-002    -5.3646339802071452E-004
   2.1900000000000003E-002    -6.2360492302104831E-004
   2.3000000000000020E-002    -7.2292046388611197E-004
   2.4100000000000010E-002    -8.3575281314551830E-004
   2.5200000000000000E-002    -9.6353789558634162E-004
   2.6300000000000018E-002    -1.1078022653236985E-003
   2.7400000000000008E-002    -1.2701574014499784E-003
   2.8500000000000025E-002    -1.4522887067869306E-003
   2.9600000000000015E-002    -1.6559410141780972E-003
   3.0700000000000005E-002    -1.8828990869224072E-003
   3.1800000000000023E-002    -2.1349699236452579E-003
   3.2900000000000013E-002    -2.4139643646776676E-003
   3.4000000000000002E-002    -2.7216779999434948E-003
   3.5100000000000020E-002    -3.0598696321249008E-003
   3.6200000000000010E-002    -3.4302321728318930E-003
   3.7300000000000028E-002    -3.8343579508364201E-003
   3.8400000000000017E-002    -4.2736935429275036E-003
   3.9500000000000007E-002    -4.7494950704276562E-003
   4.0600000000000025E-002    -5.2627841942012310E-003
   4.1700000000000015E-002    -5.8142994530498981E-003
   4.2800000000000005E-002    -6.4044534228742123E-003
   4.3900000000000022E-002    -7.0332861505448818E-003
   4.5000000000000012E-002    -7.7004195190966129E-003
   4.6100000000000002E-002    -8.4050111472606659E-003
   4.7200000000000020E-002    -9.1457078233361244E-003
   4.8300000000000010E-002    -9.9205970764160156E-003
   4.9400000000000027E-002    -1.0727161541581154E-002
   5.0500000000000017E-002    -1.1562230065464973E-002
   5.1600000000000007E-002    -1.2421950697898865E-002
   5.2700000000000025E-002    -1.3301772996783257E-002
   5.3800000000000014E-002    -1.4196439646184444E-002
   5.4900000000000004E-002    -1.5099987387657166E-002
   5.6000000000000022E-002    -1.6005745157599449E-002
   5.7100000000000012E-002    -1.6906358301639557E-002
   5.8200000000000002E-002    -1.7793809995055199E-002
   5.9300000000000019E-002    -1.8659476190805435E-002
   6.0400000000000009E-002    -1.9494185224175453E-002
   6.1500000000000027E-002    -2.0288288593292236E-002
   6.2600000000000017E-002    -2.1031746640801430E-002
   6.3700000000000007E-002    -2.1714221686124802E-002
   6.4800000000000024E-002    -2.2325204685330391E-002
   6.5900000000000014E-002    -2.2854141891002655E-002
   6.7000000000000004E-002    -2.3290572687983513E-002
   6.8100000000000022E-002    -2.3624278604984283E-002
   6.9200000000000012E-002    -2.3845450952649117E-002
   7.0300000000000029E-002    -2.3944837972521782E-002
   7.1400000000000019E-002    -2.3913910612463951E-002
   7.2500000000000009E-002    -2.3745028302073479E-002
   7.3600000000000027E-002    -2.3431574925780296E-002
   7.4700000000000016E-002    -2.2968119010329247E-002
   7.5800000000000006E-002    -2.2350536659359932E-002
   7.6900000000000024E-002    -2.1576164290308952E-002
   7.8000000000000014E-002    -2.0643912255764008E-002
   7.9100000000000004E-002    -1.9554359838366508E-002
   8.0200000000000021E-002    -1.8309824168682098E-002
   8.1300000000000011E-002    -1.6914401203393936E-002
   8.2400000000000029E-002    -1.5373982489109039E-002
   8.3500000000000019E-002    -1.3696254231035709E-002
   8.4600000000000009E-002    -1.1890650726854801E-002
   8.5700000000000026E-002    -9.9682947620749474E-003
   8.6800000000000016E-002    -7.9418951645493507E-003
   8.7900000000000006E-002    -5.8256280608475208E-003
   8.9000000000000024E-002    -3.6349892616271973E-003
   9.0100000000000013E-002    -1.3866302324458957E-003
   9.1200000000000003E-002     9.0183207066729665E-004
   9.2300000000000021E-002     3.2120342366397381E-003
   9.3400000000000011E-002     5.5251005105674267E-003
   9.4500000000000028E-002     7.8218895941972733E-003
   9.5600000000000018E-002     1.0083249770104885E-002
   9.6700000000000008E-002     1.2290275655686855E-002
   9.7800000000000026E-002     1.4424563385546207E-002
   9.8900000000000016E-002     1.6468457877635956E-002
  0.10000000000000001          1.8405290320515633E-002
  0.10110000000000002          2.0219592377543449E-002
  0.10220000000000001          2.1897306665778160E-002
  0.10330000000000003          2.3425964638590813E-002
  0.10440000000000002          2.4794843047857285E-002
  0.10550000000000001          2.5995099917054176E-002
  0.10660000000000003          2.7019873261451721E-002
  0.10770000000000002          2.7864346280694008E-002
  0.10880000000000001          2.8525793924927711E-002
  0.10990000000000003          2.9003581032156944E-002
  0.11100000000000002          2.9299138113856316E-002
  0.11210000000000001          2.9415901750326157E-002
  0.11320000000000002          2.9359195381402969E-002
  0.11430000000000001          2.9136132448911667E-002
  0.11540000000000003          2.8755471110343933E-002
  0.11650000000000002          2.8227457776665688E-002
  0.11760000000000001          2.7563635259866714E-002
  0.11870000000000003          2.6776643469929695E-002
  0.11980000000000002          2.5880005210638046E-002
  0.12090000000000001          2.4887923151254654E-002
  0.12200000000000003          2.3815084248781204E-002
  0.12310000000000001          2.2676434367895126E-002
  0.12420000000000003          2.1486967802047729E-002
  0.12530000000000002          2.0261511206626892E-002
  0.12640000000000001          1.9014522433280945E-002
  0.12750000000000003          1.7759930342435837E-002
  0.12860000000000002          1.6510976478457451E-002
  0.12970000000000001          1.5280066989362240E-002
  0.13080000000000003          1.4078659005463123E-002
  0.13190000000000002          1.2917130254209042E-002
  0.13300000000000001          1.1804697103798389E-002
  0.13410000000000000          1.0749365203082561E-002
  0.13520000000000004          9.7579108551144600E-003
  0.13630000000000003          8.8358717039227486E-003
  0.13740000000000002          7.9875346273183823E-003
  0.13850000000000001          7.2159278206527233E-003
  0.13960000000000000          6.5228445455431938E-003
  0.14070000000000005          5.9088999405503273E-003
  0.14180000000000004          5.3736194968223572E-003
  0.14290000000000003          4.9155224114656448E-003
  0.14400000000000002          4.5322044752538204E-003
  0.14510000000000001          4.2204083874821663E-003
  0.14620000000000000          3.9761113002896309E-003
  0.14730000000000004          3.7946403026580811E-003
  0.14840000000000003          3.6707976832985878E-003
  0.14950000000000002          3.5989775788038969E-003
  0.15060000000000001          3.5732591059058905E-003
  0.15170000000000000          3.5874859895557165E-003
  0.15280000000000005          3.6353485193103552E-003
  0.15390000000000004          3.7104855291545391E-003
  0.15500000000000003          3.8065924309194088E-003
  0.15610000000000002          3.9175157435238361E-003
  0.15720000000000001          4.0373178198933601E-003
  0.15830000000000000          4.1603292338550091E-003
  0.15940000000000004          4.2812013998627663E-003
  0.16050000000000003          4.3949699029326439E-003
  0.16160000000000002          4.4971150346100330E-003
  0.16270000000000001          4.5836004428565502E-003
  0.16380000000000000          4.6508735977113247E-003
  0.16490000000000005          4.6958671882748604E-003
  0.16600000000000004          4.7160042449831963E-003
  0.16710000000000003          4.7092265449464321E-003
  0.16820000000000002          4.6740123070776463E-003
  0.16930000000000001          4.6093673445284367E-003
  0.17040000000000000          4.5147845521569252E-003
  0.17150000000000004          4.3902033939957619E-003
  0.17260000000000003          4.2359875515103340E-003
  0.17370000000000002          4.0529249235987663E-003
  0.17480000000000001          3.8422180805355310E-003
  0.17590000000000000          3.6054432857781649E-003
  0.17700000000000005          3.3444708678871393E-003
  0.17810000000000004          3.0613946728408337E-003
  0.17920000000000003          2.7584931813180447E-003
  0.18030000000000002          2.4382292758673429E-003
  0.18140000000000001          2.1032441873103380E-003
  0.18250000000000000          1.7563132569193840E-003
  0.18360000000000004          1.4002651441842318E-003
  0.18470000000000003          1.0379058076068759E-003
  0.18580000000000002          6.7198544275015593E-004
  0.18690000000000001          3.0520517611876130E-004
  0.18800000000000000         -5.9776120906462893E-005
  0.18910000000000005         -4.2037433013319969E-004
  0.19020000000000004         -7.7414920087903738E-004
  0.19130000000000003         -1.1188676580786705E-003
  0.19240000000000002         -1.4525215374305844E-003
  0.19350000000000001         -1.7733016284182668E-003
  0.19460000000000005         -2.0795697346329689E-003
  0.19570000000000004         -2.3698671720921993E-003
  0.19680000000000003         -2.6429540012031794E-003
  0.19790000000000002         -2.8978432528674603E-003
  0.19900000000000001         -3.1337928958237171E-003
  0.20010000000000000         -3.3502690494060516E-003
  0.20120000000000005         -3.5469110589474440E-003
  0.20230000000000004         -3.7235342897474766E-003
  0.20340000000000003         -3.8801562041044235E-003
  0.20450000000000002         -4.0170033462345600E-003
  0.20560000000000000         -4.1344831697642803E-003
  0.20670000000000005         -4.2331279255449772E-003
  0.20780000000000004         -4.3135625310242176E-003
  0.20890000000000003         -4.3765055015683174E-003
