 -0.12000000000000000          0.0000000000000000
 -0.11889999999999999          0.0000000000000000
 -0.11780000000000000          0.0000000000000000
 -0.11670000000000000          0.0000000000000000
 -0.11559999999999999         -6.6697775774615664E-012
 -0.11449999999999999         -2.8765240189798646E-011
 -0.11340000000000000         -4.3307461783381740E-011
 -0.11230000000000000          1.5743666786915966E-011
 -0.11119999999999999          1.6289213033982008E-010
 -0.11009999999999999          2.2086539541721351E-010
 -0.10900000000000000         -1.1268544430897975E-010
 -0.10790000000000000         -8.5592499754483242E-010
 -0.10679999999999999         -1.3554488642597562E-009
 -0.10569999999999999         -6.0235566534672103E-010
 -0.10460000000000000          1.6139232172918128E-009
 -0.10349999999999999          3.7475689218524622E-009
 -0.10239999999999999          3.2052884790800817E-009
 -0.10130000000000000         -1.1624601281567948E-009
 -0.10020000000000000         -6.9281238523899447E-009
  -9.9099999999999994E-002    -9.0634513227882962E-009
  -9.7999999999999990E-002    -4.2335503991353107E-009
  -9.6899999999999986E-002     5.1883137786035149E-009
  -9.5799999999999996E-002     1.1897789420345362E-008
  -9.4699999999999993E-002     9.7416705813202498E-009
  -9.3599999999999989E-002    -8.6779916586010586E-011
  -9.2499999999999999E-002    -9.2572660648215788E-009
  -9.1399999999999995E-002    -9.8386969682451308E-009
  -9.0299999999999991E-002    -2.3596777865009244E-009
  -8.9200000000000002E-002     4.0686631841424514E-009
  -8.8099999999999984E-002     7.1557915148900975E-010
  -8.6999999999999994E-002    -1.1210973482889131E-008
  -8.5899999999999990E-002    -2.0564502989373068E-008
  -8.4799999999999986E-002    -1.6758395560145800E-008
  -8.3699999999999997E-002    -4.5722492458821762E-010
  -8.2599999999999993E-002     1.6880116859852023E-008
  -8.1499999999999989E-002     2.4521000341337640E-008
  -8.0399999999999999E-002     2.2628476870067971E-008
  -7.9299999999999995E-002     1.9364613024208666E-008
  -7.8199999999999992E-002     1.7605598756631480E-008
  -7.7100000000000002E-002     6.9373724542742821E-009
  -7.5999999999999984E-002    -2.7344206898760604E-008
  -7.4899999999999994E-002    -8.5413695671832102E-008
  -7.3799999999999991E-002    -1.4554719030002161E-007
  -7.2699999999999987E-002    -1.8127099110643030E-007
  -7.1599999999999997E-002    -1.9088977865067136E-007
  -7.0499999999999993E-002    -2.1059537402834394E-007
  -6.9399999999999989E-002    -2.9427692993522214E-007
  -6.8300000000000000E-002    -4.7505307065875968E-007
  -6.7199999999999996E-002    -7.4383876835781848E-007
  -6.6099999999999992E-002    -1.0661229907782399E-006
  -6.5000000000000002E-002    -1.4212342875907780E-006
  -6.3899999999999985E-002    -1.8257253486808622E-006
  -6.2799999999999995E-002    -2.3188461000245297E-006
  -6.1699999999999991E-002    -2.9281673050718382E-006
  -6.0599999999999994E-002    -3.6554813505063066E-006
  -5.9499999999999990E-002    -4.5021142796031199E-006
  -5.8399999999999994E-002    -5.5090217756514903E-006
  -5.7299999999999990E-002    -6.7672690420295112E-006
  -5.6199999999999986E-002    -8.3827608250430785E-006
  -5.5099999999999996E-002    -1.0428381756355520E-005
  -5.3999999999999992E-002    -1.2934496226080228E-005
  -5.2899999999999989E-002    -1.5932615497149527E-005
  -5.1799999999999985E-002    -1.9511600839905441E-005
  -5.0699999999999995E-002    -2.3829905330785550E-005
  -4.9599999999999991E-002    -2.9071288736304268E-005
  -4.8499999999999988E-002    -3.5392189602134749E-005
  -4.7399999999999998E-002    -4.2921699787257239E-005
  -4.6299999999999994E-002    -5.1822353270836174E-005
  -4.5199999999999990E-002    -6.2354083638638258E-005
  -4.4099999999999986E-002    -7.4875068094115704E-005
  -4.2999999999999997E-002    -8.9776105596683919E-005
  -4.1899999999999993E-002    -1.0741657024482265E-004
  -4.0799999999999989E-002    -1.2813427019864321E-004
  -3.9699999999999985E-002    -1.5232879377435893E-004
  -3.8599999999999995E-002    -1.8054114480037242E-004
  -3.7499999999999992E-002    -2.1345229470171034E-004
  -3.6399999999999988E-002    -2.5180538068525493E-004
  -3.5299999999999984E-002    -2.9633639496751130E-004
  -3.4199999999999994E-002    -3.4779214183799922E-004
  -3.3099999999999991E-002    -4.0702355909161270E-004
  -3.1999999999999987E-002    -4.7506068949587643E-004
  -3.0899999999999997E-002    -5.5308948503807187E-004
  -2.9799999999999993E-002    -6.4235244644805789E-004
  -2.8699999999999989E-002    -7.4407708598300815E-004
  -2.7599999999999986E-002    -8.5951254004612565E-004
  -2.6499999999999996E-002    -9.9004211369901896E-004
  -2.5399999999999992E-002    -1.1372555745765567E-003
  -2.4299999999999988E-002    -1.3028992107138038E-003
  -2.3199999999999985E-002    -1.4887428842484951E-003
  -2.2099999999999995E-002    -1.6964926617220044E-003
  -2.0999999999999991E-002    -1.9278282998129725E-003
  -1.9899999999999987E-002    -2.1845155861228704E-003
  -1.8799999999999983E-002    -2.4684586096554995E-003
  -1.7699999999999994E-002    -2.7816121000796556E-003
  -1.6599999999999990E-002    -3.1258126255124807E-003
  -1.5499999999999986E-002    -3.5026774276047945E-003
  -1.4399999999999996E-002    -3.9136423729360104E-003
  -1.3299999999999992E-002    -4.3600718490779400E-003
  -1.2199999999999989E-002    -4.8432839103043079E-003
  -1.1099999999999985E-002    -5.3644194267690182E-003
  -9.9999999999999950E-003    -5.9242374263703823E-003
  -8.8999999999999913E-003    -6.5229949541389942E-003
  -7.7999999999999875E-003    -7.1604875847697258E-003
  -6.6999999999999837E-003    -7.8361472114920616E-003
  -5.5999999999999939E-003    -8.5490448400378227E-003
  -4.4999999999999901E-003    -9.2977313324809074E-003
  -3.3999999999999864E-003    -1.0080023668706417E-002
  -2.2999999999999826E-003    -1.0892909951508045E-002
  -1.1999999999999927E-003    -1.1732614599168301E-002
  -9.9999999999988987E-005    -1.2594714760780334E-002
   1.0000000000000148E-003    -1.3474139384925365E-002
   2.1000000000000185E-003    -1.4365019276738167E-002
   3.2000000000000084E-003    -1.5260503627359867E-002
   4.3000000000000121E-003    -1.6152728348970413E-002
   5.4000000000000159E-003    -1.7032945528626442E-002
   6.5000000000000058E-003    -1.7891714349389076E-002
   7.6000000000000234E-003    -1.8718939274549484E-002
   8.7000000000000133E-003    -1.9503779709339142E-002
   9.8000000000000032E-003    -2.0234556868672371E-002
   1.0900000000000021E-002    -2.0898837596178055E-002
   1.2000000000000011E-002    -2.1483680233359337E-002
   1.3100000000000001E-002    -2.1975897252559662E-002
   1.4200000000000018E-002    -2.2362178191542625E-002
   1.5300000000000008E-002    -2.2629078477621078E-002
   1.6400000000000026E-002    -2.2763045504689217E-002
   1.7500000000000016E-002    -2.2750634700059891E-002
   1.8600000000000005E-002    -2.2578848525881767E-002
   1.9700000000000023E-002    -2.2235473617911339E-002
   2.0800000000000013E-002    -2.1709239110350609E-002
   2.1900000000000003E-002    -2.0989874377846718E-002
   2.3000000000000020E-002    -2.0068198442459106E-002
   2.4100000000000010E-002    -1.8936397507786751E-002
   2.5200000000000000E-002    -1.7588404938578606E-002
   2.6300000000000018E-002    -1.6020201146602631E-002
   2.7400000000000008E-002    -1.4229928143322468E-002
   2.8500000000000025E-002    -1.2217884883284569E-002
   2.9600000000000015E-002    -9.9865887314081192E-003
   3.0700000000000005E-002    -7.5409910641610622E-003
   3.1800000000000023E-002    -4.8887431621551514E-003
   3.2900000000000013E-002    -2.0403470844030380E-003
   3.4000000000000002E-002     9.9091557785868645E-004
   3.5100000000000020E-002     4.1891597211360931E-003
   3.6200000000000010E-002     7.5359991751611233E-003
   3.7300000000000028E-002     1.1010506190359592E-002
   3.8400000000000017E-002     1.4589162543416023E-002
   3.9500000000000007E-002     1.8245976418256760E-002
   4.0600000000000025E-002     2.1952820941805840E-002
   4.1700000000000015E-002     2.5679845362901688E-002
   4.2800000000000005E-002     2.9395783320069313E-002
   4.3900000000000022E-002     3.3068120479583740E-002
   4.5000000000000012E-002     3.6663260310888290E-002
   4.6100000000000002E-002     4.0146905928850174E-002
   4.7200000000000020E-002     4.3484602123498917E-002
   4.8300000000000010E-002     4.6642314642667770E-002
   4.9400000000000027E-002     4.9586851149797440E-002
   5.0500000000000017E-002     5.2286129444837570E-002
   5.1600000000000007E-002     5.4709419608116150E-002
   5.2700000000000025E-002     5.6827828288078308E-002
   5.3800000000000014E-002     5.8614894747734070E-002
   5.4900000000000004E-002     6.0047131031751633E-002
   5.6000000000000022E-002     6.1104297637939453E-002
   5.7100000000000012E-002     6.1769556254148483E-002
   5.8200000000000002E-002     6.2029600143432617E-002
   5.9300000000000019E-002     6.1875000596046448E-002
   6.0400000000000009E-002     6.1300590634346008E-002
   6.1500000000000027E-002     6.0305736958980560E-002
   6.2600000000000017E-002     5.8894313871860504E-002
   6.3700000000000007E-002     5.7074513286352158E-002
   6.4800000000000024E-002     5.4858680814504623E-002
   6.5900000000000014E-002     5.2263323217630386E-002
   6.7000000000000004E-002     4.9309164285659790E-002
   6.8100000000000022E-002     4.6021033078432083E-002
   6.9200000000000012E-002     4.2427446693181992E-002
   7.0300000000000029E-002     3.8560017943382263E-002
   7.1400000000000019E-002     3.4453015774488449E-002
   7.2500000000000009E-002     3.0143085867166519E-002
   7.3600000000000027E-002     2.5669023394584656E-002
   7.4700000000000016E-002     2.1071363240480423E-002
   7.5800000000000006E-002     1.6391683369874954E-002
   7.6900000000000024E-002     1.1671855114400387E-002
   7.8000000000000014E-002     6.9534531794488430E-003
   7.9100000000000004E-002     2.2774368990212679E-003
   8.0200000000000021E-002    -2.3161240387707949E-003
   8.1300000000000011E-002    -6.7885052412748337E-003
   8.2400000000000029E-002    -1.1102987453341484E-002
   8.3500000000000019E-002    -1.5225509181618690E-002
   8.4600000000000009E-002    -1.9125055521726608E-002
   8.5700000000000026E-002    -2.2773766890168190E-002
   8.6800000000000016E-002    -2.6147004216909409E-002
   8.7900000000000006E-002    -2.9223576188087463E-002
   8.9000000000000024E-002    -3.1986135989427567E-002
   9.0100000000000013E-002    -3.4421496093273163E-002
   9.1200000000000003E-002    -3.6520626395940781E-002
   9.2300000000000021E-002    -3.8278423249721527E-002
   9.3400000000000011E-002    -3.9693418890237808E-002
   9.4500000000000028E-002    -4.0767721831798553E-002
   9.5600000000000018E-002    -4.1507080197334290E-002
   9.6700000000000008E-002    -4.1920810937881470E-002
   9.7800000000000026E-002    -4.2021494358778000E-002
   9.8900000000000016E-002    -4.1824415326118469E-002
  0.10000000000000001         -4.1347090154886246E-002
  0.10110000000000002         -4.0609005838632584E-002
  0.10220000000000001         -3.9631504565477371E-002
  0.10330000000000003         -3.8437549024820328E-002
  0.10440000000000002         -3.7051256746053696E-002
  0.10550000000000001         -3.5497274249792099E-002
  0.10660000000000003         -3.3800307661294937E-002
  0.10770000000000002         -3.1984914094209671E-002
  0.10880000000000001         -3.0075432732701302E-002
  0.10990000000000003         -2.8095804154872894E-002
  0.11100000000000002         -2.6069158688187599E-002
  0.11210000000000001         -2.4017324671149254E-002
  0.11320000000000002         -2.1960543468594551E-002
  0.11430000000000001         -1.9917473196983337E-002
  0.11540000000000003         -1.7905315384268761E-002
  0.11650000000000002         -1.5939788892865181E-002
  0.11760000000000001         -1.4034879393875599E-002
  0.11870000000000003         -1.2202563695609570E-002
  0.11980000000000002         -1.0452749207615852E-002
  0.12090000000000001         -8.7935160845518112E-003
  0.12200000000000003         -7.2313975542783737E-003
  0.12310000000000001         -5.7714842259883881E-003
  0.12420000000000003         -4.4172927737236023E-003
  0.12530000000000002         -3.1706378795206547E-003
  0.12640000000000001         -2.0317491143941879E-003
  0.12750000000000003         -9.9962996318936348E-004
  0.12860000000000002         -7.2416172770317644E-005
  0.12970000000000001          7.5250840745866299E-004
  0.13080000000000003          1.4786125393584371E-003
  0.13190000000000002          2.1102908067405224E-003
  0.13300000000000001          2.6526970323175192E-003
  0.13410000000000000          3.1113722361624241E-003
  0.13520000000000004          3.4919332247227430E-003
  0.13630000000000003          3.8000200875103474E-003
  0.13740000000000002          4.0414468385279179E-003
  0.13850000000000001          4.2222891934216022E-003
  0.13960000000000000          4.3487227521836758E-003
  0.14070000000000005          4.4267014600336552E-003
  0.14180000000000004          4.4617387466132641E-003
  0.14290000000000003          4.4589601457118988E-003
  0.14400000000000002          4.4233128428459167E-003
  0.14510000000000001          4.3596802279353142E-003
  0.14620000000000000          4.2727421969175339E-003
  0.14730000000000004          4.1667055338621140E-003
  0.14840000000000003          4.0451781824231148E-003
  0.14950000000000002          3.9113066159188747E-003
  0.15060000000000001          3.7680277600884438E-003
  0.15170000000000000          3.6181826144456863E-003
  0.15280000000000005          3.4643756225705147E-003
  0.15390000000000004          3.3087483607232571E-003
  0.15500000000000003          3.1529185362160206E-003
  0.15610000000000002          2.9981657862663269E-003
  0.15720000000000001          2.8456903528422117E-003
  0.15830000000000000          2.6966910809278488E-003
  0.15940000000000004          2.5522054638713598E-003
  0.16050000000000003          2.4129038210958242E-003
  0.16160000000000002          2.2790732327848673E-003
  0.16270000000000001          2.1508331410586834E-003
  0.16380000000000000          2.0283751655369997E-003
  0.16490000000000005          1.9119981443509459E-003
  0.16600000000000004          1.8019190756604075E-003
  0.16710000000000003          1.6980811487883329E-003
  0.16820000000000002          1.6001691110432148E-003
  0.16930000000000001          1.5078315045684576E-003
  0.17040000000000000          1.4208861393854022E-003
  0.17150000000000004          1.3393079861998558E-003
  0.17260000000000003          1.2630212586373091E-003
  0.17370000000000002          1.1917257215827703E-003
  0.17480000000000001          1.1249446542933583E-003
  0.17590000000000000          1.0622520931065083E-003
  0.17700000000000005          1.0034433798864484E-003
  0.17810000000000004          9.4847794389352202E-004
  0.17920000000000003          8.9725747238844633E-004
  0.18030000000000002          8.4947550203651190E-004
  0.18140000000000001          8.0469594104215503E-004
  0.18250000000000000          7.6257809996604919E-004
  0.18360000000000004          7.2301388718187809E-004
  0.18470000000000003          6.8603607360273600E-004
  0.18580000000000002          6.5159425139427185E-004
  0.18690000000000001          6.1943347100168467E-004
  0.18800000000000000          5.8919802540913224E-004
  0.18910000000000005          5.6065106764435768E-004
  0.19020000000000004          5.3377985022962093E-004
  0.19130000000000003          5.0867930985987186E-004
  0.19240000000000002          4.8533562221564353E-004
  0.19350000000000001          4.6353420475497842E-004
  0.19460000000000005          4.4298343709670007E-004
  0.19570000000000004          4.2352237505838275E-004
  0.19680000000000003          4.0519566391594708E-004
  0.19790000000000002          3.8812134880572557E-004
  0.19900000000000001          3.7229075678624213E-004
  0.20010000000000000          3.5750656388700008E-004
  0.20120000000000005          3.4351830254308879E-004
  0.20230000000000004          3.3021043054759502E-004
  0.20340000000000003          3.1764787854626775E-004
  0.20450000000000002          3.0593699193559587E-004
  0.20560000000000000          2.9505108250305057E-004
  0.20670000000000005          2.8480152832344174E-004
  0.20780000000000004          2.7497962582856417E-004
  0.20890000000000003          2.6551709743216634E-004
