 -0.12000000000000000          0.0000000000000000
 -0.11889999999999999          0.0000000000000000
 -0.11780000000000000          0.0000000000000000
 -0.11670000000000000          0.0000000000000000
 -0.11559999999999999          0.0000000000000000
 -0.11449999999999999          0.0000000000000000
 -0.11340000000000000          0.0000000000000000
 -0.11230000000000000          0.0000000000000000
 -0.11119999999999999          0.0000000000000000
 -0.11009999999999999          0.0000000000000000
 -0.10900000000000000          0.0000000000000000
 -0.10790000000000000          9.2866596544340412E-030
 -0.10679999999999999         -1.7779274943757685E-029
 -0.10569999999999999         -3.8530881505965047E-028
 -0.10460000000000000         -1.2575804943176096E-028
 -0.10349999999999999          8.5183188105467462E-027
 -0.10239999999999999          2.8588645842928036E-026
 -0.10130000000000000         -2.2300174884968653E-026
 -0.10020000000000000         -3.5470837245613667E-025
  -9.9099999999999994E-002    -7.3132464484542524E-025
  -9.7999999999999990E-002     9.5568191249377809E-025
  -9.6899999999999986E-002     7.6497041047857451E-024
  -9.5799999999999996E-002     1.2466982618991912E-023
  -9.4699999999999993E-002    -1.6505781637489775E-023
  -9.3599999999999989E-002    -1.1044310157293629E-022
  -9.2499999999999999E-002    -1.7447861418610053E-022
  -9.1399999999999995E-002     1.3984473006054138E-022
  -9.0299999999999991E-002     1.1376889875966973E-021
  -8.9200000000000002E-002     1.9730347775244184E-021
  -8.8099999999999984E-002    -3.3033061943457357E-022
  -8.6999999999999994E-002    -8.5898457619469786E-021
  -8.5899999999999990E-002    -1.7531286905081609E-020
  -8.4799999999999986E-002    -6.5985538400676149E-021
  -8.3699999999999997E-002     4.7168459010104812E-020
  -8.2599999999999993E-002     1.2168325703961983E-019
  -8.1499999999999989E-002     1.0105814177576657E-019
  -8.0399999999999999E-002    -1.7207220482420634E-019
  -7.9299999999999995E-002    -6.5728908846805839E-019
  -7.8199999999999992E-002    -8.2502477308156135E-019
  -7.7100000000000002E-002     2.1613991591584504E-019
  -7.5999999999999984E-002     2.7069717156369346E-018
  -7.4899999999999994E-002     4.7430958185903009E-018
  -7.3799999999999991E-002     2.1725669246085288E-018
  -7.2699999999999987E-002    -7.8743690022556984E-018
  -7.1599999999999997E-002    -2.0482474274470660E-017
  -7.0499999999999993E-002    -1.9863925156015757E-017
  -6.9399999999999989E-002     1.0977551959499408E-017
  -6.8300000000000000E-002     6.6427288338997623E-017
  -6.7199999999999996E-002     9.8505140735567222E-017
  -6.6099999999999992E-002     3.4682266951139760E-017
  -6.5000000000000002E-002    -1.4957586732463219E-016
  -6.3899999999999985E-002    -3.4477335270485462E-016
  -6.2799999999999995E-002    -3.1071021389859855E-016
  -6.1699999999999991E-002     1.4499024270643422E-016
  -6.0599999999999994E-002     8.7564434378401132E-016
  -5.9499999999999990E-002     1.2585633752822101E-015
  -5.8399999999999994E-002     5.2356811123594653E-016
  -5.7299999999999990E-002    -1.4533852941945539E-015
  -5.6199999999999986E-002    -3.4631882255063522E-015
  -5.5099999999999996E-002    -3.2867135696271286E-015
  -5.3999999999999992E-002     5.6740068982781729E-016
  -5.2899999999999989E-002     6.6584374834230669E-015
  -5.1799999999999985E-002     1.0110645197317688E-014
  -5.0699999999999995E-002     5.5471065397029017E-015
  -4.9599999999999991E-002    -7.5018811285633771E-015
  -4.8499999999999988E-002    -2.1036251286374839E-014
  -4.7399999999999998E-002    -2.1836282375385999E-014
  -4.6299999999999994E-002    -2.0654068326507805E-015
  -4.5199999999999990E-002     2.9810569025226150E-014
  -4.4099999999999986E-002     4.9039433267211024E-014
  -4.2999999999999997E-002     3.1232598430262770E-014
  -4.1899999999999993E-002    -2.3153489759134005E-014
  -4.0799999999999989E-002    -7.7832895293769577E-014
  -3.9699999999999985E-002    -8.0792550384220507E-014
  -3.8599999999999995E-002    -9.1770497180187344E-015
  -3.7499999999999992E-002     9.5739192127516221E-014
  -3.6399999999999988E-002     1.4342642199773048E-013
  -3.5299999999999984E-002     6.5042575817485238E-014
  -3.4199999999999994E-002    -1.0805264560702355E-013
  -3.3099999999999991E-002    -2.3493384429702779E-013
  -3.1999999999999987E-002    -1.6322658285758407E-013
  -3.0899999999999997E-002     1.2015048515574139E-013
  -2.9799999999999993E-002     4.1591721928503633E-013
  -2.8699999999999989E-002     4.2192383484587759E-013
  -2.7599999999999986E-002    -9.7342923652266045E-015
  -2.6499999999999996E-002    -6.6157263044555603E-013
  -2.5399999999999992E-002    -1.0076139141806939E-012
  -2.4299999999999988E-002    -5.8468388550864114E-013
  -2.3199999999999985E-002     5.5649311114097655E-013
  -2.2099999999999995E-002     1.7086494979307032E-012
  -2.0999999999999991E-002     1.9035786402027410E-012
  -1.9899999999999987E-002     6.5858099139101678E-013
  -1.8799999999999983E-002    -1.4797655288611988E-012
  -1.7699999999999994E-002    -3.1159504230299229E-012
  -1.6599999999999990E-002    -2.9291126815711443E-012
  -1.5499999999999986E-002    -7.2397556699632659E-013
  -1.4399999999999996E-002     2.2398855773625437E-012
  -1.3299999999999992E-002     4.0315875637908505E-012
  -1.2199999999999989E-002     3.4573294747930472E-012
  -1.1099999999999985E-002     1.0024983230702555E-012
  -9.9999999999999950E-003    -1.5321993890662911E-012
  -8.8999999999999913E-003    -2.5153377644637764E-012
  -7.7999999999999875E-003    -1.8916094818993701E-012
  -6.6999999999999837E-003    -1.2174767487563298E-012
  -5.5999999999999939E-003    -2.0930169489924433E-012
  -4.4999999999999901E-003    -4.2175356089468874E-012
  -3.3999999999999864E-003    -4.9122208037322146E-012
  -2.2999999999999826E-003    -1.0114051523374412E-012
  -1.1999999999999927E-003     7.9438278871579726E-012
  -9.9999999999988987E-005     1.7750498987334495E-011
   1.0000000000000148E-003     2.0981312173762312E-011
   2.1000000000000185E-003     1.1679619077442638E-011
   3.2000000000000084E-003    -9.5005791428404152E-012
   4.3000000000000121E-003    -3.3520918679696976E-011
   5.4000000000000159E-003    -4.6635591222088379E-011
   6.5000000000000058E-003    -3.8053969697582346E-011
   7.6000000000000234E-003    -7.1292216921592377E-012
   8.7000000000000133E-003     3.4615546540273101E-011
   9.8000000000000032E-003     6.8368137540186780E-011
   1.0900000000000021E-002     7.7270884135671736E-011
   1.2000000000000011E-002     5.4730935061808594E-011
   1.3100000000000001E-002     7.2092843847459953E-012
   1.4200000000000018E-002    -4.9410895514023778E-011
   1.5300000000000008E-002    -9.6756096190642182E-011
   1.6400000000000026E-002    -1.1967202229179463E-010
   1.7500000000000016E-002    -1.0839290576214466E-010
   1.8600000000000005E-002    -5.8737986696755229E-011
   1.9700000000000023E-002     2.6081735729488464E-011
   2.0800000000000013E-002     1.3063911064037370E-010
   2.1900000000000003E-002     2.2316473669015124E-010
   2.3000000000000020E-002     2.5939572712019299E-010
   2.4100000000000010E-002     1.9918117155626192E-010
   2.5200000000000000E-002     3.1760188229368325E-011
   2.6300000000000018E-002    -2.0417142976292268E-010
   2.7400000000000008E-002    -4.2206083072926504E-010
   2.8500000000000025E-002    -5.1793214161932610E-010
   2.9600000000000015E-002    -4.1937744943432165E-010
   3.0700000000000005E-002    -1.2826865958270872E-010
   3.1800000000000023E-002     2.6820992649057018E-010
   3.2900000000000013E-002     6.2765526109842540E-010
   3.4000000000000002E-002     8.0989059902947247E-010
   3.5100000000000020E-002     7.3279121659552970E-010
   3.6200000000000010E-002     4.0057723804665102E-010
   3.7300000000000028E-002    -1.0290622520781056E-010
   3.8400000000000017E-002    -6.4369121144380870E-010
   3.9500000000000007E-002    -1.0711257436568644E-009
   4.0600000000000025E-002    -1.2458442055773844E-009
   4.1700000000000015E-002    -1.0673283368234365E-009
   4.2800000000000005E-002    -5.0982640331653784E-010
   4.3900000000000022E-002     3.3810110267040727E-010
   4.5000000000000012E-002     1.2557050954598026E-009
   4.6100000000000002E-002     1.9265127271239635E-009
   4.7200000000000020E-002     2.0419110846603417E-009
   4.8300000000000010E-002     1.4431218442467753E-009
   4.9400000000000027E-002     2.3489077349836407E-010
   5.0500000000000017E-002    -1.2011709404902149E-009
   5.1600000000000007E-002    -2.3263500015247018E-009
   5.2700000000000025E-002    -2.6625073257235954E-009
   5.3800000000000014E-002    -2.0130972444576400E-009
   5.4900000000000004E-002    -5.7879578907460427E-010
   5.6000000000000022E-002     1.0971829000894218E-009
   5.7100000000000012E-002     2.3379163049952467E-009
   5.8200000000000002E-002     2.6048445622706140E-009
   5.9300000000000019E-002     1.7148382713827459E-009
   6.0400000000000009E-002    -8.2538142986976482E-011
   6.1500000000000027E-002    -2.1808017613977881E-009
   6.2600000000000017E-002    -3.7933642893506203E-009
   6.3700000000000007E-002    -4.1573664510963226E-009
   6.4800000000000024E-002    -2.7161484172921746E-009
   6.5900000000000014E-002     7.2498584913205377E-010
   6.7000000000000004E-002     5.8563580651593838E-009
   6.8100000000000022E-002     1.1746360328857008E-008
   6.9200000000000012E-002     1.6807424785270086E-008
   7.0300000000000029E-002     1.8925160105709438E-008
   7.1400000000000019E-002     1.5787486873364287E-008
   7.2500000000000009E-002     5.3507211994485715E-009
   7.3600000000000027E-002    -1.3721694891444258E-008
   7.4700000000000016E-002    -4.1847091125646330E-008
   7.5800000000000006E-002    -7.8672002246094053E-008
   7.6900000000000024E-002    -1.2357551781860820E-007
   7.8000000000000014E-002    -1.7638006966080866E-007
   7.9100000000000004E-002    -2.3804743420896557E-007
   8.0200000000000021E-002    -3.1115891374611238E-007
   8.1300000000000011E-002    -4.0007350321502599E-007
   8.2400000000000029E-002    -5.1077381613140460E-007
   8.3500000000000019E-002    -6.5050585362769198E-007
   8.4600000000000009E-002    -8.2737784623532207E-007
   8.5700000000000026E-002    -1.0500933740331675E-006
   8.6800000000000016E-002    -1.3279743598104687E-006
   8.7900000000000006E-002    -1.6713521517885965E-006
   8.9000000000000024E-002    -2.0923048396070953E-006
   9.0100000000000013E-002    -2.6056120532302884E-006
   9.1200000000000003E-002    -3.2297239158651792E-006
   9.2300000000000021E-002    -3.9875744732853491E-006
   9.3400000000000011E-002    -4.9071441026171669E-006
   9.4500000000000028E-002    -6.0218267208256293E-006
   9.5600000000000018E-002    -7.3707487899810076E-006
   9.6700000000000008E-002    -8.9992336143041030E-006
   9.7800000000000026E-002    -1.0959547580569051E-005
   9.8900000000000016E-002    -1.3311928341863677E-005
  0.10000000000000001         -1.6125850379467010E-005
  0.10110000000000002         -1.9481372873997316E-005
  0.10220000000000001         -2.3470522137358785E-005
  0.10330000000000003         -2.8198726795380935E-005
  0.10440000000000002         -3.3786323911044747E-005
  0.10550000000000001         -4.0370243368670344E-005
  0.10660000000000003         -4.8105794121511281E-005
  0.10770000000000002         -5.7168494095094502E-005
  0.10880000000000001         -6.7755740019492805E-005
  0.10990000000000003         -8.0088255344890058E-005
  0.11100000000000002         -9.4411472673527896E-005
  0.11210000000000001         -1.1099681432824582E-004
  0.11320000000000002         -1.3014310388825834E-004
  0.11430000000000001         -1.5217812324408442E-004
  0.11540000000000003         -1.7745993682183325E-004
  0.11650000000000002         -2.0637792476918548E-004
  0.11760000000000001         -2.3935313220135868E-004
  0.11870000000000003         -2.7683781809173524E-004
  0.11980000000000002         -3.1931456760503352E-004
  0.12090000000000001         -3.6729482235386968E-004
  0.12200000000000003         -4.2131709051318467E-004
  0.12310000000000001         -4.8194441478699446E-004
  0.12420000000000003         -5.4976093815639615E-004
  0.12530000000000002         -6.2536681070923805E-004
  0.12640000000000001         -7.0937268901616335E-004
  0.12750000000000003         -8.0239283852279186E-004
  0.12860000000000002         -9.0503785759210587E-004
  0.12970000000000001         -1.0179060045629740E-003
  0.13080000000000003         -1.1415736516937613E-003
  0.13190000000000002         -1.2765841092914343E-003
  0.13300000000000001         -1.4234347036108375E-003
  0.13410000000000000         -1.5825630398467183E-003
  0.13520000000000004         -1.7543311696499586E-003
  0.13630000000000003         -1.9390106899663806E-003
  0.13740000000000002         -2.1367669105529785E-003
  0.13850000000000001         -2.3476427886635065E-003
  0.13960000000000000         -2.5715436786413193E-003
  0.14070000000000005         -2.8082218486815691E-003
  0.14180000000000004         -3.0572609975934029E-003
  0.14290000000000003         -3.3180620521306992E-003
  0.14400000000000002         -3.5898275673389435E-003
  0.14510000000000001         -3.8715510163456202E-003
  0.14620000000000000         -4.1620046831667423E-003
  0.14730000000000004         -4.4597331434488297E-003
  0.14840000000000003         -4.7630458138883114E-003
  0.14950000000000002         -5.0700185820460320E-003
  0.15060000000000001         -5.3784935735166073E-003
  0.15170000000000000         -5.6860847398638725E-003
  0.15280000000000005         -5.9901918284595013E-003
  0.15390000000000004         -6.2880138866603374E-003
  0.15500000000000003         -6.5765674225986004E-003
  0.15610000000000002         -6.8527110852301121E-003
  0.15720000000000001         -7.1131712757050991E-003
  0.15830000000000000         -7.3545784689486027E-003
  0.15940000000000004         -7.5735012069344521E-003
  0.16050000000000003         -7.7664889395236969E-003
  0.16160000000000002         -7.9301157966256142E-003
  0.16270000000000001         -8.0610280856490135E-003
  0.16380000000000000         -8.1560024991631508E-003
  0.16490000000000005         -8.2119898870587349E-003
  0.16600000000000004         -8.2261702045798302E-003
  0.16710000000000003         -8.1960046663880348E-003
  0.16820000000000002         -8.1192841753363609E-003
  0.16930000000000001         -7.9941796138882637E-003
  0.17040000000000000         -7.8192846849560738E-003
  0.17150000000000004         -7.5936592184007168E-003
  0.17260000000000003         -7.3168668895959854E-003
  0.17370000000000002         -6.9890022277832031E-003
  0.17480000000000001         -6.6107157617807388E-003
  0.17590000000000000         -6.1832289211452007E-003
  0.17700000000000005         -5.7083419524133205E-003
  0.17810000000000004         -5.1884320564568043E-003
  0.17920000000000003         -4.6264403499662876E-003
  0.18030000000000002         -4.0258504450321198E-003
  0.18140000000000001         -3.3906602766364813E-003
  0.18250000000000000         -2.7253455482423306E-003
  0.18360000000000004         -2.0348108373582363E-003
  0.18470000000000003         -1.3243352295830846E-003
  0.18580000000000002         -5.9951085131615400E-004
  0.18690000000000001          1.3382355973590165E-004
  0.18800000000000000          8.6965702939778566E-004
  0.18910000000000005          1.6018819296732545E-003
  0.19020000000000004          2.3243746254593134E-003
  0.19130000000000003          3.0310754664242268E-003
  0.19240000000000002          3.7160695064812899E-003
  0.19350000000000001          4.3736658990383148E-003
  0.19460000000000005          4.9984725192189217E-003
  0.19570000000000004          5.5854627862572670E-003
  0.19680000000000003          6.1300434172153473E-003
  0.19790000000000002          6.6281100735068321E-003
  0.19900000000000001          7.0760953240096569E-003
  0.20010000000000000          7.4710147455334663E-003
  0.20120000000000005          7.8104934655129910E-003
  0.20230000000000004          8.0927917733788490E-003
  0.20340000000000003          8.3168158307671547E-003
  0.20450000000000002          8.4821199998259544E-003
  0.20560000000000000          8.5888970643281937E-003
  0.20670000000000005          8.6379582062363625E-003
  0.20780000000000004          8.6307087913155556E-003
  0.20890000000000003          8.5691101849079132E-003
