 -0.12000000000000000          0.0000000000000000
 -0.11889999999999999          0.0000000000000000
 -0.11780000000000000          0.0000000000000000
 -0.11670000000000000          0.0000000000000000
 -0.11559999999999999         -8.5477461332524538E-018
 -0.11449999999999999          2.5643240881299199E-017
 -0.11340000000000000          1.4531169170991723E-016
 -0.11230000000000000          2.9917124287683083E-017
 -0.11119999999999999         -3.2481434479178712E-016
 -0.11009999999999999         -6.1116386465757239E-016
 -0.10900000000000000         -8.5478329872167719E-018
 -0.10790000000000000          1.3804609455127606E-015
 -0.10679999999999999          3.0429974149883592E-015
 -0.10569999999999999          2.3805471347426374E-015
 -0.10460000000000000          3.5045739376718421E-016
 -0.10349999999999999         -4.2097656063151342E-015
 -0.10239999999999999         -9.3854265993068703E-015
 -0.10130000000000000         -1.0800080041438800E-014
 -0.10020000000000000         -3.3592678707900902E-015
  -9.9099999999999994E-002     1.2424145439120411E-014
  -9.7999999999999990E-002     2.5198750760167289E-014
  -9.6899999999999986E-002     2.9767519422714897E-014
  -9.5799999999999996E-002     2.0659894219119020E-014
  -9.4699999999999993E-002    -4.3123472254582608E-015
  -9.3599999999999989E-002    -3.5986021969377710E-014
  -9.2499999999999999E-002    -4.4136301736866571E-014
  -9.1399999999999995E-002    -2.6027904535970946E-014
  -9.0299999999999991E-002     1.5603891876520004E-014
  -8.9200000000000002E-002     5.1765127693234950E-014
  -8.8099999999999984E-002     6.4813253505477397E-014
  -8.6999999999999994E-002     2.9994005868415330E-014
  -8.5899999999999990E-002    -2.6370210878747143E-015
  -8.4799999999999986E-002    -3.9644496181972383E-014
  -8.3699999999999997E-002    -6.1334414652204627E-014
  -8.2599999999999993E-002    -7.8647883290563353E-014
  -8.1499999999999989E-002    -1.8130204911155634E-013
  -8.0399999999999999E-002    -3.3209711564931299E-013
  -7.9299999999999995E-002    -4.6210404209753864E-013
  -7.8199999999999992E-002    -3.7875922558917863E-013
  -7.7100000000000002E-002    -1.0832135833921050E-013
  -7.5999999999999984E-002     3.5249190719066625E-013
  -7.4899999999999994E-002     8.7019898665358086E-013
  -7.3799999999999991E-002     9.8527306105489210E-013
  -7.2699999999999987E-002     3.5635128745395428E-013
  -7.1599999999999997E-002    -1.0275075061627614E-012
  -7.0499999999999993E-002    -2.4726366787408693E-012
  -6.9399999999999989E-002    -2.4341505373837169E-012
  -6.8300000000000000E-002    -6.9760316230224606E-013
  -6.7199999999999996E-002     1.3715539121106346E-012
  -6.6099999999999992E-002     2.0577541406940902E-012
  -6.5000000000000002E-002     3.9817921095725017E-013
  -6.3899999999999985E-002    -1.9441210794002295E-012
  -6.2799999999999995E-002    -3.1660511885800435E-012
  -6.1699999999999991E-002    -2.1822526424797317E-012
  -6.0599999999999994E-002    -1.3735119812341434E-012
  -5.9499999999999990E-002     2.7550634299974841E-013
  -5.8399999999999994E-002     2.4146865063023881E-012
  -5.7299999999999990E-002     4.6238902463857645E-012
  -5.6199999999999986E-002     3.4719833345159268E-012
  -5.5099999999999996E-002     1.3397525276681588E-012
  -5.3999999999999992E-002    -1.0725709599992972E-012
  -5.2899999999999989E-002    -1.1041075822712521E-012
  -5.1799999999999985E-002    -1.8358756355418837E-012
  -5.0699999999999995E-002    -5.3685688707061363E-012
  -4.9599999999999991E-002    -1.0021631961787403E-011
  -4.8499999999999988E-002    -5.9918268263681185E-012
  -4.7399999999999998E-002     1.8484734576329487E-011
  -4.6299999999999994E-002     4.7442775402695148E-011
  -4.5199999999999990E-002     5.1192491218321479E-011
  -4.4099999999999986E-002     9.0070294972433018E-012
  -4.2999999999999997E-002    -6.2868238392965736E-011
  -4.1899999999999993E-002    -1.2129906801217061E-010
  -4.0799999999999989E-002    -1.3043360835851558E-010
  -3.9699999999999985E-002    -8.6910742491674853E-011
  -3.8599999999999995E-002    -2.5461948521821043E-011
  -3.7499999999999992E-002     1.1338705148411510E-011
  -3.6399999999999988E-002    -4.5180456598181706E-012
  -3.5299999999999984E-002    -2.9337757917469176E-011
  -3.4199999999999994E-002     1.3064740261858887E-011
  -3.3099999999999991E-002     1.3613388194499976E-010
  -3.1999999999999987E-002     2.8385116479512362E-010
  -3.0899999999999997E-002     3.3745733984957837E-010
  -2.9799999999999993E-002     2.5885985022178204E-010
  -2.8699999999999989E-002     4.5817932781133663E-011
  -2.7599999999999986E-002    -2.2996472781589006E-010
  -2.6499999999999996E-002    -4.0715480986719399E-010
  -2.5399999999999992E-002    -4.4541897947780740E-010
  -2.4299999999999988E-002    -3.8509057054270102E-010
  -2.3199999999999985E-002    -3.2924363235764531E-010
  -2.2099999999999995E-002    -3.4061892195680343E-010
  -2.0999999999999991E-002    -4.1473491307897348E-010
  -1.9899999999999987E-002    -5.2022125496264948E-010
  -1.8799999999999983E-002    -5.9433724608481953E-010
  -1.7699999999999994E-002    -6.4156435719553428E-010
  -1.6599999999999990E-002    -4.2886560969179754E-010
  -1.5499999999999986E-002    -1.2653723902023017E-010
  -1.4399999999999996E-002     1.3993928238420494E-010
  -1.3299999999999992E-002     1.8234178056353301E-010
  -1.2199999999999989E-002    -2.0547787082936253E-010
  -1.1099999999999985E-002    -8.8011237187046731E-010
  -9.9999999999999950E-003    -1.3710060864369211E-009
  -8.8999999999999913E-003    -1.2658629700013080E-009
  -7.7999999999999875E-003    -4.8849779776816149E-010
  -6.6999999999999837E-003     4.4123782405591783E-010
  -5.5999999999999939E-003     9.4971419617451147E-010
  -4.4999999999999901E-003     1.0010795525872140E-009
  -3.3999999999999864E-003     5.0640458493234064E-010
  -2.2999999999999826E-003    -5.0759934450139710E-012
  -1.1999999999999927E-003    -2.8075153313267265E-011
  -9.9999999999988987E-005    -2.9307428706104588E-010
   1.0000000000000148E-003    -1.5888139692776804E-009
   2.1000000000000185E-003    -2.4632944572999804E-009
   3.2000000000000084E-003    -1.9395527406373958E-009
   4.3000000000000121E-003    -5.9121862960864746E-010
   5.4000000000000159E-003    -6.7695843375403797E-010
   6.5000000000000058E-003    -2.0533645894715846E-009
   7.6000000000000234E-003    -3.1788081056305373E-009
   8.7000000000000133E-003    -3.0852886911958421E-009
   9.8000000000000032E-003    -2.0237693743041518E-009
   1.0900000000000021E-002    -1.1415093315036984E-009
   1.2000000000000011E-002    -7.9702699995465309E-010
   1.3100000000000001E-002    -1.3129889397944794E-009
   1.4200000000000018E-002    -7.5339545713148937E-010
   1.5300000000000008E-002     9.5345709105743026E-010
   1.6400000000000026E-002     4.2377910070001690E-009
   1.7500000000000016E-002     6.3031624364384697E-009
   1.8600000000000005E-002     4.2097196839563367E-009
   1.9700000000000023E-002    -2.1859452026262716E-009
   2.0800000000000013E-002    -9.8005727977579227E-009
   2.1900000000000003E-002    -1.1535497890236002E-008
   2.3000000000000020E-002    -8.3228677283386787E-009
   2.4100000000000010E-002    -4.0346823659831443E-009
   2.5200000000000000E-002    -8.2205253715272875E-010
   2.6300000000000018E-002     1.2433181151294548E-009
   2.7400000000000008E-002     3.1652811482985044E-009
   2.8500000000000025E-002     4.5853187913280635E-009
   2.9600000000000015E-002     3.8542449232181752E-009
   3.0700000000000005E-002     3.0514679671966860E-009
   3.1800000000000023E-002     2.2486907891305918E-009
   3.2900000000000013E-002     1.9109908100389816E-010
   3.4000000000000002E-002    -2.9420479386033094E-009
   3.5100000000000020E-002    -7.1328245532242818E-009
   3.6200000000000010E-002    -9.3607130935424721E-009
   3.7300000000000028E-002    -6.6813798937914726E-009
   3.8400000000000017E-002     1.4384711199966205E-009
   3.9500000000000007E-002     1.0185728704925623E-008
   4.0600000000000025E-002     1.4881727850024618E-008
   4.1700000000000015E-002     1.1726172033377225E-008
   4.2800000000000005E-002     3.0494324843033382E-009
   4.3900000000000022E-002    -5.1970849845872635E-009
   4.5000000000000012E-002    -7.7790112129605404E-009
   4.6100000000000002E-002    -3.9076049063169194E-009
   4.7200000000000020E-002     1.4695794581243149E-009
   4.8300000000000010E-002     4.4805421595128792E-009
   4.9400000000000027E-002     7.4915051939683508E-009
   5.0500000000000017E-002     1.1362912388790392E-008
   5.1600000000000007E-002     1.5377727535792474E-008
   5.2700000000000025E-002     1.4516690072241545E-008
   5.3800000000000014E-002     7.2023214059413476E-009
   5.4900000000000004E-002    -3.1236033759540760E-009
   5.6000000000000022E-002    -7.1396026868342233E-009
   5.7100000000000012E-002    -4.0004799473081221E-010
   5.8200000000000002E-002     7.7735808901024939E-009
   5.9300000000000019E-002     7.1993593309116477E-009
   6.0400000000000009E-002    -6.1381193461329531E-009
   6.1500000000000027E-002    -2.1913523440275640E-008
   6.2600000000000017E-002    -3.1235593667133799E-008
   6.3700000000000007E-002    -2.7220778520131717E-008
   6.4800000000000024E-002    -1.3382559060914900E-008
   6.5900000000000014E-002     2.1765487190350541E-009
   6.7000000000000004E-002     1.2644693292429565E-008
   6.8100000000000022E-002     1.5512247486526576E-008
   6.9200000000000012E-002     1.3360543782425793E-008
   7.0300000000000029E-002     8.0180244665939426E-009
   7.1400000000000019E-002    -1.1964935708874691E-009
   7.2500000000000009E-002    -1.4731159403424954E-008
   7.3600000000000027E-002    -2.7683233483344338E-008
   7.4700000000000016E-002    -3.0814142348845053E-008
   7.5800000000000006E-002    -2.3059534726144193E-008
   7.6900000000000024E-002    -1.0644185977071174E-008
   7.8000000000000014E-002     1.2197926002599502E-010
   7.9100000000000004E-002     9.7408863197756546E-009
   8.0200000000000021E-002     2.0507053832830024E-008
   8.1300000000000011E-002     2.8118256167886102E-008
   8.2400000000000029E-002     2.6121163898551458E-008
   8.3500000000000019E-002     9.7474828208987674E-009
   8.4600000000000009E-002    -1.4692866479038003E-008
   8.5700000000000026E-002    -3.5117810881502010E-008
   8.6800000000000016E-002    -3.8262161439206466E-008
   8.7900000000000006E-002    -2.7782812495047438E-008
   8.9000000000000024E-002    -1.4005093085245335E-008
   9.0100000000000013E-002    -5.2466315736410252E-009
   9.1200000000000003E-002    -1.2923173642320762E-009
   9.2300000000000021E-002     4.8131072460932955E-009
   9.3400000000000011E-002     1.7371865723703195E-008
   9.4500000000000028E-002     3.1579808990045422E-008
   9.5600000000000018E-002     3.5964347944172914E-008
   9.6700000000000008E-002     2.5542073345263816E-008
   9.7800000000000026E-002     5.3322422033375005E-009
   9.8900000000000016E-002    -1.0467810618308704E-008
  0.10000000000000001         -1.4042384144374864E-008
  0.10110000000000002         -9.1200700325089201E-009
  0.10220000000000001         -6.7432366357422779E-009
  0.10330000000000003         -1.0963143282083365E-008
  0.10440000000000002         -1.4501865486238330E-008
  0.10550000000000001         -7.4284409734559631E-009
  0.10660000000000003          1.1529870391768782E-008
  0.10770000000000002          3.0685367136129571E-008
  0.10880000000000001          3.5249161811634622E-008
  0.10990000000000003          2.1636072489172875E-008
  0.11100000000000002          2.1074260114772869E-009
  0.11210000000000001         -7.5798878285127103E-009
  0.11320000000000002         -3.7958693965833845E-009
  0.11430000000000001          3.0893334557191565E-009
  0.11540000000000003          8.2335249729226234E-010
  0.11650000000000002         -9.9439976253279383E-009
  0.11760000000000001         -1.5445607459696475E-008
  0.11870000000000003         -4.8979158506767817E-009
  0.11980000000000002          1.5207408665673938E-008
  0.12090000000000001          2.7073530972643312E-008
  0.12200000000000003          1.8486176145415811E-008
  0.12310000000000001         -2.4790294261833878E-009
  0.12420000000000003         -1.5032497913125553E-008
  0.12530000000000002         -6.3123746230075994E-009
  0.12640000000000001          1.4301599016164346E-008
  0.12750000000000003          2.5096646538713685E-008
  0.12860000000000002          1.3708367774256658E-008
  0.12970000000000001         -8.7715772423280214E-009
  0.13080000000000003         -1.8985709004937235E-008
  0.13190000000000002         -5.0536215212559910E-009
  0.13300000000000001          2.0225574104415500E-008
  0.13410000000000000          3.2011033823664548E-008
  0.13520000000000004          1.7969718157928583E-008
  0.13630000000000003         -8.9065572694835282E-009
  0.13740000000000002         -2.3539429960806046E-008
  0.13850000000000001         -1.3277678512224611E-008
  0.13960000000000000          9.1064791263306688E-009
  0.14070000000000005          1.8924565026168239E-008
  0.14180000000000004          5.1028399283836734E-009
  0.14290000000000003         -1.7726664580663964E-008
  0.14400000000000002         -2.4767912165657435E-008
  0.14510000000000001         -7.4074968381410145E-009
  0.14620000000000000          1.7746213387681564E-008
  0.14730000000000004          2.5708965623039148E-008
  0.14840000000000003          9.4537950801054649E-009
  0.14950000000000002         -1.2837930718490043E-008
  0.15060000000000001         -1.6957253379246140E-008
  0.15170000000000000          2.1307720032837096E-009
  0.15280000000000005          2.5314871976434006E-008
  0.15390000000000004          2.9080714725182588E-008
  0.15500000000000003          9.6974686059070336E-009
  0.15610000000000002         -1.2959498363329658E-008
  0.15720000000000001         -1.6606024999532565E-008
  0.15830000000000000         -3.8832936866128875E-011
  0.15940000000000004          1.6752434106592773E-008
  0.16050000000000003          1.5046389023609663E-008
  0.16160000000000002         -2.2496076113043273E-009
  0.16270000000000001         -1.3990810288078137E-008
  0.16380000000000000         -5.2964610475214613E-009
  0.16490000000000005          1.4611673648801116E-008
  0.16600000000000004          2.1024948893000328E-008
  0.16710000000000003          1.5408678777362184E-009
  0.16820000000000002         -2.7708360050837655E-008
  0.16930000000000001         -3.6220654919816297E-008
  0.17040000000000000         -1.0626642676925258E-008
  0.17150000000000004          2.8625803949466899E-008
  0.17260000000000003          4.5128015102591235E-008
  0.17370000000000002          2.2505213692625148E-008
  0.17480000000000001         -1.8570643689486133E-008
  0.17590000000000000         -3.9809783913824504E-008
  0.17700000000000005         -2.3121030423567390E-008
  0.17810000000000004          1.1858325876801246E-008
  0.17920000000000003          2.8447928457353555E-008
  0.18030000000000002          1.0852234666458571E-008
  0.18140000000000001         -1.9501115389175538E-008
  0.18250000000000000         -2.6677367870320268E-008
  0.18360000000000004          1.6133760993852775E-009
  0.18470000000000003          3.9426147679932910E-008
  0.18580000000000002          4.7949640702427132E-008
  0.18690000000000001          1.4673242176854728E-008
  0.18800000000000000         -3.2573897357224268E-008
  0.18910000000000005         -5.2166381436791198E-008
  0.19020000000000004         -2.8965763121391319E-008
  0.19130000000000003          1.1964155000043775E-008
  0.19240000000000002          3.1438698755437144E-008
  0.19350000000000001          1.4798111180880369E-008
  0.19460000000000005         -1.5696134170184450E-008
  0.19570000000000004         -2.6043041501111475E-008
  0.19680000000000003         -5.9220450765451460E-009
  0.19790000000000002          2.2030340218748279E-008
  0.19900000000000001          2.7527146784223078E-008
  0.20010000000000000          4.7158392746382560E-009
  0.20120000000000005         -2.2660696430421012E-008
  0.20230000000000004         -2.7309120298468770E-008
  0.20340000000000003         -7.1909207477460768E-009
  0.20450000000000002          1.3639275486809765E-008
  0.20560000000000000          1.2287261874632804E-008
  0.20670000000000005         -7.9911668393606305E-009
  0.20780000000000004         -2.1493034907393849E-008
  0.20890000000000003         -8.7467313392153301E-009
