 -0.12000000000000000          0.0000000000000000
 -0.11889999999999999          0.0000000000000000
 -0.11780000000000000          0.0000000000000000
 -0.11670000000000000          0.0000000000000000
 -0.11559999999999999          0.0000000000000000
 -0.11449999999999999          0.0000000000000000
 -0.11340000000000000          0.0000000000000000
 -0.11230000000000000         -3.8211401660109682E-025
 -0.11119999999999999          4.0440402103521515E-024
 -0.11009999999999999          9.1070512631173788E-024
 -0.10900000000000000         -8.2472930617614390E-024
 -0.10790000000000000         -3.1842820089962118E-024
 -0.10679999999999999         -8.7790689311363544E-023
 -0.10569999999999999         -2.5665311872326981E-023
 -0.10460000000000000         -2.8754062036840023E-023
 -0.10349999999999999          9.8585443005746144E-023
 -0.10239999999999999          2.2592494173744507E-022
 -0.10130000000000000         -6.9016155701143899E-022
 -0.10020000000000000         -1.6062481314909699E-021
  -9.9099999999999994E-002    -4.6091868902582841E-021
  -9.7999999999999990E-002    -1.1785830926368928E-020
  -9.6899999999999986E-002     1.9060478901402199E-021
  -9.5799999999999996E-002     3.2292743373158066E-020
  -9.4699999999999993E-002     6.2679442895143747E-020
  -9.3599999999999989E-002     8.4718733276081512E-020
  -9.2499999999999999E-002     1.4014764729651387E-019
  -9.1399999999999995E-002     2.6235584090767810E-019
  -9.0299999999999991E-002     5.1812256785091191E-019
  -8.9200000000000002E-002     7.4049963238055992E-019
  -8.8099999999999984E-002     4.2864258943132371E-019
  -8.6999999999999994E-002    -4.1744863854497915E-019
  -8.5899999999999990E-002    -1.2635398923706762E-018
  -8.4799999999999986E-002    -1.1747213740977948E-018
  -8.3699999999999997E-002     1.1612406048598650E-019
  -8.2599999999999993E-002     1.6740865875833011E-018
  -8.1499999999999989E-002     2.1635808480240590E-018
  -8.0399999999999999E-002     7.8325566766523680E-019
  -7.9299999999999995E-002    -6.2835456913489491E-020
  -7.8199999999999992E-002    -9.0892652979342750E-019
  -7.7100000000000002E-002    -6.8654931016741463E-019
  -7.5999999999999984E-002    -9.9840627556846842E-019
  -7.4899999999999994E-002    -5.0499020708698942E-018
  -7.3799999999999991E-002    -1.3375271449785430E-017
  -7.2699999999999987E-002    -1.4221362238322032E-017
  -7.1599999999999997E-002    -5.4512385235520475E-018
  -7.0499999999999993E-002     6.5242903013803371E-018
  -6.9399999999999989E-002     4.6097336243314390E-018
  -6.8300000000000000E-002     9.1059855132461156E-018
  -6.7199999999999996E-002     3.2834669717496417E-017
  -6.6099999999999992E-002     7.5795777138095604E-017
  -6.5000000000000002E-002     7.6018156373974360E-017
  -6.3899999999999985E-002     1.4477546691474605E-018
  -6.2799999999999995E-002    -1.5005236306213214E-016
  -6.1699999999999991E-002    -3.0155246424979948E-016
  -6.0599999999999994E-002    -2.1371567701512057E-016
  -5.9499999999999990E-002     1.9038770143346749E-016
  -5.8399999999999994E-002     7.4835053840474055E-016
  -5.7299999999999990E-002     9.4730798980293502E-016
  -5.6199999999999986E-002     3.0858635819269720E-016
  -5.5099999999999996E-002    -9.2206672561211209E-016
  -5.3999999999999992E-002    -1.9304785075596699E-015
  -5.2899999999999989E-002    -1.7593011957325747E-015
  -5.1799999999999985E-002    -6.6625123471740705E-017
  -5.0699999999999995E-002     2.2585843429751484E-015
  -4.9599999999999991E-002     3.3529185118174720E-015
  -4.8499999999999988E-002     2.1906474301659068E-015
  -4.7399999999999998E-002    -8.1793673024140468E-016
  -4.6299999999999994E-002    -3.5871841081054883E-015
  -4.5199999999999990E-002    -4.3049721095865176E-015
  -4.4099999999999986E-002    -2.4584364729238802E-015
  -4.2999999999999997E-002     1.5079405687448352E-015
  -4.1899999999999993E-002     5.4743176104135507E-015
  -4.0799999999999989E-002     7.3208540941091353E-015
  -3.9699999999999985E-002     4.5174155960544214E-015
  -3.8599999999999995E-002    -2.5598955616536580E-015
  -3.7499999999999992E-002    -9.8081621085566520E-015
  -3.6399999999999988E-002    -1.1175579064319052E-014
  -3.5299999999999984E-002    -3.7901035561144648E-015
  -3.4199999999999994E-002     8.4034790912468522E-015
  -3.3099999999999991E-002     1.6767671100334156E-014
  -3.1999999999999987E-002     1.3096637083197596E-014
  -3.0899999999999997E-002    -1.0268404236710854E-014
  -2.9799999999999993E-002    -4.1155460658338916E-014
  -2.8699999999999989E-002    -5.2656233458800786E-014
  -2.7599999999999986E-002    -2.8153896247207037E-014
  -2.6499999999999996E-002     3.6146744777053319E-014
  -2.5399999999999992E-002     1.1207232516151355E-013
  -2.4299999999999988E-002     1.7488567289215134E-013
  -2.3199999999999985E-002     1.5386272171711429E-013
  -2.2099999999999995E-002    -2.4849039655366195E-014
  -2.0999999999999991E-002    -3.3068290944057721E-013
  -1.9899999999999987E-002    -5.5746721258284615E-013
  -1.8799999999999983E-002    -4.2702408449557527E-013
  -1.7699999999999994E-002     8.8546344193494997E-014
  -1.6599999999999990E-002     6.8398699247865236E-013
  -1.5499999999999986E-002     9.7854699603744377E-013
  -1.4399999999999996E-002     5.9913434890396244E-013
  -1.3299999999999992E-002    -1.5665272627262555E-013
  -1.2199999999999989E-002    -6.0390039323399147E-013
  -1.1099999999999985E-002    -4.0124576838190817E-013
  -9.9999999999999950E-003    -1.8108538485991227E-013
  -8.8999999999999913E-003    -2.6289978223917321E-013
  -7.7999999999999875E-003    -3.1407905790037383E-013
  -6.6999999999999837E-003    -1.0267156048959780E-013
  -5.5999999999999939E-003     3.9758138187934167E-013
  -4.4999999999999901E-003     4.3393102154044849E-013
  -3.3999999999999864E-003    -2.3755411700243645E-015
  -2.2999999999999826E-003    -9.6385562291939619E-013
  -1.1999999999999927E-003    -1.7152661669489477E-012
  -9.9999999999988987E-005     5.4156115356085444E-014
   1.0000000000000148E-003     3.0839952987193886E-012
   2.1000000000000185E-003     4.3982673406106620E-012
   3.2000000000000084E-003     2.2463944766848432E-012
   4.3000000000000121E-003    -2.6713926210009120E-012
   5.4000000000000159E-003    -7.7992490937761616E-012
   6.5000000000000058E-003    -5.4346301764374161E-012
   7.6000000000000234E-003     1.2014005242033665E-012
   8.7000000000000133E-003     7.4172924746651603E-012
   9.8000000000000032E-003     1.5892048961518856E-012
   1.0900000000000021E-002    -1.4322214421380597E-011
   1.2000000000000011E-002    -3.1354002727468355E-011
   1.3100000000000001E-002    -2.6678621117826040E-011
   1.4200000000000018E-002    -9.9629592770211772E-013
   1.5300000000000008E-002     3.2808714078846890E-011
   1.6400000000000026E-002     4.9247980693500892E-011
   1.7500000000000016E-002     4.1039102671724947E-011
   1.8600000000000005E-002     3.6751521964584200E-011
   1.9700000000000023E-002     2.8542647412255207E-011
   2.0800000000000013E-002    -9.5326264243356107E-013
   2.1900000000000003E-002    -3.9412136748628868E-011
   2.3000000000000020E-002    -5.4903422086471920E-011
   2.4100000000000010E-002    -3.6223420096792580E-011
   2.5200000000000000E-002    -5.2193427531321834E-012
   2.6300000000000018E-002     1.0099553138243067E-011
   2.7400000000000008E-002     3.5501778600233180E-011
   2.8500000000000025E-002     1.0683917639475737E-010
   2.9600000000000015E-002     2.1066731692442886E-010
   3.0700000000000005E-002     2.4615287586016166E-010
   3.1800000000000023E-002     1.2254586234661247E-010
   3.2900000000000013E-002    -1.7359816362194636E-010
   3.4000000000000002E-002    -3.1961261415247577E-010
   3.5100000000000020E-002    -1.4296044903439054E-010
   3.6200000000000010E-002     8.5228754609367741E-011
   3.7300000000000028E-002     9.1584677341938203E-011
   3.8400000000000017E-002     2.3996162695771872E-011
   3.9500000000000007E-002     1.6927798052179810E-010
   4.0600000000000025E-002     3.9074496416269255E-010
   4.1700000000000015E-002     5.6291565853072711E-010
   4.2800000000000005E-002     2.8693830644854756E-010
   4.3900000000000022E-002    -2.5344643050928539E-010
   4.5000000000000012E-002    -8.0727563522842161E-010
   4.6100000000000002E-002    -7.3369754716168245E-010
   4.7200000000000020E-002    -1.2682319083801019E-010
   4.8300000000000010E-002     3.4112523916718374E-010
   4.9400000000000027E-002     2.1303675490358387E-010
   5.0500000000000017E-002    -7.0379235772577431E-010
   5.1600000000000007E-002    -1.5265103625594634E-009
   5.2700000000000025E-002    -1.3364136464133480E-009
   5.3800000000000014E-002    -3.6205782816267629E-010
   5.4900000000000004E-002     5.7196469782638815E-010
   5.6000000000000022E-002     1.2236539559395965E-009
   5.7100000000000012E-002     1.2389728132333744E-009
   5.8200000000000002E-002     9.9884733817390270E-010
   5.9300000000000019E-002     1.2046291741896198E-009
   6.0400000000000009E-002     1.3611146654213258E-009
   6.1500000000000027E-002     6.5715594077531136E-010
   6.2600000000000017E-002    -7.9857126467075545E-010
   6.3700000000000007E-002    -2.1366597380279018E-009
   6.4800000000000024E-002    -2.6843269829157634E-009
   6.5900000000000014E-002    -2.0197534755794777E-009
   6.7000000000000004E-002    -6.1797644779204575E-010
   6.8100000000000022E-002     1.0482079648710396E-009
   6.9200000000000012E-002     1.8001702351000404E-009
   7.0300000000000029E-002     1.8888732800093067E-009
   7.1400000000000019E-002     2.0313541959637860E-009
   7.2500000000000009E-002     2.0304276038274338E-009
   7.3600000000000027E-002     1.1063159277568957E-009
   7.4700000000000016E-002    -1.0994991583856972E-009
   7.5800000000000006E-002    -3.5562772726649428E-009
   7.6900000000000024E-002    -3.9515746230733839E-009
   7.8000000000000014E-002    -1.6221314291797739E-009
   7.9100000000000004E-002     2.6791635576728368E-009
   8.0200000000000021E-002     6.2634217812274073E-009
   8.1300000000000011E-002     5.9398281848643819E-009
   8.2400000000000029E-002     2.7480875353091960E-009
   8.3500000000000019E-002    -1.2098685941985821E-010
   8.4600000000000009E-002    -1.0002835226785578E-009
   8.5700000000000026E-002    -1.2700991369740677E-009
   8.6800000000000016E-002    -2.6333959457502942E-009
   8.7900000000000006E-002    -4.9826187620283235E-009
   8.9000000000000024E-002    -5.2524340432569261E-009
   9.0100000000000013E-002    -1.0586944654278341E-009
   9.1200000000000003E-002     5.3937108113188970E-009
   9.2300000000000021E-002     8.9421172688730621E-009
   9.3400000000000011E-002     6.1268208284559478E-009
   9.4500000000000028E-002    -1.2595859910646823E-009
   9.5600000000000018E-002    -7.3374009090798609E-009
   9.6700000000000008E-002    -7.3383272791716081E-009
   9.7800000000000026E-002    -3.1445877013425161E-009
   9.8900000000000016E-002     4.5300208029175337E-011
  0.10000000000000001         -3.3207048222294588E-010
  0.10110000000000002         -3.0398110695273317E-009
  0.10220000000000001         -3.9908112370312665E-009
  0.10330000000000003         -3.0108582294019470E-011
  0.10440000000000002          6.7808159087690001E-009
  0.10550000000000001          9.8990007302290905E-009
  0.10660000000000003          6.4473342220594532E-009
  0.10770000000000002         -1.3401650900135564E-009
  0.10880000000000001         -7.4908035330167877E-009
  0.10990000000000003         -7.9342772352219981E-009
  0.11100000000000002         -3.9276404351085148E-009
  0.11210000000000001          9.1255225598274592E-010
  0.11320000000000002          3.2431155538859002E-009
  0.11430000000000001          2.8310125355091031E-009
  0.11540000000000003          1.7018725317896610E-009
  0.11650000000000002          2.0785098087117149E-009
  0.11760000000000001          3.7278873321611172E-009
  0.11870000000000003          3.4591915998305467E-009
  0.11980000000000002          1.0393848004497386E-009
  0.12090000000000001         -2.4380515384336832E-009
  0.12200000000000003         -4.8937103258595016E-009
  0.12310000000000001         -5.0548507601888559E-009
  0.12420000000000003         -3.0648805715571825E-009
  0.12530000000000002         -1.5051324631087937E-009
  0.12640000000000001         -3.5768077388809161E-010
  0.12750000000000003          2.4568815870651406E-009
  0.12860000000000002          6.7592953456596661E-009
  0.12970000000000001          1.0308820463933444E-008
  0.13080000000000003          9.4844203601951449E-009
  0.13190000000000002          3.6049101481694379E-009
  0.13300000000000001         -3.4397851234047039E-009
  0.13410000000000000         -7.4191479626506407E-009
  0.13520000000000004         -7.4189561161119855E-009
  0.13630000000000003         -5.8592086737974114E-009
  0.13740000000000002         -4.6221275695756958E-009
  0.13850000000000001         -2.9368987242150979E-009
  0.13960000000000000          1.2758851752892042E-009
  0.14070000000000005          7.9086683868467844E-009
  0.14180000000000004          1.3465895953856943E-008
  0.14290000000000003          1.4236902323716549E-008
  0.14400000000000002          9.1999092788341841E-009
  0.14510000000000001          1.9401020789899803E-009
  0.14620000000000000         -2.1826687124359978E-009
  0.14730000000000004         -1.4116623425763919E-009
  0.14840000000000003          1.1519363241063729E-009
  0.14950000000000002          1.3313872226916601E-009
  0.15060000000000001         -1.9847168353237521E-009
  0.15170000000000000         -5.2649689052941540E-009
  0.15280000000000005         -4.4849994829121442E-009
  0.15390000000000004          1.3111733920823099E-010
  0.15500000000000003          3.8688638959172295E-009
  0.15610000000000002          2.0764634456327258E-009
  0.15720000000000001         -5.2281583506896823E-009
  0.15830000000000000         -1.2810631666582140E-008
  0.15940000000000004         -1.4782290946868670E-008
  0.16050000000000003         -9.9779517981346544E-009
  0.16160000000000002         -3.5087417415979871E-009
  0.16270000000000001         -1.1389658105542821E-009
  0.16380000000000000         -3.7103029537632892E-009
  0.16490000000000005         -6.9594641161074833E-009
  0.16600000000000004         -5.7988476243053810E-009
  0.16710000000000003         -4.6597281588844908E-010
  0.16820000000000002          4.0378278498565123E-009
  0.16930000000000001          2.8860001055619477E-009
  0.17040000000000000         -3.1954563439740014E-009
  0.17150000000000004         -8.4164684110987764E-009
  0.17260000000000003         -7.2289636499078824E-009
  0.17370000000000002         -2.3345925193041239E-010
  0.17480000000000001          6.3676748318641785E-009
  0.17590000000000000          6.9636252320037784E-009
  0.17700000000000005          1.5992056567881718E-009
  0.17810000000000004         -3.8010661285170499E-009
  0.17920000000000003         -3.9131906603984135E-009
  0.18030000000000002          1.1014997802760718E-009
  0.18140000000000001          5.7755977778128909E-009
  0.18250000000000000          4.9643635868790170E-009
  0.18360000000000004         -1.0095371205665060E-009
  0.18470000000000003         -6.7504011269647890E-009
  0.18580000000000002         -7.7408941479006899E-009
  0.18690000000000001         -4.7876844710970090E-009
  0.18800000000000000         -2.0854373783407709E-009
  0.18910000000000005         -2.6098567751375867E-009
  0.19020000000000004         -4.5324979325300774E-009
  0.19130000000000003         -3.0133622264116866E-009
  0.19240000000000002          3.2919951209464671E-009
  0.19350000000000001          9.5256478260807853E-009
  0.19460000000000005          9.3866354688998399E-009
  0.19570000000000004          1.4767360667633511E-009
  0.19680000000000003         -7.7776087792358339E-009
  0.19790000000000002         -9.9153618648983866E-009
  0.19900000000000001         -2.6420057253062623E-009
  0.20010000000000000          7.9924609153181336E-009
  0.20120000000000005          1.2801002924334171E-008
  0.20230000000000004          8.2701383519179217E-009
  0.20340000000000003          2.1683010942297187E-010
  0.20450000000000002         -2.4049240376911030E-009
  0.20560000000000000          3.3716165415142996E-009
  0.20670000000000005          1.1769823338170227E-008
  0.20780000000000004          1.3840179668989094E-008
  0.20890000000000003          6.5173511032412534E-009
