 -0.12000000000000000          0.0000000000000000
 -0.11889999999999999          0.0000000000000000
 -0.11780000000000000          0.0000000000000000
 -0.11670000000000000          0.0000000000000000
 -0.11559999999999999          0.0000000000000000
 -0.11449999999999999          0.0000000000000000
 -0.11340000000000000          0.0000000000000000
 -0.11230000000000000         -1.2737134297568282E-025
 -0.11119999999999999          1.8150415418773550E-024
 -0.11009999999999999         -2.1016272145655490E-024
 -0.10900000000000000         -1.0603664761867294E-023
 -0.10790000000000000         -3.1333350051543231E-023
 -0.10679999999999999          2.1302859001635041E-023
 -0.10569999999999999          6.5787301315508708E-023
 -0.10460000000000000          2.8961057876192568E-022
 -0.10349999999999999          7.7429042973141350E-022
 -0.10239999999999999          8.0247131805629442E-022
 -0.10130000000000000         -1.8105198385002824E-021
 -0.10020000000000000         -6.2495066436868951E-021
  -9.9099999999999994E-002    -6.5147888783495497E-021
  -9.7999999999999990E-002    -1.5629414095992151E-021
  -9.6899999999999986E-002     1.5910019366826210E-020
  -9.5799999999999996E-002     3.9643535585398831E-020
  -9.4699999999999993E-002     5.7116498179359782E-020
  -9.3599999999999989E-002     1.0940468496211072E-020
  -9.2499999999999999E-002    -8.5320009570876601E-020
  -9.1399999999999995E-002    -2.2749123791372781E-019
  -9.0299999999999991E-002    -3.1749115104709388E-019
  -8.9200000000000002E-002    -2.7393254377308743E-019
  -8.8099999999999984E-002     3.0386019682919739E-019
  -8.6999999999999994E-002     1.1153802641338532E-018
  -8.5899999999999990E-002     1.5930040691941688E-018
  -8.4799999999999986E-002     1.0021595042003512E-018
  -8.3699999999999997E-002    -9.2427031656597988E-019
  -8.2599999999999993E-002    -3.3849345291545308E-018
  -8.1499999999999989E-002    -5.5784816492295483E-018
  -8.0399999999999999E-002    -5.1008580509643858E-018
  -7.9299999999999995E-002    -3.4936117927784321E-019
  -7.8199999999999992E-002     8.1417749875981659E-018
  -7.7100000000000002E-002     1.5564442164034582E-017
  -7.5999999999999984E-002     1.2035310822162817E-017
  -7.4899999999999994E-002    -1.1100358501961480E-018
  -7.3799999999999991E-002    -1.7460786805536900E-017
  -7.2699999999999987E-002    -2.9537666762202957E-017
  -7.1599999999999997E-002    -2.9861392166731710E-017
  -7.0499999999999993E-002    -1.6295032896459793E-017
  -6.9399999999999989E-002     1.8640693774894790E-017
  -6.8300000000000000E-002     5.8785198270191715E-017
  -6.7199999999999996E-002     8.3971153856536899E-017
  -6.6099999999999992E-002     7.2829189824125226E-017
  -6.5000000000000002E-002     3.9115832611693330E-017
  -6.3899999999999985E-002     3.2655378319725548E-018
  -6.2799999999999995E-002    -3.2584755293386995E-017
  -6.1699999999999991E-002    -8.7667479906901558E-017
  -6.0599999999999994E-002    -1.8976280287663063E-016
  -5.9499999999999990E-002    -2.1492841643735191E-016
  -5.8399999999999994E-002    -1.1187783220902210E-016
  -5.7299999999999990E-002     1.9792137128502485E-016
  -5.6199999999999986E-002     6.0174581119617023E-016
  -5.5099999999999996E-002     8.9444953400424085E-016
  -5.3999999999999992E-002     7.8540918275918185E-016
  -5.2899999999999989E-002     1.7205182040557604E-016
  -5.1799999999999985E-002    -8.5159729016969854E-016
  -5.0699999999999995E-002    -1.8666986206973156E-015
  -4.9599999999999991E-002    -2.2278973980873092E-015
  -4.8499999999999988E-002    -1.4522459290013784E-015
  -4.7399999999999998E-002     5.3718559523115790E-016
  -4.6299999999999994E-002     3.1228224352123149E-015
  -4.5199999999999990E-002     4.8451373020283201E-015
  -4.4099999999999986E-002     4.1740830728626260E-015
  -4.2999999999999997E-002     5.1131757959892599E-016
  -4.1899999999999993E-002    -4.7883412018160775E-015
  -4.0799999999999989E-002    -8.7759211722204626E-015
  -3.9699999999999985E-002    -8.7631555386723931E-015
  -3.8599999999999995E-002    -4.3055616445178066E-015
  -3.7499999999999992E-002     2.4941147712116522E-015
  -3.6399999999999988E-002     8.4561128715562872E-015
  -3.5299999999999984E-002     1.1169967471043492E-014
  -3.4199999999999994E-002     1.0396340940097091E-014
  -3.3099999999999991E-002     6.9558176221933693E-015
  -3.1999999999999987E-002     9.8516178633661130E-016
  -3.0899999999999997E-002    -7.8917280425371689E-015
  -2.9799999999999993E-002    -1.8478166045887701E-014
  -2.8699999999999989E-002    -2.4619776635664663E-014
  -2.7599999999999986E-002    -1.8281678119047226E-014
  -2.6499999999999996E-002     3.9210383326175081E-015
  -2.5399999999999992E-002     3.2961951717353985E-014
  -2.4299999999999988E-002     4.7505890280602481E-014
  -2.3199999999999985E-002     2.8542665735271922E-014
  -2.2099999999999995E-002    -1.8457169793191161E-014
  -2.0999999999999991E-002    -5.9712915764353197E-014
  -1.9899999999999987E-002    -5.3443191441304022E-014
  -1.8799999999999983E-002     6.1644652327597776E-015
  -1.7699999999999994E-002     6.4404482181396050E-014
  -1.6599999999999990E-002     3.9081727491816626E-014
  -1.5499999999999986E-002    -1.0905504472559502E-013
  -1.4399999999999996E-002    -3.0095630848547827E-013
  -1.3299999999999992E-002    -3.6648765619484713E-013
  -1.2199999999999989E-002    -1.9131446643907979E-013
  -1.1099999999999985E-002     1.5891655396130244E-013
  -9.9999999999999950E-003     4.0301879129962803E-013
  -8.8999999999999913E-003     2.4995855537300604E-013
  -7.7999999999999875E-003    -3.1558170790133011E-013
  -6.6999999999999837E-003    -9.3692165571007680E-013
  -5.5999999999999939E-003    -1.0243351306060688E-012
  -4.4999999999999901E-003    -2.6052987892044577E-013
  -3.3999999999999864E-003     1.0240725368398929E-012
  -2.2999999999999826E-003     1.8666537499739677E-012
  -1.1999999999999927E-003     1.3766072700163723E-012
  -9.9999999999988987E-005    -4.8764312900184681E-013
   1.0000000000000148E-003    -2.7589031319913415E-012
   2.1000000000000185E-003    -4.0498394568433405E-012
   3.2000000000000084E-003    -3.4720329909754266E-012
   4.3000000000000121E-003    -1.3187057782554357E-012
   5.4000000000000159E-003     8.1711579776738708E-013
   6.5000000000000058E-003     1.3949225888959527E-012
   7.6000000000000234E-003     6.4228966112703234E-013
   8.7000000000000133E-003     2.2226652755721193E-013
   9.8000000000000032E-003     1.6228448706384624E-012
   1.0900000000000021E-002     4.6339555456742509E-012
   1.2000000000000011E-002     6.9448353318124489E-012
   1.3100000000000001E-002     6.0696617003308528E-012
   1.4200000000000018E-002     3.7590139334575667E-012
   1.5300000000000008E-002     4.1442569861938061E-012
   1.6400000000000026E-002     9.2910731191997442E-012
   1.7500000000000016E-002     1.6188467233391179E-011
   1.8600000000000005E-002     1.5103224226820089E-011
   1.9700000000000023E-002    -2.6674018896444274E-013
   2.0800000000000013E-002    -2.3899434514751405E-011
   2.1900000000000003E-002    -4.1230047154172667E-011
   2.3000000000000020E-002    -3.6013209775420663E-011
   2.4100000000000010E-002    -7.5486891043530235E-012
   2.5200000000000000E-002     2.5397312725106147E-011
   2.6300000000000018E-002     4.2938222422073125E-011
   2.7400000000000008E-002     3.5550899030178940E-011
   2.8500000000000025E-002     1.7239964664184093E-011
   2.9600000000000015E-002     7.8919926149723096E-012
   3.0700000000000005E-002     2.2351885967109020E-011
   3.1800000000000023E-002     5.5858075109771477E-011
   3.2900000000000013E-002     8.0961487514130681E-011
   3.4000000000000002E-002     7.9736196811897031E-011
   3.5100000000000020E-002     4.7140541470369612E-011
   3.6200000000000010E-002    -2.2606690824877873E-012
   3.7300000000000028E-002    -2.0291511526604467E-011
   3.8400000000000017E-002    -4.7112504869550875E-012
   3.9500000000000007E-002     1.5350491711085823E-011
   4.0600000000000025E-002     6.8075753367757841E-013
   4.1700000000000015E-002    -6.8887118231941713E-011
   4.2800000000000005E-002    -1.4405684978235911E-010
   4.3900000000000022E-002    -1.9681917207137190E-010
   4.5000000000000012E-002    -2.2829446666428055E-010
   4.6100000000000002E-002    -2.1047347198432931E-010
   4.7200000000000020E-002    -1.5680061415945801E-010
   4.8300000000000010E-002    -1.8155367487171503E-010
   4.9400000000000027E-002    -2.5560301097904414E-010
   5.0500000000000017E-002    -3.4309682872546432E-010
   5.1600000000000007E-002    -3.8577580019349966E-010
   5.2700000000000025E-002    -3.0073260548491021E-010
   5.3800000000000014E-002    -7.9004205955079954E-011
   5.4900000000000004E-002     2.5476121212619773E-010
   5.6000000000000022E-002     6.0645249932989032E-010
   5.7100000000000012E-002     7.5647710318094141E-010
   5.8200000000000002E-002     6.2864990990618708E-010
   5.9300000000000019E-002     4.3360048884721891E-010
   6.0400000000000009E-002     2.5647703405518030E-010
   6.1500000000000027E-002     2.5575774137420737E-011
   6.2600000000000017E-002    -3.4425140515992325E-010
   6.3700000000000007E-002    -6.0204158325305457E-010
   6.4800000000000024E-002    -5.2820214868631865E-010
   6.5900000000000014E-002    -7.7918366203633127E-011
   6.7000000000000004E-002     4.4406911481331690E-010
   6.8100000000000022E-002     5.7616778015301406E-010
   6.9200000000000012E-002     4.6740111780962934E-012
   7.0300000000000029E-002    -9.1637530896804265E-010
   7.1400000000000019E-002    -1.6940172598012282E-009
   7.2500000000000009E-002    -1.9473258561220064E-009
   7.3600000000000027E-002    -1.5149679288839479E-009
   7.4700000000000016E-002    -5.7172111489478539E-010
   7.5800000000000006E-002     2.4604426829277770E-010
   7.6900000000000024E-002     4.1847642018311149E-010
   7.8000000000000014E-002     8.3160422992278882E-012
   7.9100000000000004E-002    -3.7943698183440233E-010
   8.0200000000000021E-002    -5.1622711660925802E-010
   8.1300000000000011E-002    -6.1268390361135516E-010
   8.2400000000000029E-002    -1.3455109248994290E-009
   8.3500000000000019E-002    -2.2127824017559306E-009
   8.4600000000000009E-002    -2.3047577180079770E-009
   8.5700000000000026E-002    -1.1934553345582799E-009
   8.6800000000000016E-002     5.0940252016573595E-010
   8.7900000000000006E-002     1.8156492975762717E-009
   8.9000000000000024E-002     1.9399055695146217E-009
   9.0100000000000013E-002     1.0362222191417914E-009
   9.1200000000000003E-002    -2.6623765692068702E-011
   9.2300000000000021E-002    -6.2675686862689872E-010
   9.3400000000000011E-002    -6.1516780558434903E-010
   9.4500000000000028E-002    -7.2906014558782317E-010
   9.5600000000000018E-002    -1.5106931261499312E-009
   9.6700000000000008E-002    -2.2968074109286363E-009
   9.7800000000000026E-002    -1.9311814369871172E-009
   9.8900000000000016E-002    -8.6666729348650051E-011
  0.10000000000000001          1.7757738612900198E-009
  0.10110000000000002          1.8366593801388831E-009
  0.10220000000000001          2.3939694671071265E-010
  0.10330000000000003         -1.5729766378314025E-009
  0.10440000000000002         -1.9871282397332379E-009
  0.10550000000000001         -7.3416900336908952E-010
  0.10660000000000003          6.4427174706338519E-010
  0.10770000000000002          4.4523124076434328E-010
  0.10880000000000001         -1.2237348911980916E-009
  0.10990000000000003         -2.3907751334206750E-009
  0.11100000000000002         -1.7114452077748865E-009
  0.11210000000000001          3.4818065097752537E-010
  0.11320000000000002          1.7983252664777183E-009
  0.11430000000000001          2.0106294407185032E-010
  0.11540000000000003         -3.2246436632021869E-009
  0.11650000000000002         -5.3596838078817655E-009
  0.11760000000000001         -4.2680579070975000E-009
  0.11870000000000003          1.2193812626293266E-010
  0.11980000000000002          4.6553414456695918E-009
  0.12090000000000001          7.0376344751821307E-009
  0.12200000000000003          5.8347429110483517E-009
  0.12310000000000001          3.3053324521858940E-009
  0.12420000000000003          2.7399649216164335E-010
  0.12530000000000002         -3.1517097820454865E-009
  0.12640000000000001         -6.7208230092319354E-009
  0.12750000000000003         -9.2143803698263582E-009
  0.12860000000000002         -9.3775680554131213E-009
  0.12970000000000001         -7.2820895979930356E-009
  0.13080000000000003         -2.6411299813844380E-009
  0.13190000000000002          3.7207179559572978E-009
  0.13300000000000001          7.0351595660156363E-009
  0.13410000000000000          5.6171574058794249E-009
  0.13520000000000004          6.4982275116420851E-010
  0.13630000000000003         -5.0345492219605603E-009
  0.13740000000000002         -6.5242558022760022E-009
  0.13850000000000001         -5.2892215052224856E-009
  0.13960000000000000         -1.3832245349121308E-009
  0.14070000000000005          2.6661799434890554E-009
  0.14180000000000004          4.0446215265887986E-009
  0.14290000000000003          1.8378786270645264E-009
  0.14400000000000002         -1.9104935411462520E-009
  0.14510000000000001         -4.2875321071278449E-009
  0.14620000000000000         -4.7386543577943030E-009
  0.14730000000000004         -2.4022956957026054E-009
  0.14840000000000003          4.0013709012853838E-010
  0.14950000000000002          2.5930881886182533E-009
  0.15060000000000001          4.6426320565728929E-009
  0.15170000000000000          6.2619536222996430E-009
  0.15280000000000005          7.9888300419383995E-009
  0.15390000000000004          8.5325959631177284E-009
  0.15500000000000003          5.0609552104674549E-009
  0.15610000000000002         -2.5694999461478574E-009
  0.15720000000000001         -9.2678069663065799E-009
  0.15830000000000000         -1.0588338206218850E-008
  0.15940000000000004         -5.7423505950282561E-009
  0.16050000000000003         -3.2273364536372640E-010
  0.16160000000000002          4.3614356570742530E-010
  0.16270000000000001         -3.7525342833077957E-009
  0.16380000000000000         -7.8695077121437862E-009
  0.16490000000000005         -7.6842603391469311E-009
  0.16600000000000004         -2.8382733940901517E-009
  0.16710000000000003          1.6491956689179688E-009
  0.16820000000000002          2.0495547481402809E-009
  0.16930000000000001         -7.7675277321276326E-010
  0.17040000000000000         -1.7387644657418377E-009
  0.17150000000000004          2.0316672788567303E-009
  0.17260000000000003          5.7303957134990924E-009
  0.17370000000000002          4.3381618297644309E-009
  0.17480000000000001         -4.1527377092620554E-009
  0.17590000000000000         -1.4723044117204154E-008
  0.17700000000000005         -1.8624907838216131E-008
  0.17810000000000004         -1.2775069890835766E-008
  0.17920000000000003          1.2489893563838450E-009
  0.18030000000000002          1.4448456653326502E-008
  0.18140000000000001          1.6533851621147733E-008
  0.18250000000000000          8.1146547259436375E-009
  0.18360000000000004         -4.0689855929088026E-009
  0.18470000000000003         -1.4244923463024861E-008
  0.18580000000000002         -1.9562936159900346E-008
  0.18690000000000001         -1.8837111426250885E-008
  0.18800000000000000         -1.5252101803753249E-008
  0.18910000000000005         -9.2112397709342986E-009
  0.19020000000000004         -3.5600922210221597E-010
  0.19130000000000003          1.2281590855423019E-008
  0.19240000000000002          2.3771930202087788E-008
  0.19350000000000001          2.4327459158257625E-008
  0.19460000000000005          1.0757360335844623E-008
  0.19570000000000004         -5.9677018882098309E-009
  0.19680000000000003         -1.3048616409605529E-008
  0.19790000000000002         -8.5135329896957046E-009
  0.19900000000000001         -1.6480802278451279E-009
  0.20010000000000000         -1.0925520488314078E-009
  0.20120000000000005         -5.5204303350819828E-009
  0.20230000000000004         -4.8931987350897543E-009
  0.20340000000000003          7.1349206542947741E-009
  0.20450000000000002          2.2855781267594466E-008
  0.20560000000000000          2.5419010896143845E-008
  0.20670000000000005          6.1484666247224595E-009
  0.20780000000000004         -2.4738074699826029E-008
  0.20890000000000003         -4.3865210130888954E-008
