 -0.12000000000000000          0.0000000000000000     
 -0.11889999999999999          0.0000000000000000     
 -0.11780000000000000          2.2178630752023309E-004
 -0.11670000000000000          3.1116820173338056E-004
 -0.11559999999999999         -5.5688276188448071E-004
 -0.11449999999999999         -2.0927514415234327E-003
 -0.11340000000000000         -2.1478163544088602E-003
 -0.11230000000000000          1.0002193739637733E-003
 -0.11119999999999999          5.3503145463764668E-003
 -0.11009999999999999          5.7672448456287384E-003
 -0.10900000000000000         -3.2016518525779247E-004
 -0.10790000000000000         -8.0733159556984901E-003
 -0.10679999999999999         -8.5453120991587639E-003
 -0.10569999999999999          1.1264510685577989E-003
 -0.10460000000000000          1.1749390512704849E-002
 -0.10349999999999999          9.6222721040248871E-003
 -0.10239999999999999         -7.6953251846134663E-003
 -0.10130000000000000         -2.4707680568099022E-002
 -0.10020000000000000         -2.1177466958761215E-002
  -9.9099999999999994E-002     5.5689010769128799E-003
  -9.7999999999999990E-002     3.3471733331680298E-002
  -9.6899999999999986E-002     3.5260789096355438E-002
  -9.5799999999999996E-002     7.2812889702618122E-003
  -9.4699999999999993E-002    -2.3664982989430428E-002
  -9.3599999999999989E-002    -2.6574209332466125E-002
  -9.2499999999999999E-002    -3.8084079278632998E-004
  -9.1399999999999995E-002     2.1948914974927902E-002
  -9.0299999999999991E-002     8.1111639738082886E-003
  -8.9200000000000002E-002    -3.4750428050756454E-002
  -8.8099999999999984E-002    -6.1444763094186783E-002
  -8.6999999999999994E-002    -3.4607954323291779E-002
  -8.5899999999999990E-002     3.1043976545333862E-002
  -8.4799999999999986E-002     7.6717309653759003E-002
  -8.3699999999999997E-002     5.7986225932836533E-002
  -8.2599999999999993E-002    -5.2484422922134399E-003
  -8.1499999999999989E-002    -4.4017888605594635E-002
  -8.0399999999999999E-002    -1.1356129311025143E-002
  -7.9299999999999995E-002     6.3481882214546204E-002
  -7.8199999999999992E-002     9.9651984870433807E-002
  -7.7100000000000002E-002     4.9448065459728241E-002
  -7.5999999999999984E-002    -4.4124603271484375E-002
  -7.4899999999999994E-002    -8.3266355097293854E-002
  -7.3799999999999991E-002    -1.5021133236587048E-002
  -7.2699999999999987E-002    0.10779818892478943     
  -7.1599999999999997E-002    0.17408317327499390     
  -7.0499999999999993E-002    0.12826010584831238     
  -6.9399999999999989E-002     3.2979715615510941E-002
  -6.8300000000000000E-002     9.2482622712850571E-003
  -6.7199999999999996E-002    0.10977763682603836     
  -6.6099999999999992E-002    0.25768968462944031     
  -6.5000000000000002E-002    0.32158753275871277     
  -6.3899999999999985E-002    0.25558811426162720     
  -6.2799999999999995E-002    0.15749409794807434     
  -6.1699999999999991E-002    0.17623208463191986     
  -6.0599999999999994E-002    0.35719352960586548     
  -5.9499999999999990E-002    0.58707517385482788     
  -5.8399999999999994E-002    0.70410943031311035     
  -5.7299999999999990E-002    0.66705846786499023     
  -5.6199999999999986E-002    0.60721880197525024     
  -5.5099999999999996E-002    0.70141625404357910     
  -5.3999999999999992E-002    0.99004429578781128     
  -5.2899999999999989E-002     1.3286302089691162     
  -5.1799999999999985E-002     1.5301911830902100     
  -5.0699999999999995E-002     1.5575670003890991     
  -4.9599999999999991E-002     1.5671604871749878     
  -4.8499999999999988E-002     1.7533630132675171     
  -4.7399999999999998E-002     2.1495673656463623     
  -4.6299999999999994E-002     2.5917191505432129     
  -4.5199999999999990E-002     2.8857009410858154     
  -4.4099999999999986E-002     3.0082662105560303     
  -4.2999999999999997E-002     3.1318867206573486     
  -4.1899999999999993E-002     3.4444601535797119     
  -4.0799999999999989E-002     3.9474234580993652     
  -3.9699999999999985E-002     4.4436559677124023     
  -3.8599999999999995E-002     4.7310447692871094     
  -3.7499999999999992E-002     4.8034806251525879     
  -3.6399999999999988E-002     4.8505306243896484     
  -3.5299999999999984E-002     5.0534529685974121     
  -3.4199999999999994E-002     5.3876509666442871     
  -3.3099999999999991E-002     5.6348605155944824     
  -3.1999999999999987E-002     5.5924177169799805     
  -3.0899999999999997E-002     5.2624435424804688     
  -2.9799999999999993E-002     4.8244400024414062     
  -2.8699999999999989E-002     4.4223699569702148     
  -2.7599999999999986E-002     3.9896771907806396     
  -2.6499999999999996E-002     3.2942292690277100     
  -2.5399999999999992E-002     2.1532812118530273     
  -2.4299999999999988E-002    0.59249621629714966     
  -2.3199999999999985E-002    -1.2180184125900269     
  -2.2099999999999995E-002    -3.1778848171234131     
  -2.0999999999999991E-002    -5.3922624588012695     
  -1.9899999999999987E-002    -8.0874805450439453     
  -1.8799999999999983E-002    -11.396213531494141     
  -1.7699999999999994E-002    -15.240998268127441     
  -1.6599999999999990E-002    -19.440711975097656     
  -1.5499999999999986E-002    -23.921840667724609     
  -1.4399999999999996E-002    -28.807313919067383     
  -1.3299999999999992E-002    -34.288200378417969     
  -1.2199999999999989E-002    -40.412475585937500     
  -1.1099999999999985E-002    -47.019264221191406     
  -9.9999999999999950E-003    -53.885433197021484     
  -8.8999999999999913E-003    -60.928371429443359     
  -7.7999999999999875E-003    -68.239456176757812     
  -6.6999999999999837E-003    -75.914901733398438     
  -5.5999999999999939E-003    -83.859794616699219     
  -4.4999999999999901E-003    -91.780273437500000     
  -3.3999999999999864E-003    -99.374931335449219     
  -2.2999999999999826E-003    -106.52580261230469     
  -1.1999999999999927E-003    -113.27780914306641     
  -9.9999999999988987E-005    -119.63118743896484     
   1.0000000000000148E-003    -125.36093139648438     
   2.1000000000000185E-003    -130.06466674804688     
   3.2000000000000084E-003    -133.38911437988281     
   4.3000000000000121E-003    -135.20112609863281     
   5.4000000000000159E-003    -135.52496337890625     
   6.5000000000000058E-003    -134.31658935546875     
   7.6000000000000234E-003    -131.30738830566406     
   8.7000000000000133E-003    -126.10149383544922     
   9.8000000000000032E-003    -118.41121673583984     
   1.0900000000000021E-002    -108.20428466796875     
   1.2000000000000011E-002    -95.609352111816406     
   1.3100000000000001E-002    -80.679542541503906     
   1.4200000000000018E-002    -63.284614562988281     
   1.5300000000000008E-002    -43.231460571289062     
   1.6400000000000026E-002    -20.486694335937500     
   1.7500000000000016E-002     4.7102808952331543     
   1.8600000000000005E-002     31.982454299926758     
   1.9700000000000023E-002     61.037086486816406     
   2.0800000000000013E-002     91.744636535644531     
   2.1900000000000003E-002     123.97870635986328     
   2.3000000000000020E-002     157.42570495605469     
   2.4100000000000010E-002     191.52229309082031     
   2.5200000000000000E-002     225.61999511718750     
   2.6300000000000018E-002     259.22659301757812     
   2.7400000000000008E-002     291.97460937500000     
   2.8500000000000025E-002     323.47470092773438     
   2.9600000000000015E-002     353.13943481445312     
   3.0700000000000005E-002     380.23721313476562     
   3.1800000000000023E-002     404.10946655273438     
   3.2900000000000013E-002     424.31427001953125     
   3.4000000000000002E-002     440.54974365234375     
   3.5100000000000020E-002     452.47146606445312     
   3.6200000000000010E-002     459.59518432617188     
   3.7300000000000028E-002     461.36965942382812     
   3.8400000000000017E-002     457.48892211914062     
   3.9500000000000007E-002     447.94171142578125     
   4.0600000000000025E-002     432.84609985351562     
   4.1700000000000015E-002     412.24813842773438     
   4.2800000000000005E-002     386.05142211914062     
   4.3900000000000022E-002     354.24203491210938     
   4.5000000000000012E-002     317.10360717773438     
   4.6100000000000002E-002     275.25360107421875     
   4.7200000000000020E-002     229.38717651367188     
   4.8300000000000010E-002     180.03938293457031     
   4.9400000000000027E-002     127.58327484130859     
   5.0500000000000017E-002     72.488052368164062     
   5.1600000000000007E-002     15.542634963989258     
   5.2700000000000025E-002    -42.199581146240234     
   5.3800000000000014E-002    -99.721702575683594     
   5.4900000000000004E-002    -156.29615783691406     
   5.6000000000000022E-002    -211.42800903320312     
   5.7100000000000012E-002    -264.54989624023438     
   5.8200000000000002E-002    -314.82336425781250     
   5.9300000000000019E-002    -361.25952148437500     
   6.0400000000000009E-002    -403.03189086914062     
   6.1500000000000027E-002    -439.70205688476562     
   6.2600000000000017E-002    -471.13586425781250     
   6.3700000000000007E-002    -497.14920043945312     
   6.4800000000000024E-002    -517.29736328125000     
   6.5900000000000014E-002    -531.07684326171875     
   6.7000000000000004E-002    -538.23425292968750     
   6.8100000000000022E-002    -538.98815917968750     
   6.9200000000000012E-002    -533.82354736328125     
   7.0300000000000029E-002    -523.10113525390625     
   7.1400000000000019E-002    -506.90866088867188     
   7.2500000000000009E-002    -485.30065917968750     
   7.3600000000000027E-002    -458.62429809570312     
   7.4700000000000016E-002    -427.66400146484375     
   7.5800000000000006E-002    -393.32424926757812     
   7.6900000000000024E-002    -356.27865600585938     
   7.8000000000000014E-002    -316.89923095703125     
   7.9100000000000004E-002    -275.47909545898438     
   8.0200000000000021E-002    -232.62438964843750     
   8.1300000000000011E-002    -189.24740600585938     
   8.2400000000000029E-002    -146.28115844726562     
   8.3500000000000019E-002    -104.30825042724609     
   8.4600000000000009E-002    -63.535636901855469     
   8.5700000000000026E-002    -24.135877609252930     
   8.6800000000000016E-002     13.436442375183105     
   8.7900000000000006E-002     48.471817016601562     
   8.9000000000000024E-002     80.387306213378906     
   9.0100000000000013E-002     109.01782226562500     
   9.1200000000000003E-002     134.54576110839844     
   9.2300000000000021E-002     157.11405944824219     
   9.3400000000000011E-002     176.54368591308594     
   9.4500000000000028E-002     192.48367309570312     
   9.5600000000000018E-002     204.76916503906250     
   9.6700000000000008E-002     213.66569519042969     
   9.7800000000000026E-002     219.68539428710938     
   9.8900000000000016E-002     223.18159484863281     
  0.10000000000000001          224.15280151367188     
  0.10110000000000002          222.45378112792969     
  0.10220000000000001          218.19407653808594     
  0.10330000000000003          211.88139343261719     
  0.10440000000000002          204.15281677246094     
  0.10550000000000001          195.36795043945312     
  0.10660000000000003          185.49151611328125     
  0.10770000000000002          174.39605712890625     
  0.10880000000000001          162.26477050781250     
  0.10990000000000003          149.64793395996094     
  0.11100000000000002          137.11705017089844     
  0.11210000000000001          124.87376403808594     
  0.11320000000000002          112.72417449951172     
  0.11430000000000001          100.45169067382812     
  0.11540000000000003          88.205764770507812     
  0.11650000000000002          76.481636047363281     
  0.11760000000000001          65.722198486328125     
  0.11870000000000003          55.933383941650391     
  0.11980000000000002          46.749652862548828     
  0.12090000000000001          37.870697021484375     
  0.12200000000000003          29.409570693969727     
  0.12310000000000001          21.800079345703125     
  0.12420000000000003          15.351175308227539     
  0.12530000000000002          9.9262619018554688     
  0.12640000000000001          5.0749588012695312     
  0.12750000000000003         0.48750734329223633     
  0.12860000000000002         -3.7199661731719971     
  0.12970000000000001         -7.1674284934997559     
  0.13080000000000003         -9.6567316055297852     
  0.13190000000000002         -11.421409606933594     
  0.13300000000000001         -12.922913551330566     
  0.13410000000000000         -14.409783363342285     
  0.13520000000000004         -15.710205078125000     
  0.13630000000000003         -16.467149734497070     
  0.13740000000000002         -16.575830459594727     
  0.13850000000000001         -16.331731796264648     
  0.13960000000000000         -16.153850555419922     
  0.14070000000000005         -16.175586700439453     
  0.14180000000000004         -16.140693664550781     
  0.14290000000000003         -15.718675613403320     
  0.14400000000000002         -14.892771720886230     
  0.14510000000000001         -14.013920783996582     
  0.14620000000000000         -13.442197799682617     
  0.14730000000000004         -13.176168441772461     
  0.14840000000000003         -12.864513397216797     
  0.14950000000000002         -12.195937156677246     
  0.15060000000000001         -11.251731872558594     
  0.15170000000000000         -10.436163902282715     
  0.15280000000000005         -10.050318717956543     
  0.15390000000000004         -9.9642286300659180     
  0.15500000000000003         -9.7420282363891602     
  0.15610000000000002         -9.0987186431884766     
  0.15720000000000001         -8.2088451385498047     
  0.15830000000000000         -7.5344953536987305     
  0.15940000000000004         -7.3418822288513184     
  0.16050000000000003         -7.4130692481994629     
  0.16160000000000002         -7.2645416259765625     
  0.16270000000000001         -6.6464815139770508     
  0.16380000000000000         -5.8088974952697754     
  0.16490000000000005         -5.2471337318420410     
  0.16600000000000004         -5.1873698234558105     
  0.16710000000000003         -5.3478641510009766     
  0.16820000000000002         -5.2283391952514648     
  0.16930000000000001         -4.6256508827209473     
  0.17040000000000000         -3.8448374271392822     
  0.17150000000000004         -3.3826365470886230     
  0.17260000000000003         -3.4163925647735596     
  0.17370000000000002         -3.6257290840148926     
  0.17480000000000001         -3.5313236713409424     
  0.17590000000000000         -2.9925768375396729     
  0.17700000000000005         -2.3474783897399902     
  0.17810000000000004         -2.0539681911468506     
  0.17920000000000003         -2.2130177021026611     
  0.18030000000000002         -2.4702196121215820     
  0.18140000000000001         -2.3906469345092773     
  0.18250000000000000         -1.9102140665054321     
  0.18360000000000004         -1.3906192779541016     
  0.18470000000000003         -1.2284650802612305     
  0.18580000000000002         -1.4369440078735352     
  0.18690000000000001         -1.6395056247711182     
  0.18800000000000000         -1.4737536907196045     
  0.18910000000000005        -0.97613716125488281     
  0.19020000000000004        -0.53950041532516479     
  0.19130000000000003        -0.49395987391471863     
  0.19240000000000002        -0.75712376832962036     
  0.19350000000000001        -0.92403924465179443     
  0.19460000000000005        -0.69916701316833496     
  0.19570000000000004        -0.21096524596214294     
  0.19680000000000003         0.12439002841711044     
  0.19790000000000002          4.3987032026052475E-002
  0.19900000000000001        -0.28364071249961853     
  0.20010000000000000        -0.43752911686897278     
  0.20120000000000005        -0.19309487938880920     
  0.20230000000000004         0.23520135879516602     
  0.20340000000000003         0.41472747921943665     
  0.20450000000000002         0.14719234406948090     
  0.20560000000000000        -0.32149994373321533     
  0.20670000000000005        -0.55423915386199951     
  0.20780000000000004        -0.37704417109489441     
  0.20890000000000003         -5.6837491691112518E-002
