 -0.12000000000000000          0.0000000000000000     
 -0.11889999999999999          0.0000000000000000     
 -0.11780000000000000          0.0000000000000000     
 -0.11670000000000000          0.0000000000000000     
 -0.11559999999999999          0.0000000000000000     
 -0.11449999999999999          0.0000000000000000     
 -0.11340000000000000          9.7795761018395350E-014
 -0.11230000000000000         -4.2316530054348211E-013
 -0.11119999999999999         -5.0898122522236022E-012
 -0.11009999999999999         -1.3367141594999854E-011
 -0.10900000000000000          3.5864757344516995E-012
 -0.10790000000000000          9.9754551841080286E-011
 -0.10679999999999999          2.2984747438670183E-010
 -0.10569999999999999          6.3384790471854302E-011
 -0.10460000000000000         -8.3515283577639821E-010
 -0.10349999999999999         -2.0564043801130083E-009
 -0.10239999999999999         -1.3804796195060476E-009
 -0.10130000000000000          3.9173264632097471E-009
 -0.10020000000000000          1.2178990260736100E-008
  -9.9099999999999994E-002     1.2904705748439937E-008
  -9.7999999999999990E-002    -8.0276425507008753E-009
  -9.6899999999999986E-002    -4.9082444775194745E-008
  -9.5799999999999996E-002    -7.4075011013974290E-008
  -9.4699999999999993E-002    -2.4428015166222394E-008
  -9.3599999999999989E-002     1.2102168511773925E-007
  -9.2499999999999999E-002     2.7639583777272492E-007
  -9.1399999999999995E-002     2.5633465838836855E-007
  -9.0299999999999991E-002    -8.1747181468472263E-008
  -8.9200000000000002E-002    -6.3240372583095450E-007
  -8.8099999999999984E-002    -9.7550741884333547E-007
  -8.6999999999999994E-002    -6.1571921605718671E-007
  -8.5899999999999990E-002     5.5755282346581225E-007
  -8.4799999999999986E-002     1.9618778424046468E-006
  -8.3699999999999997E-002     2.5404319785593543E-006
  -8.2599999999999993E-002     1.4825500329607166E-006
  -8.1499999999999989E-002    -1.0780080401673331E-006
  -8.0399999999999999E-002    -3.9881492739368696E-006
  -7.9299999999999995E-002    -5.6982175919984002E-006
  -7.8199999999999992E-002    -5.0157727855548728E-006
  -7.7100000000000002E-002    -1.4184888641466387E-006
  -7.5999999999999984E-002     4.9068789849116001E-006
  -7.4899999999999994E-002     1.2567640624183696E-005
  -7.3799999999999991E-002     1.7951771951629780E-005
  -7.2699999999999987E-002     1.5251558579620905E-005
  -7.1599999999999997E-002    -3.8797497836640105E-007
  -7.0499999999999993E-002    -2.6898702344624326E-005
  -6.9399999999999989E-002    -5.1064140279777348E-005
  -6.8300000000000000E-002    -5.2398543630260974E-005
  -6.7199999999999996E-002    -1.6855483409017324E-005
  -6.6099999999999992E-002     4.7406541852978989E-005
  -6.5000000000000002E-002     1.0626921721268445E-004
  -6.3899999999999985E-002     1.1672471009660512E-004
  -6.2799999999999995E-002     5.7349545386387035E-005
  -6.1699999999999991E-002    -5.0069833378074691E-005
  -6.0599999999999994E-002    -1.4823426317889243E-004
  -5.9499999999999990E-002    -1.8042970623355359E-004
  -5.8399999999999994E-002    -1.2896486441604793E-004
  -5.7299999999999990E-002    -2.4471015422022901E-005
  -5.6199999999999986E-002     8.2142447354272008E-005
  -5.5099999999999996E-002     1.5931663801893592E-004
  -5.3999999999999992E-002     2.0777076133526862E-004
  -5.2899999999999989E-002     2.3350937408395112E-004
  -5.1799999999999985E-002     2.1064317843411118E-004
  -5.0699999999999995E-002     8.2479818956926465E-005
  -4.9599999999999991E-002    -1.8139849998988211E-004
  -4.8499999999999988E-002    -5.1342899678274989E-004
  -4.7399999999999998E-002    -7.3561863973736763E-004
  -4.6299999999999994E-002    -6.4672931330278516E-004
  -4.5199999999999990E-002    -1.6784868785180151E-004
  -4.4099999999999986E-002     5.5757624795660377E-004
  -4.2999999999999997E-002     1.1975346133112907E-003
  -4.1899999999999993E-002     1.3974809553474188E-003
  -4.0799999999999989E-002     9.8130910191684961E-004
  -3.9699999999999985E-002     6.3313287682831287E-005
  -3.8599999999999995E-002    -9.9334493279457092E-004
  -3.7499999999999992E-002    -1.7418925417587161E-003
  -3.6399999999999988E-002    -1.8513110699132085E-003
  -3.5299999999999984E-002    -1.2513672700151801E-003
  -3.4199999999999994E-002    -1.7131147615145892E-004
  -3.3099999999999991E-002     9.4411877216771245E-004
  -3.1999999999999987E-002     1.6260187840089202E-003
  -3.0899999999999997E-002     1.6175254713743925E-003
  -2.9799999999999993E-002     1.0368124349042773E-003
  -2.8699999999999989E-002     3.3986670314334333E-004
  -2.7599999999999986E-002     4.8779627832118422E-005
  -2.6499999999999996E-002     3.7977527244947851E-004
  -2.5399999999999992E-002     1.0255788220092654E-003
  -2.4299999999999988E-002     1.2892181985080242E-003
  -2.3199999999999985E-002     5.2810774650424719E-004
  -2.2099999999999995E-002    -1.3860845938324928E-003
  -2.0999999999999991E-002    -3.9401636458933353E-003
  -1.9899999999999987E-002    -6.3123437575995922E-003
  -1.8799999999999983E-002    -7.9516237601637840E-003
  -1.7699999999999994E-002    -8.9941909536719322E-003
  -1.6599999999999990E-002    -1.0217738337814808E-002
  -1.5499999999999986E-002    -1.2563124299049377E-002
  -1.4399999999999996E-002    -1.6546091064810753E-002
  -1.3299999999999992E-002    -2.1934274584054947E-002
  -1.2199999999999989E-002    -2.7875484898686409E-002
  -1.1099999999999985E-002    -3.3398937433958054E-002
  -9.9999999999999950E-003    -3.8039479404687881E-002
  -8.8999999999999913E-003    -4.2297694832086563E-002
  -7.7999999999999875E-003    -4.7704745084047318E-002
  -6.6999999999999837E-003    -5.6391645222902298E-002
  -5.5999999999999939E-003    -7.0271156728267670E-002
  -4.4999999999999901E-003    -9.0195789933204651E-002
  -3.3999999999999864E-003   -0.11560557037591934     
  -2.2999999999999826E-003   -0.14500311017036438     
  -1.1999999999999927E-003   -0.17711852490901947     
  -9.9999999999988987E-005   -0.21209849417209625     
   1.0000000000000148E-003   -0.25194945931434631     
   2.1000000000000185E-003   -0.29990029335021973     
   3.2000000000000084E-003   -0.35910856723785400     
   4.3000000000000121E-003   -0.43158397078514099     
   5.4000000000000159E-003   -0.51802068948745728     
   6.5000000000000058E-003   -0.61850893497467041     
   7.6000000000000234E-003   -0.73355871438980103     
   8.7000000000000133E-003   -0.86473435163497925     
   9.8000000000000032E-003    -1.0147299766540527     
   1.0900000000000021E-002    -1.1870433092117310     
   1.2000000000000011E-002    -1.3856824636459351     
   1.3100000000000001E-002    -1.6148884296417236     
   1.4200000000000018E-002    -1.8788236379623413     
   1.5300000000000008E-002    -2.1809937953948975     
   1.6400000000000026E-002    -2.5239868164062500     
   1.7500000000000016E-002    -2.9095339775085449     
   1.8600000000000005E-002    -3.3393249511718750     
   1.9700000000000023E-002    -3.8157861232757568     
   2.0800000000000013E-002    -4.3425226211547852     
   2.1900000000000003E-002    -4.9240622520446777     
   2.3000000000000020E-002    -5.5652194023132324     
   2.4100000000000010E-002    -6.2703213691711426     
   2.5200000000000000E-002    -7.0424675941467285     
   2.6300000000000018E-002    -7.8831729888916016     
   2.7400000000000008E-002    -8.7917728424072266     
   2.8500000000000025E-002    -9.7652578353881836     
   2.9600000000000015E-002    -10.799516677856445     
   3.0700000000000005E-002    -11.889324188232422     
   3.1800000000000023E-002    -13.030846595764160     
   3.2900000000000013E-002    -14.220942497253418     
   3.4000000000000002E-002    -15.455127716064453     
   3.5100000000000020E-002    -16.725416183471680     
   3.6200000000000010E-002    -18.017950057983398     
   3.7300000000000028E-002    -19.314130783081055     
   3.8400000000000017E-002    -20.591915130615234     
   3.9500000000000007E-002    -21.830234527587891     
   4.0600000000000025E-002    -23.007381439208984     
   4.1700000000000015E-002    -24.102375030517578     
   4.2800000000000005E-002    -25.090440750122070     
   4.3900000000000022E-002    -25.943462371826172     
   4.5000000000000012E-002    -26.629211425781250     
   4.6100000000000002E-002    -27.112337112426758     
   4.7200000000000020E-002    -27.357418060302734     
   4.8300000000000010E-002    -27.327404022216797     
   4.9400000000000027E-002    -26.986900329589844     
   5.0500000000000017E-002    -26.302782058715820     
   5.1600000000000007E-002    -25.241403579711914     
   5.2700000000000025E-002    -23.771627426147461     
   5.3800000000000014E-002    -21.863996505737305     
   5.4900000000000004E-002    -19.493789672851562     
   5.6000000000000022E-002    -16.639671325683594     
   5.7100000000000012E-002    -13.284887313842773     
   5.8200000000000002E-002    -9.4202651977539062     
   5.9300000000000019E-002    -5.0457472801208496     
   6.0400000000000009E-002   -0.17069627344608307     
   6.1500000000000027E-002     5.1910510063171387     
   6.2600000000000017E-002     11.013361930847168     
   6.3700000000000007E-002     17.271434783935547     
   6.4800000000000024E-002     23.917982101440430     
   6.5900000000000014E-002     30.900350570678711     
   6.7000000000000004E-002     38.143253326416016     
   6.8100000000000022E-002     45.570541381835938     
   6.9200000000000012E-002     53.098628997802734     
   7.0300000000000029E-002     60.633445739746094     
   7.1400000000000019E-002     68.078643798828125     
   7.2500000000000009E-002     75.327079772949219     
   7.3600000000000027E-002     82.264907836914062     
   7.4700000000000016E-002     88.778594970703125     
   7.5800000000000006E-002     94.754196166992188     
   7.6900000000000024E-002     100.07959747314453     
   7.8000000000000014E-002     104.63457489013672     
   7.9100000000000004E-002     108.30702209472656     
   8.0200000000000021E-002     110.99185180664062     
   8.1300000000000011E-002     112.60229492187500     
   8.2400000000000029E-002     113.06463623046875     
   8.3500000000000019E-002     112.31957244873047     
   8.4600000000000009E-002     110.31702423095703     
   8.5700000000000026E-002     107.02306365966797     
   8.6800000000000016E-002     102.42688751220703     
   8.7900000000000006E-002     96.542472839355469     
   8.9000000000000024E-002     89.403335571289062     
   9.0100000000000013E-002     81.050895690917969     
   9.1200000000000003E-002     71.546981811523438     
   9.2300000000000021E-002     60.977001190185547     
   9.3400000000000011E-002     49.458423614501953     
   9.4500000000000028E-002     37.127696990966797     
   9.5600000000000018E-002     24.133922576904297     
   9.6700000000000008E-002     10.634072303771973     
   9.7800000000000026E-002    -3.2147550582885742     
   9.8900000000000016E-002    -17.240293502807617     
  0.10000000000000001         -31.256174087524414     
  0.10110000000000002         -45.072883605957031     
  0.10220000000000001         -58.505058288574219     
  0.10330000000000003         -71.380790710449219     
  0.10440000000000002         -83.542747497558594     
  0.10550000000000001         -94.825584411621094     
  0.10660000000000003         -105.07773590087891     
  0.10770000000000002         -114.15814971923828     
  0.10880000000000001         -121.95655059814453     
  0.10990000000000003         -128.38389587402344     
  0.11100000000000002         -133.37864685058594     
  0.11210000000000001         -136.89349365234375     
  0.11320000000000002         -138.90116882324219     
  0.11430000000000001         -139.39198303222656     
  0.11540000000000003         -138.38415527343750     
  0.11650000000000002         -135.92919921875000     
  0.11760000000000001         -132.08996582031250     
  0.11870000000000003         -126.95050048828125     
  0.11980000000000002         -120.60852050781250     
  0.12090000000000001         -113.16659545898438     
  0.12200000000000003         -104.74877166748047     
  0.12310000000000001         -95.492149353027344     
  0.12420000000000003         -85.546607971191406     
  0.12530000000000002         -75.054801940917969     
  0.12640000000000001         -64.155929565429688     
  0.12750000000000003         -52.992347717285156     
  0.12860000000000002         -41.711074829101562     
  0.12970000000000001         -30.456113815307617     
  0.13080000000000003         -19.358634948730469     
  0.13190000000000002         -8.5341911315917969     
  0.13300000000000001          1.9177478551864624     
  0.13410000000000000          11.901005744934082     
  0.13520000000000004          21.327375411987305     
  0.13630000000000003          30.114900588989258     
  0.13740000000000002          38.205032348632812     
  0.13850000000000001          45.558452606201172     
  0.13960000000000000          52.150421142578125     
  0.14070000000000005          57.954006195068359     
  0.14180000000000004          62.944080352783203     
  0.14290000000000003          67.106719970703125     
  0.14400000000000002          70.449028015136719     
  0.14510000000000001          73.003601074218750     
  0.14620000000000000          74.806922912597656     
  0.14730000000000004          75.887001037597656     
  0.14840000000000003          76.259956359863281     
  0.14950000000000002          75.943756103515625     
  0.15060000000000001          74.974822998046875     
  0.15170000000000000          73.407676696777344     
  0.15280000000000005          71.300178527832031     
  0.15390000000000004          68.694488525390625     
  0.15500000000000003          65.614463806152344     
  0.15610000000000002          62.083473205566406     
  0.15720000000000001          58.142383575439453     
  0.15830000000000000          53.850303649902344     
  0.15940000000000004          49.270591735839844     
  0.16050000000000003          44.449073791503906     
  0.16160000000000002          39.409248352050781     
  0.16270000000000001          34.169105529785156     
  0.16380000000000000          28.764440536499023     
  0.16490000000000005          23.248559951782227     
  0.16600000000000004          17.679338455200195     
  0.16710000000000003          12.103480339050293     
  0.16820000000000002          6.5517473220825195     
  0.16930000000000001          1.0540591478347778     
  0.17040000000000000         -4.3505177497863770     
  0.17150000000000004         -9.6083545684814453     
  0.17260000000000003         -14.666738510131836     
  0.17370000000000002         -19.481212615966797     
  0.17480000000000001         -24.022455215454102     
  0.17590000000000000         -28.261684417724609     
  0.17700000000000005         -32.160648345947266     
  0.17810000000000004         -35.677089691162109     
  0.17920000000000003         -38.775756835937500     
  0.18030000000000002         -41.437602996826172     
  0.18140000000000001         -43.656017303466797     
  0.18250000000000000         -45.415958404541016     
  0.18360000000000004         -46.695369720458984     
  0.18470000000000003         -47.468288421630859     
  0.18580000000000002         -47.729888916015625     
  0.18690000000000001         -47.502216339111328     
  0.18800000000000000         -46.815223693847656     
  0.18910000000000005         -45.685283660888672     
  0.19020000000000004         -44.124156951904297     
  0.19130000000000003         -42.140098571777344     
  0.19240000000000002         -39.762393951416016     
  0.19350000000000001         -37.046714782714844     
  0.19460000000000005         -34.054351806640625     
  0.19570000000000004         -30.833587646484375     
  0.19680000000000003         -27.407121658325195     
  0.19790000000000002         -23.795566558837891     
  0.19900000000000001         -20.039649963378906     
  0.20010000000000000         -16.206308364868164     
  0.20120000000000005         -12.370249748229980     
  0.20230000000000004         -8.5908288955688477     
  0.20340000000000003         -4.8949475288391113     
  0.20450000000000002         -1.2955702543258667     
  0.20560000000000000          2.1777181625366211     
  0.20670000000000005          5.4778141975402832     
  0.20780000000000004          8.5503768920898438     
  0.20890000000000003          11.361983299255371     
