 -0.12000000000000000          0.0000000000000000
 -0.11889999999999999          0.0000000000000000
 -0.11780000000000000          0.0000000000000000
 -0.11670000000000000          0.0000000000000000
 -0.11559999999999999          0.0000000000000000
 -0.11449999999999999          0.0000000000000000
 -0.11340000000000000          0.0000000000000000
 -0.11230000000000000          0.0000000000000000
 -0.11119999999999999          0.0000000000000000
 -0.11009999999999999          0.0000000000000000
 -0.10900000000000000          0.0000000000000000
 -0.10790000000000000          0.0000000000000000
 -0.10679999999999999          0.0000000000000000
 -0.10569999999999999          0.0000000000000000
 -0.10460000000000000          9.7220429353840916E-036
 -0.10349999999999999         -4.2762233666715491E-034
 -0.10239999999999999         -5.5289989013631677E-033
 -0.10130000000000000         -1.9011127066556969E-032
 -0.10020000000000000          5.7042652751411439E-032
  -9.9099999999999994E-002     7.0969668766241801E-031
  -9.7999999999999990E-002     2.2965030529796754E-030
  -9.6899999999999986E-002    -7.4378512589661805E-032
  -9.5799999999999996E-002    -2.6460552165666925E-029
  -9.4699999999999993E-002    -9.3968188645492974E-029
  -9.3599999999999989E-002    -8.6917943131701972E-029
  -9.2499999999999999E-002     4.5503898989288590E-028
  -9.1399999999999995E-002     2.0145738871644397E-027
  -9.0299999999999991E-002     2.9824299768050048E-027
  -8.9200000000000002E-002    -3.6647148029652899E-027
  -8.8099999999999984E-002    -2.6964605174522030E-026
  -8.6999999999999994E-002    -5.3204981197167008E-026
  -8.5899999999999990E-002    -5.0747575953245700E-027
  -8.4799999999999986E-002     2.3869135229405743E-025
  -8.3699999999999997E-002     6.2313794251532781E-025
  -8.2599999999999993E-002     5.1366555339780874E-025
  -8.1499999999999989E-002    -1.3103323007473067E-024
  -8.0399999999999999E-002    -5.1407544862437199E-024
  -7.9299999999999995E-002    -7.1130531126501360E-024
  -7.8199999999999992E-002     2.2247445171870475E-024
  -7.7100000000000002E-002     2.9936621413444445E-023
  -7.5999999999999984E-002     5.9716194246990618E-023
  -7.4899999999999994E-002     3.4732913116644370E-023
  -7.3799999999999991E-002    -1.1228905966620659E-022
  -7.2699999999999987E-002    -3.4848344707102378E-022
  -7.1599999999999997E-002    -4.1110606127285303E-022
  -7.0499999999999993E-002     1.3357827663291093E-022
  -6.9399999999999989E-002     1.4230704490392974E-021
  -6.8300000000000000E-002     2.5671791277504141E-021
  -6.7199999999999996E-002     1.4806456537416222E-021
  -6.6099999999999992E-002    -3.5848907577098663E-021
  -6.5000000000000002E-002    -1.0805818534303701E-020
  -6.3899999999999985E-002    -1.2556158606663887E-020
  -6.2799999999999995E-002     1.0548505952115574E-021
  -6.1699999999999991E-002     3.0777355328733531E-020
  -6.0599999999999994E-002     5.5964519688776299E-020
  -5.9499999999999990E-002     3.7994930379617880E-020
  -5.8399999999999994E-002    -4.7780416340753901E-020
  -5.7299999999999990E-002    -1.6475061305502972E-019
  -5.6199999999999986E-002    -2.0043005253417407E-019
  -5.5099999999999996E-002    -3.6078105196710410E-020
  -5.3999999999999992E-002     3.1130713163726835E-019
  -5.2899999999999989E-002     5.9318695163518186E-019
  -5.1799999999999985E-002     4.4258492427625839E-019
  -5.0699999999999995E-002    -2.7532290541808188E-019
  -4.9599999999999991E-002    -1.1326605675358128E-018
  -4.8499999999999988E-002    -1.2671134693099350E-018
  -4.7399999999999998E-002    -1.5165082656770102E-019
  -4.6299999999999994E-002     1.5200004379247451E-018
  -4.5199999999999990E-002     1.9276086592310238E-018
  -4.4099999999999986E-002    -1.6686485839534486E-019
  -4.2999999999999997E-002    -3.1729653988715910E-018
  -4.1899999999999993E-002    -2.6173424796932643E-018
  -4.0799999999999989E-002     4.7136879850985341E-018
  -3.9699999999999985E-002     1.4542980007202819E-017
  -3.8599999999999995E-002     1.3666159306664917E-017
  -3.7499999999999992E-002    -1.0233829735056125E-017
  -3.6399999999999988E-002    -5.0469579513279612E-017
  -3.5299999999999984E-002    -7.1363038095972517E-017
  -3.4199999999999994E-002    -2.6366707651576417E-017
  -3.3099999999999991E-002     9.4449141663966438E-017
  -3.1999999999999987E-002     2.2118827620849139E-016
  -3.0899999999999997E-002     2.1956564836766247E-016
  -2.9799999999999993E-002    -9.0727058421272327E-018
  -2.8699999999999989E-002    -3.9562045364620151E-016
  -2.7599999999999986E-002    -6.6276902978494754E-016
  -2.6499999999999996E-002    -4.7850847342794314E-016
  -2.5399999999999992E-002     2.4203359208974209E-016
  -2.4299999999999988E-002     1.1173742894505551E-015
  -2.3199999999999985E-002     1.4344931235721219E-015
  -2.2099999999999995E-002     6.8028061850850361E-016
  -2.0999999999999991E-002    -8.8126135248174950E-016
  -1.9899999999999987E-002    -2.1543671713096685E-015
  -1.8799999999999983E-002    -1.9654657030540079E-015
  -1.7699999999999994E-002    -1.8959385820884131E-016
  -1.6599999999999990E-002     1.7783185077384639E-015
  -1.5499999999999986E-002     1.9886324570258111E-015
  -1.4399999999999996E-002    -9.4713803172795032E-017
  -1.3299999999999992E-002    -2.3683430403593577E-015
  -1.2199999999999989E-002    -1.3609382315156297E-015
  -1.1099999999999985E-002     4.1815943399592421E-015
  -9.9999999999999950E-003     1.0285968178147756E-014
  -8.8999999999999913E-003     9.0821461154737664E-015
  -7.7999999999999875E-003    -4.5710678226436937E-015
  -6.6999999999999837E-003    -2.5485043116235224E-014
  -5.5999999999999939E-003    -3.7181948994302880E-014
  -4.4999999999999901E-003    -2.2101190412131143E-014
  -3.3999999999999864E-003     2.1733279186500522E-014
  -2.2999999999999826E-003     7.0959233702158567E-014
  -1.1999999999999927E-003     8.6534248873026788E-014
  -9.9999999999988987E-005     4.1806796169008814E-014
   1.0000000000000148E-003    -4.9832266553958660E-014
   2.1000000000000185E-003    -1.3300744591892052E-013
   3.2000000000000084E-003    -1.4420131684892558E-013
   4.3000000000000121E-003    -6.1773401242766312E-014
   5.4000000000000159E-003     6.7970414787605040E-014
   6.5000000000000058E-003     1.5773378254327519E-013
   7.6000000000000234E-003     1.4678892341073372E-013
   8.7000000000000133E-003     5.5699281324330078E-014
   9.8000000000000032E-003    -2.6081503624912021E-014
   1.0900000000000021E-002    -2.2443707355658026E-014
   1.2000000000000011E-002     4.3154631853209113E-014
   1.3100000000000001E-002     4.6190648160517329E-014
   1.4200000000000018E-002    -1.2621703520969173E-013
   1.5300000000000008E-002    -4.2679296115561313E-013
   1.6400000000000026E-002    -6.0704633155986903E-013
   1.7500000000000016E-002    -3.7102614499198653E-013
   1.8600000000000005E-002     3.4970260225487325E-013
   1.9700000000000023E-002     1.2176735334665761E-012
   2.0800000000000013E-002     1.6107645504276969E-012
   2.1900000000000003E-002     1.0383573905516794E-012
   2.3000000000000020E-002    -4.1725360008823582E-013
   2.4100000000000010E-002    -2.0014387729386511E-012
   2.5200000000000000E-002    -2.6975311713825009E-012
   2.6300000000000018E-002    -1.9238767563975116E-012
   2.7400000000000008E-002    -1.2397835558057996E-014
   2.8500000000000025E-002     1.9436878774170724E-012
   2.9600000000000015E-002     2.8281617710086929E-012
   3.0700000000000005E-002     2.2921868019681469E-012
   3.1800000000000023E-002     9.6024439454430490E-013
   3.2900000000000013E-002    -1.5310822436927733E-013
   3.4000000000000002E-002    -5.5452524947139175E-013
   3.5100000000000020E-002    -7.0638293378701215E-013
   3.6200000000000010E-002    -1.5157745872238258E-012
   3.7300000000000028E-002    -3.2302511190921389E-012
   3.8400000000000017E-002    -4.7328638115673218E-012
   3.9500000000000007E-002    -4.0694431746512863E-012
   4.0600000000000025E-002    -7.1941591105180571E-014
   4.1700000000000015E-002     6.1211229572806185E-012
   4.2800000000000005E-002     1.1068938179032417E-011
   4.3900000000000022E-002     1.0994689355875325E-011
   4.5000000000000012E-002     4.5761929154452212E-012
   4.6100000000000002E-002    -5.5083002335349974E-012
   4.7200000000000020E-002    -1.3739486478313703E-011
   4.8300000000000010E-002    -1.5181773633623040E-011
   4.9400000000000027E-002    -8.8976566407792036E-012
   5.0500000000000017E-002     1.2049187169547523E-012
   5.1600000000000007E-002     8.9527685476396425E-012
   5.2700000000000025E-002     1.0225130564528970E-011
   5.3800000000000014E-002     5.8452169955953661E-012
   5.4900000000000004E-002     7.5804303616541275E-013
   5.6000000000000022E-002    -4.5255348285156335E-014
   5.7100000000000012E-002     4.2083481790658234E-012
   5.8200000000000002E-002     9.0631310076073444E-012
   5.9300000000000019E-002     8.1751253384875101E-012
   6.0400000000000009E-002    -1.3275526041326551E-012
   6.1500000000000027E-002    -1.5655507088101564E-011
   6.2600000000000017E-002    -2.6182277392804792E-011
   6.3700000000000007E-002    -2.5352162894258513E-011
   6.4800000000000024E-002    -1.2358164751916583E-011
   6.5900000000000014E-002     5.9412611584205245E-012
   6.7000000000000004E-002     1.9951404624607960E-011
   6.8100000000000022E-002     2.4517442765594631E-011
   6.9200000000000012E-002     2.2538664980158411E-011
   7.0300000000000029E-002     2.1599664440819627E-011
   7.1400000000000019E-002     2.5789271080167548E-011
   7.2500000000000009E-002     2.9446514599528478E-011
   7.3600000000000027E-002     1.9135813107570358E-011
   7.4700000000000016E-002    -1.5733165242704968E-011
   7.5800000000000006E-002    -7.0594351516569662E-011
   7.6900000000000024E-002    -1.2172974150673198E-010
   7.8000000000000014E-002    -1.3612896285309425E-010
   7.9100000000000004E-002    -9.1083800432002836E-011
   8.0200000000000021E-002     8.6855550939478111E-012
   8.1300000000000011E-002     1.2864433690592221E-010
   8.2400000000000029E-002     2.2010493891370716E-010
   8.3500000000000019E-002     2.4504361012741452E-010
   8.4600000000000009E-002     1.9453321530404900E-010
   8.5700000000000026E-002     8.9418572621335595E-011
   8.6800000000000016E-002    -3.5762823602200587E-011
   8.7900000000000006E-002    -1.5299915531784896E-010
   8.9000000000000024E-002    -2.5045376231345341E-010
   9.0100000000000013E-002    -3.2597124986019267E-010
   9.1200000000000003E-002    -3.7221013517228992E-010
   9.2300000000000021E-002    -3.6817048140156785E-010
   9.3400000000000011E-002    -2.8669072891565236E-010
   9.4500000000000028E-002    -1.1390550849478459E-010
   9.5600000000000018E-002     1.3444454202045240E-010
   9.6700000000000008E-002     4.1408906444067043E-010
   9.7800000000000026E-002     6.7180737260101531E-010
   9.8900000000000016E-002     8.6907801040697709E-010
  0.10000000000000001          9.9010940384474316E-010
  0.10110000000000002          1.0251741989107394E-009
  0.10220000000000001          9.4000878267691227E-010
  0.10330000000000003          6.5650500460118544E-010
  0.10440000000000002          6.7134730495029270E-011
  0.10550000000000001         -9.1430782950313656E-010
  0.10660000000000003         -2.2870671339831992E-009
  0.10770000000000002         -3.9156926900407088E-009
  0.10880000000000001         -5.5233254317098898E-009
  0.10990000000000003         -6.7245042714251762E-009
  0.11100000000000002         -7.0733222733138465E-009
  0.11210000000000001         -6.0972897934705006E-009
  0.11320000000000002         -3.3018637770501667E-009
  0.11430000000000001          1.8461870120646928E-009
  0.11540000000000003          9.9344608094491748E-009
  0.11650000000000002          2.1603339131290303E-008
  0.11760000000000001          3.7531774241519106E-008
  0.11870000000000003          5.8435556831029026E-008
  0.11980000000000002          8.5106118855143419E-008
  0.12090000000000001          1.1850117648841914E-007
  0.12200000000000003          1.5987158285942465E-007
  0.12310000000000001          2.1089240908018062E-007
  0.12420000000000003          2.7377028435617880E-007
  0.12530000000000002          3.5132165121410389E-007
  0.12640000000000001          4.4704019167208350E-007
  0.12750000000000003          5.6518036815183811E-007
  0.12860000000000002          7.1087609838637085E-007
  0.12970000000000001          8.9029429466430658E-007
  0.13080000000000003          1.1108128522579315E-006
  0.13190000000000002          1.3812206044400345E-006
  0.13300000000000001          1.7119463891325066E-006
  0.13410000000000000          2.1153354841744349E-006
  0.13520000000000004          2.6059816940535227E-006
  0.13630000000000003          3.2011132604790674E-006
  0.13740000000000002          3.9210052342820073E-006
  0.13850000000000001          4.7894053309642902E-006
  0.13960000000000000          5.8339678684076086E-006
  0.14070000000000005          7.0867324059810860E-006
  0.14180000000000004          8.5846761140220785E-006
  0.14290000000000003          1.0370382770857701E-005
  0.14400000000000002          1.2492805000141180E-005
  0.14510000000000001          1.5008090758033426E-005
  0.14620000000000000          1.7980427833612891E-005
  0.14730000000000004          2.1482870602617740E-005
  0.14840000000000003          2.5598134731385439E-005
  0.14950000000000002          3.0419446154779450E-005
  0.15060000000000001          3.6051348851891999E-005
  0.15170000000000000          4.2610578258774923E-005
  0.15280000000000005          5.0226862759130065E-005
  0.15390000000000004          5.9043740674154114E-005
  0.15500000000000003          6.9219246492547025E-005
  0.15610000000000002          8.0926473277012406E-005
  0.15720000000000001          9.4354036949162993E-005
  0.15830000000000000          1.0970641416786401E-004
  0.15940000000000004          1.2720404918866048E-004
  0.16050000000000003          1.4708325523899726E-004
  0.16160000000000002          1.6959582707345424E-004
  0.16270000000000001          1.9500827297679166E-004
  0.16380000000000000          2.2360055152121196E-004
  0.16490000000000005          2.5566431857912940E-004
  0.16600000000000004          2.9150077118472977E-004
  0.16710000000000003          3.3141765586269703E-004
  0.16820000000000002          3.7572621008121843E-004
  0.16930000000000001          4.2473724828956654E-004
  0.17040000000000000          4.7875702829751397E-004
  0.17150000000000004          5.3808195274287823E-004
  0.17260000000000003          6.0299326226288721E-004
  0.17370000000000002          6.7375074197821875E-004
  0.17480000000000001          7.5058558303357044E-004
  0.17590000000000000          8.3369269179269520E-004
  0.17700000000000005          9.2322275286370174E-004
  0.17810000000000004          1.0192741564581877E-003
  0.17920000000000003          1.1218846695370210E-003
  0.18030000000000002          1.2310219891580767E-003
  0.18140000000000001          1.3465750606613666E-003
  0.18250000000000000          1.4683452131269430E-003
  0.18360000000000004          1.5960377499281767E-003
  0.18470000000000003          1.7292544116690421E-003
  0.18580000000000002          1.8674867116934089E-003
  0.18690000000000001          2.0101092237568459E-003
  0.18800000000000000          2.1563745168313381E-003
  0.18910000000000005          2.3054088373422685E-003
  0.19020000000000004          2.4562107081214750E-003
  0.19130000000000003          2.6076509824545027E-003
  0.19240000000000002          2.7584759868070057E-003
  0.19350000000000001          2.9073108503702410E-003
  0.19460000000000005          3.0526661490249147E-003
  0.19570000000000004          3.1929478665575235E-003
  0.19680000000000003          3.3264693203182809E-003
  0.19790000000000002          3.4514649440632664E-003
  0.19900000000000001          3.5661077778865596E-003
  0.20010000000000000          3.6685304250444820E-003
  0.20120000000000005          3.7568453499113811E-003
  0.20230000000000004          3.8291701844429460E-003
  0.20340000000000003          3.8836530686200098E-003
  0.20450000000000002          3.9185024534811432E-003
  0.20560000000000000          3.9320165821348924E-003
  0.20670000000000005          3.9226116328833372E-003
  0.20780000000000004          3.8888493413312937E-003
  0.20890000000000003          3.8294699250455196E-003
