 -0.12000000000000000          0.0000000000000000
 -0.11889999999999999          0.0000000000000000
 -0.11780000000000000          0.0000000000000000
 -0.11670000000000000          2.6836141642228029E-010
 -0.11559999999999999          9.1323637541051994E-010
 -0.11449999999999999          8.8428320221822787E-010
 -0.11340000000000000         -1.6768991750737428E-009
 -0.11230000000000000         -6.8369390149314313E-009
 -0.11119999999999999         -1.0786713744437293E-008
 -0.11009999999999999         -8.2626083752757040E-009
 -0.10900000000000000          1.2398631010768213E-009
 -0.10790000000000000          1.0354934687484274E-008
 -0.10679999999999999          9.7012939903606821E-009
 -0.10569999999999999         -1.2921734793280848E-009
 -0.10460000000000000         -1.0922636128896102E-008
 -0.10349999999999999         -6.3363363445034793E-009
 -0.10239999999999999          9.8929131553404659E-009
 -0.10130000000000000          1.6810819403190180E-008
 -0.10020000000000000         -6.1675660134596910E-009
  -9.9099999999999994E-002    -5.4770691093608548E-008
  -9.7999999999999990E-002    -9.6635439206238516E-008
  -9.6899999999999986E-002    -9.7999397041803604E-008
  -9.5799999999999996E-002    -5.6697807337968698E-008
  -9.4699999999999993E-002    -6.5858505315929960E-009
  -9.3599999999999989E-002     1.4891481825429764E-008
  -9.2499999999999999E-002     4.2140193556861050E-009
  -9.1399999999999995E-002    -6.9242620526210885E-009
  -9.0299999999999991E-002     8.4956432999661047E-009
  -8.9200000000000002E-002     3.3730056969716316E-008
  -8.8099999999999984E-002     1.6916455791715634E-008
  -8.6999999999999994E-002    -7.4245306791453913E-008
  -8.5899999999999990E-002    -2.0728271010739263E-007
  -8.4799999999999986E-002    -3.0275688800429634E-007
  -8.3699999999999997E-002    -3.0540314810423297E-007
  -8.2599999999999993E-002    -2.3788605574281974E-007
  -8.1499999999999989E-002    -1.7671956697995483E-007
  -8.0399999999999999E-002    -1.6881472220120486E-007
  -7.9299999999999995E-002    -1.7465080759393459E-007
  -7.8199999999999992E-002    -1.0367381264586584E-007
  -7.7100000000000002E-002     8.7882092714153259E-008
  -7.5999999999999984E-002     3.3927014442269865E-007
  -7.4899999999999994E-002     5.3726745363746886E-007
  -7.3799999999999991E-002     6.3451250298385276E-007
  -7.2699999999999987E-002     7.1358192599291215E-007
  -7.1599999999999997E-002     9.2308721377776237E-007
  -7.0499999999999993E-002     1.3432330661089509E-006
  -6.9399999999999989E-002     1.9185736164217815E-006
  -6.8300000000000000E-002     2.5338197247037897E-006
  -6.7199999999999996E-002     3.1602562557964120E-006
  -6.6099999999999992E-002     3.9195233512145933E-006
  -6.5000000000000002E-002     4.9905952437256929E-006
  -6.3899999999999985E-002     6.4507880779274274E-006
  -6.2799999999999995E-002     8.2202423072885722E-006
  -6.1699999999999991E-002     1.0180265235248953E-005
  -6.0599999999999994E-002     1.2353528290987015E-005
  -5.9499999999999990E-002     1.4958995961933397E-005
  -5.8399999999999994E-002     1.8274824469699524E-005
  -5.7299999999999990E-002     2.2442623958340846E-005
  -5.6199999999999986E-002     2.7417565434006974E-005
  -5.5099999999999996E-002     3.3127242204500362E-005
  -5.3999999999999992E-002     3.9685630326857790E-005
  -5.2899999999999989E-002     4.7441972128581256E-005
  -5.1799999999999985E-002     5.6805958593031392E-005
  -5.0699999999999995E-002     6.8021472543478012E-005
  -4.9599999999999991E-002     8.1121652328874916E-005
  -4.8499999999999988E-002     9.6118092187680304E-005
  -4.7399999999999998E-002     1.1323609942337498E-004
  -4.6299999999999994E-002     1.3295508688315749E-004
  -4.5199999999999990E-002     1.5581004845444113E-004
  -4.4099999999999986E-002     1.8215671298094094E-004
  -4.2999999999999997E-002     2.1214337903074920E-004
  -4.1899999999999993E-002     2.4591962574049830E-004
  -4.0799999999999989E-002     2.8386365738697350E-004
  -3.9699999999999985E-002     3.2658409327268600E-004
  -3.8599999999999995E-002     3.7468134541995823E-004
  -3.7499999999999992E-002     4.2850314639508724E-004
  -3.6399999999999988E-002     4.8813715693540871E-004
  -3.5299999999999984E-002     5.5364036234095693E-004
  -3.4199999999999994E-002     6.2525825342163444E-004
  -3.3099999999999991E-002     7.0339511148631573E-004
  -3.1999999999999987E-002     7.8835018211975694E-004
  -3.0899999999999997E-002     8.8007212616503239E-004
  -2.9799999999999993E-002     9.7816158086061478E-004
  -2.8699999999999989E-002     1.0820885654538870E-003
  -2.7599999999999986E-002     1.1913666967302561E-003
  -2.6499999999999996E-002     1.3054723385721445E-003
  -2.5399999999999992E-002     1.4235640410333872E-003
  -2.4299999999999988E-002     1.5442611183971167E-003
  -2.3199999999999985E-002     1.6656750813126564E-003
  -2.2099999999999995E-002     1.7856152262538671E-003
  -2.0999999999999991E-002     1.9017101731151342E-003
  -1.9899999999999987E-002     2.0112805068492889E-003
  -1.8799999999999983E-002     2.1110649686306715E-003
  -1.7699999999999994E-002     2.1970600355416536E-003
  -1.6599999999999990E-002     2.2646135184913874E-003
  -1.5499999999999986E-002     2.3086436558514833E-003
  -1.4399999999999996E-002     2.3237282875925303E-003
  -1.3299999999999992E-002     2.3039560765028000E-003
  -1.2199999999999989E-002     2.2426953073590994E-003
  -1.1099999999999985E-002     2.1325354464352131E-003
  -9.9999999999999950E-003     1.9654822535812855E-003
  -8.8999999999999913E-003     1.7332276329398155E-003
  -7.7999999999999875E-003     1.4272497501224279E-003
  -6.6999999999999837E-003     1.0387022048234940E-003
  -5.5999999999999939E-003     5.5829749908298254E-004
  -4.4999999999999901E-003    -2.3577515094075352E-005
  -3.3999999999999864E-003    -7.1650679456070065E-004
  -2.2999999999999826E-003    -1.5296797500923276E-003
  -1.1999999999999927E-003    -2.4717487394809723E-003
  -9.9999999999988987E-005    -3.5508838482201099E-003
   1.0000000000000148E-003    -4.7747725620865822E-003
   2.1000000000000185E-003    -6.1503481119871140E-003
   3.2000000000000084E-003    -7.6833022758364677E-003
   4.3000000000000121E-003    -9.3776565045118332E-003
   5.4000000000000159E-003    -1.1235604993999004E-002
   6.5000000000000058E-003    -1.3257537968456745E-002
   7.6000000000000234E-003    -1.5441994182765484E-002
   8.7000000000000133E-003    -1.7785333096981049E-002
   9.8000000000000032E-003    -2.0281255245208740E-002
   1.0900000000000021E-002    -2.2920453920960426E-002
   1.2000000000000011E-002    -2.5690579786896706E-002
   1.3100000000000001E-002    -2.8576394543051720E-002
   1.4200000000000018E-002    -3.1559832394123077E-002
   1.5300000000000008E-002    -3.4619841724634171E-002
   1.6400000000000026E-002    -3.7732161581516266E-002
   1.7500000000000016E-002    -4.0869269520044327E-002
   1.8600000000000005E-002    -4.4000677764415741E-002
   1.9700000000000023E-002    -4.7093387693166733E-002
   2.0800000000000013E-002    -5.0112243741750717E-002
   2.1900000000000003E-002    -5.3020086139440536E-002
   2.3000000000000020E-002    -5.5777914822101593E-002
   2.4100000000000010E-002    -5.8345261961221695E-002
   2.5200000000000000E-002    -6.0680866241455078E-002
   2.6300000000000018E-002    -6.2743470072746277E-002
   2.7400000000000008E-002    -6.4492404460906982E-002
   2.8500000000000025E-002    -6.5888054668903351E-002
   2.9600000000000015E-002    -6.6892296075820923E-002
   3.0700000000000005E-002    -6.7469239234924316E-002
   3.1800000000000023E-002    -6.7586101591587067E-002
   3.2900000000000013E-002    -6.7213989794254303E-002
   3.4000000000000002E-002    -6.6328458487987518E-002
   3.5100000000000020E-002    -6.4909860491752625E-002
   3.6200000000000010E-002    -6.2943778932094574E-002
   3.7300000000000028E-002    -6.0421578586101532E-002
   3.8400000000000017E-002    -5.7341121137142181E-002
   3.9500000000000007E-002    -5.3707104176282883E-002
   4.0600000000000025E-002    -4.9531079828739166E-002
   4.1700000000000015E-002    -4.4831309467554092E-002
   4.2800000000000005E-002    -3.9632719010114670E-002
   4.3900000000000022E-002    -3.3967006951570511E-002
   4.5000000000000012E-002    -2.7872661128640175E-002
   4.6100000000000002E-002    -2.1394619718194008E-002
   4.7200000000000020E-002    -1.4583520591259003E-002
   4.8300000000000010E-002    -7.4948635883629322E-003
   4.9400000000000027E-002    -1.8835900118574500E-004
   5.0500000000000017E-002     7.2725214995443821E-003
   5.1600000000000007E-002     1.4821112155914307E-002
   5.2700000000000025E-002     2.2388508543372154E-002
   5.3800000000000014E-002     2.9904844239354134E-002
   5.4900000000000004E-002     3.7300515919923782E-002
   5.6000000000000022E-002     4.4507071375846863E-002
   5.7100000000000012E-002     5.1457796245813370E-002
   5.8200000000000002E-002     5.8088418096303940E-002
   5.9300000000000019E-002     6.4338102936744690E-002
   6.0400000000000009E-002     7.0150665938854218E-002
   6.1500000000000027E-002     7.5475558638572693E-002
   6.2600000000000017E-002     8.0268405377864838E-002
   6.3700000000000007E-002     8.4491185843944550E-002
   6.4800000000000024E-002     8.8112413883209229E-002
   6.5900000000000014E-002     9.1107718646526337E-002
   6.7000000000000004E-002     9.3460418283939362E-002
   6.8100000000000022E-002     9.5161847770214081E-002
   6.9200000000000012E-002     9.6211098134517670E-002
   7.0300000000000029E-002     9.6614427864551544E-002
   7.1400000000000019E-002     9.6384800970554352E-002
   7.2500000000000009E-002     9.5541819930076599E-002
   7.3600000000000027E-002     9.4111628830432892E-002
   7.4700000000000016E-002     9.2126496136188507E-002
   7.5800000000000006E-002     8.9623890817165375E-002
   7.6900000000000024E-002     8.6645357310771942E-002
   7.8000000000000014E-002     8.3235733211040497E-002
   7.9100000000000004E-002     7.9442657530307770E-002
   8.0200000000000021E-002     7.5316257774829865E-002
   8.1300000000000011E-002     7.0908382534980774E-002
   8.2400000000000029E-002     6.6271513700485229E-002
   8.3500000000000019E-002     6.1457645148038864E-002
   8.4600000000000009E-002     5.6517563760280609E-002
   8.5700000000000026E-002     5.1500607281923294E-002
   8.6800000000000016E-002     4.6454444527626038E-002
   8.7900000000000006E-002     4.1424538940191269E-002
   8.9000000000000024E-002     3.6453284323215485E-002
   9.0100000000000013E-002     3.1579297035932541E-002
   9.1200000000000003E-002     2.6837222278118134E-002
   9.2300000000000021E-002     2.2257948294281960E-002
   9.3400000000000011E-002     1.7868783324956894E-002
   9.4500000000000028E-002     1.3693234883248806E-002
   9.5600000000000018E-002     9.7505915910005569E-003
   9.6700000000000008E-002     6.0557196848094463E-003
   9.7800000000000026E-002     2.6193829253315926E-003
   9.8900000000000016E-002    -5.5113469716161489E-004
  0.10000000000000001         -3.4516027662903070E-003
  0.10110000000000002         -6.0808453708887100E-003
  0.10220000000000001         -8.4409192204475403E-003
  0.10330000000000003         -1.0536978021264076E-002
  0.10440000000000002         -1.2376660481095314E-002
  0.10550000000000001         -1.3969318941235542E-002
  0.10660000000000003         -1.5325581654906273E-002
  0.10770000000000002         -1.6457399353384972E-002
  0.10880000000000001         -1.7378197982907295E-002
  0.10990000000000003         -1.8102655187249184E-002
  0.11100000000000002         -1.8646039068698883E-002
  0.11210000000000001         -1.9023511558771133E-002
  0.11320000000000002         -1.9249886274337769E-002
  0.11430000000000001         -1.9339865073561668E-002
  0.11540000000000003         -1.9308298826217651E-002
  0.11650000000000002         -1.9170001149177551E-002
  0.11760000000000001         -1.8939161673188210E-002
  0.11870000000000003         -1.8628798425197601E-002
  0.11980000000000002         -1.8250754103064537E-002
  0.12090000000000001         -1.7816143110394478E-002
  0.12200000000000003         -1.7335709184408188E-002
  0.12310000000000001         -1.6819691285490990E-002
  0.12420000000000003         -1.6277294605970383E-002
  0.12530000000000002         -1.5716323629021645E-002
  0.12640000000000001         -1.5143341384828091E-002
  0.12750000000000003         -1.4564217999577522E-002
  0.12860000000000002         -1.3984505087137222E-002
  0.12970000000000001         -1.3409293256700039E-002
  0.13080000000000003         -1.2842753902077675E-002
  0.13190000000000002         -1.2287898920476437E-002
  0.13300000000000001         -1.1746864765882492E-002
  0.13410000000000000         -1.1221466585993767E-002
  0.13520000000000004         -1.0713504627346992E-002
  0.13630000000000003         -1.0224551893770695E-002
  0.13740000000000002         -9.7555238753557205E-003
  0.13850000000000001         -9.3065528199076653E-003
  0.13960000000000000         -8.8773434981703758E-003
  0.14070000000000005         -8.4676807746291161E-003
  0.14180000000000004         -8.0775897949934006E-003
  0.14290000000000003         -7.7070291154086590E-003
  0.14400000000000002         -7.3554879054427147E-003
  0.14510000000000001         -7.0219673216342926E-003
  0.14620000000000000         -6.7054033279418945E-003
  0.14730000000000004         -6.4051044173538685E-003
  0.14840000000000003         -6.1207488179206848E-003
  0.14950000000000002         -5.8519593439996243E-003
  0.15060000000000001         -5.5979266762733459E-003
  0.15170000000000000         -5.3575090132653713E-003
  0.15280000000000005         -5.1297186873853207E-003
  0.15390000000000004         -4.9140895716845989E-003
  0.15500000000000003         -4.7105168923735619E-003
  0.15610000000000002         -4.5187319628894329E-003
  0.15720000000000001         -4.3379566632211208E-003
  0.15830000000000000         -4.1671139188110828E-003
  0.15940000000000004         -4.0053878910839558E-003
  0.16050000000000003         -3.8525457493960857E-003
  0.16160000000000002         -3.7086734082549810E-003
  0.16270000000000001         -3.5735913552343845E-003
  0.16380000000000000         -3.4465515054762363E-003
  0.16490000000000005         -3.3265403471887112E-003
  0.16600000000000004         -3.2128780148923397E-003
  0.16710000000000003         -3.1054925639182329E-003
  0.16820000000000002         -3.0045779421925545E-003
  0.16930000000000001         -2.9099897947162390E-003
  0.17040000000000000         -2.8209986630827188E-003
  0.17150000000000004         -2.7366597205400467E-003
  0.17260000000000003         -2.6564137078821659E-003
  0.17370000000000002         -2.5803013704717159E-003
  0.17480000000000001         -2.5085762608796358E-003
  0.17590000000000000         -2.4411240592598915E-003
  0.17700000000000005         -2.3772928398102522E-003
  0.17810000000000004         -2.3163021542131901E-003
  0.17920000000000003         -2.2577967029064894E-003
  0.18030000000000002         -2.2019690368324518E-003
  0.18140000000000001         -2.1491304505616426E-003
  0.18250000000000000         -2.0991845522075891E-003
  0.18360000000000004         -2.0515499636530876E-003
  0.18470000000000003         -2.0055978093296289E-003
  0.18580000000000002         -1.9611322786659002E-003
  0.18690000000000001         -1.9184055272489786E-003
  0.18800000000000000         -1.8776624929159880E-003
  0.18910000000000005         -1.8387027084827423E-003
  0.19020000000000004         -1.8009240739047527E-003
  0.19130000000000003         -1.7637982964515686E-003
  0.19240000000000002         -1.7272700788453221E-003
  0.19350000000000001         -1.6916580498218536E-003
  0.19460000000000005         -1.6571640735492110E-003
  0.19570000000000004         -1.6235162038356066E-003
  0.19680000000000003         -1.5901234000921249E-003
  0.19790000000000002         -1.5565801877528429E-003
  0.19900000000000001         -1.5229836571961641E-003
  0.20010000000000000         -1.4897304354235530E-003
  0.20120000000000005         -1.4570066705346107E-003
  0.20230000000000004         -1.4245164347812533E-003
  0.20340000000000003         -1.3917416799813509E-003
  0.20450000000000002         -1.3584651751443744E-003
  0.20560000000000000         -1.3250104384496808E-003
  0.20670000000000005         -1.2919447617605329E-003
  0.20780000000000004         -1.2595496373251081E-003
  0.20890000000000003         -1.2276107445359230E-003
