 -0.12000000000000000          0.0000000000000000
 -0.11889999999999999          0.0000000000000000
 -0.11780000000000000          0.0000000000000000
 -0.11670000000000000          0.0000000000000000
 -0.11559999999999999          0.0000000000000000
 -0.11449999999999999          0.0000000000000000
 -0.11340000000000000          0.0000000000000000
 -0.11230000000000000          0.0000000000000000
 -0.11119999999999999          0.0000000000000000
 -0.11009999999999999          0.0000000000000000
 -0.10900000000000000          0.0000000000000000
 -0.10790000000000000          9.2866581498012721E-030
 -0.10679999999999999         -1.7779274943757685E-029
 -0.10569999999999999         -3.8530886320789908E-028
 -0.10460000000000000         -1.2575785683876652E-028
 -0.10349999999999999          8.5183203512907017E-027
 -0.10239999999999999          2.8588645842928036E-026
 -0.10130000000000000         -2.2300171803480742E-026
 -0.10020000000000000         -3.5470837245613667E-025
  -9.9099999999999994E-002    -7.3132464484542524E-025
  -9.7999999999999990E-002     9.5568181388616494E-025
  -9.6899999999999986E-002     7.6497056825075555E-024
  -9.5799999999999996E-002     1.2466984196713722E-023
  -9.4699999999999993E-002    -1.6505780059767964E-023
  -9.3599999999999989E-002    -1.1044312681648526E-022
  -9.2499999999999999E-002    -1.7447868991674743E-022
  -9.1399999999999995E-002     1.3984471743876690E-022
  -9.0299999999999991E-002     1.1376892905192849E-021
  -8.9200000000000002E-002     1.9730351814212018E-021
  -8.8099999999999984E-002    -3.3032981164100662E-022
  -8.6999999999999994E-002    -8.5898457619469786E-021
  -8.5899999999999990E-002    -1.7531288520668743E-020
  -8.4799999999999986E-002    -6.5985546478611818E-021
  -8.3699999999999997E-002     4.7168471934801883E-020
  -8.2599999999999993E-002     1.2168328288901397E-019
  -8.1499999999999989E-002     1.0105814823811511E-019
  -8.0399999999999999E-002    -1.7207225652299463E-019
  -7.9299999999999995E-002    -6.5728924356442325E-019
  -7.8199999999999992E-002    -8.2502477308156135E-019
  -7.7100000000000002E-002     2.1613996761463333E-019
  -7.5999999999999984E-002     2.7069719224320877E-018
  -7.4899999999999994E-002     4.7430966457709134E-018
  -7.3799999999999991E-002     2.1725673381988351E-018
  -7.2699999999999987E-002    -7.8743706566169235E-018
  -7.1599999999999997E-002    -2.0482477583193110E-017
  -7.0499999999999993E-002    -1.9863931773460658E-017
  -6.9399999999999989E-002     1.0977543687693282E-017
  -6.8300000000000000E-002     6.6427301573887423E-017
  -6.7199999999999996E-002     9.8505167205346824E-017
  -6.6099999999999992E-002     3.4682306655809162E-017
  -6.5000000000000002E-002    -1.4957590702930159E-016
  -6.3899999999999985E-002    -3.4477351152353223E-016
  -6.2799999999999995E-002    -3.1071042565683537E-016
  -6.1699999999999991E-002     1.4499012359242601E-016
  -6.0599999999999994E-002     8.7564455554224813E-016
  -5.9499999999999990E-002     1.2585637987986838E-015
  -5.8399999999999994E-002     5.2356848181286096E-016
  -5.7299999999999990E-002    -1.4533855059527907E-015
  -5.6199999999999986E-002    -3.4631892842975362E-015
  -5.5099999999999996E-002    -3.2867152636930231E-015
  -5.3999999999999992E-002     5.6739920752015959E-016
  -5.2899999999999989E-002     6.6584387539724878E-015
  -5.1799999999999985E-002     1.0110648585449477E-014
  -5.0699999999999995E-002     5.5471082337687962E-015
  -4.9599999999999991E-002    -7.5018836696622189E-015
  -4.8499999999999988E-002    -2.1036259756704312E-014
  -4.7399999999999998E-002    -2.1836292539781366E-014
  -4.6299999999999994E-002    -2.0654093737496222E-015
  -4.5199999999999990E-002     2.9810579189621517E-014
  -4.4099999999999986E-002     4.9039460372265337E-014
  -4.2999999999999997E-002     3.1232625535317082E-014
  -4.1899999999999993E-002    -2.3153484676936321E-014
  -4.0799999999999989E-002    -7.7832922398823889E-014
  -3.9699999999999985E-002    -8.0792604594329132E-014
  -3.8599999999999995E-002    -9.1771039281273586E-015
  -3.7499999999999992E-002     9.5739192127516221E-014
  -3.6399999999999988E-002     1.4342650331289342E-013
  -3.5299999999999984E-002     6.5042724895283954E-014
  -3.4199999999999994E-002    -1.0805253718680630E-013
  -3.3099999999999991E-002    -2.3493387140208211E-013
  -3.1999999999999987E-002    -1.6322682680307288E-013
  -3.0899999999999997E-002     1.2015014634256249E-013
  -2.9799999999999993E-002     4.1591705665471046E-013
  -2.8699999999999989E-002     4.2192416010652933E-013
  -2.7599999999999986E-002    -9.7335605287601767E-015
  -2.6499999999999996E-002    -6.6157197992425254E-013
  -2.5399999999999992E-002    -1.0076140226009112E-012
  -2.4299999999999988E-002    -5.8468496971081363E-013
  -2.3199999999999985E-002     5.5649153904782644E-013
  -2.2099999999999995E-002     1.7086484137285307E-012
  -2.0999999999999991E-002     1.9035792907240445E-012
  -1.9899999999999987E-002     6.5858326821557900E-013
  -1.8799999999999983E-002    -1.4797629267759849E-012
  -1.7699999999999994E-002    -3.1159493388277504E-012
  -1.6599999999999990E-002    -2.9291146331350548E-012
  -1.5499999999999986E-002    -7.2397979538479929E-013
  -1.4399999999999996E-002     2.2398814573942882E-012
  -1.3299999999999992E-002     4.0315858290673745E-012
  -1.2199999999999989E-002     3.4573333779208681E-012
  -1.1099999999999985E-002     1.0025067798472009E-012
  -9.9999999999999950E-003    -1.5321919080713009E-012
  -8.8999999999999913E-003    -2.5153373307829074E-012
  -7.7999999999999875E-003    -1.8916192397189224E-012
  -6.6999999999999837E-003    -1.2174935538900034E-012
  -5.5999999999999939E-003    -2.0930301762589476E-012
  -4.4999999999999901E-003    -4.2175338742234114E-012
  -3.3999999999999864E-003    -4.9121995533696339E-012
  -2.2999999999999826E-003    -1.0113734936340046E-012
  -1.1999999999999927E-003     7.9438487038396843E-012
  -9.9999999999988987E-005     1.7750479905376260E-011
   1.0000000000000148E-003     2.0981253193164129E-011
   2.1000000000000185E-003     1.1679555760035765E-011
   3.2000000000000084E-003    -9.5005860817343191E-012
   4.3000000000000121E-003    -3.3520831943523177E-011
   5.4000000000000159E-003    -4.6635438566422494E-011
   6.5000000000000058E-003    -3.8053855205832932E-011
   7.6000000000000234E-003    -7.1292685296930891E-012
   8.7000000000000133E-003     3.4615272453963897E-011
   9.8000000000000032E-003     6.8367748962128161E-011
   1.0900000000000021E-002     7.7270648213279003E-011
   1.2000000000000011E-002     5.4731077309133624E-011
   1.3100000000000001E-002     7.2098204143000721E-012
   1.4200000000000018E-002    -4.9410250196890715E-011
   1.5300000000000008E-002    -9.6755797818204314E-011
   1.6400000000000026E-002    -1.1967238311427764E-010
   1.7500000000000016E-002    -1.0839375230720094E-010
   1.8600000000000005E-002    -5.8738805486235890E-011
   1.9700000000000023E-002     2.6081492868201828E-011
   2.0800000000000013E-002     1.3063956860737136E-010
   2.1900000000000003E-002     2.2316547221290506E-010
   2.3000000000000020E-002     2.5939617120940284E-010
   2.4100000000000010E-002     1.9918137972307903E-010
   2.5200000000000000E-002     3.1760656604706838E-011
   2.6300000000000018E-002    -2.0417026402874683E-010
   2.7400000000000008E-002    -4.2205960948393795E-010
   2.8500000000000025E-002    -5.1793236366393103E-010
   2.9600000000000015E-002    -4.1938041928091252E-010
   3.0700000000000005E-002    -1.2827347517507803E-010
   3.1800000000000023E-002     2.6820684562167685E-010
   3.2900000000000013E-002     6.2765770358907957E-010
   3.4000000000000002E-002     8.0989881467985469E-010
   3.5100000000000020E-002     7.3280015389087794E-010
   3.6200000000000010E-002     4.0057931971482219E-010
   3.7300000000000028E-002    -1.0291466984169162E-010
   3.8400000000000017E-002    -6.4370464514240666E-010
   3.9500000000000007E-002    -1.0711317388611974E-009
   4.0600000000000025E-002    -1.2458335474363480E-009
   4.1700000000000015E-002    -1.0673065764521539E-009
   4.2800000000000005E-002    -5.0981457944132558E-010
   4.3900000000000022E-002     3.3808289501280342E-010
   4.5000000000000012E-002     1.2556587991596757E-009
   4.6100000000000002E-002     1.9264716488720524E-009
   4.7200000000000020E-002     2.0419208546229584E-009
   4.8300000000000010E-002     1.4432015582599433E-009
   4.9400000000000027E-002     2.3500237866791451E-010
   5.0500000000000017E-002    -1.2011105443576753E-009
   5.1600000000000007E-002    -2.3264123960586858E-009
   5.2700000000000025E-002    -2.6626856275413502E-009
   5.3800000000000014E-002    -2.0132902012193199E-009
   5.4900000000000004E-002    -5.7886273552298917E-010
   5.6000000000000022E-002     1.0973183472984260E-009
   5.7100000000000012E-002     2.3381918623499587E-009
   5.8200000000000002E-002     2.6050872570237971E-009
   5.9300000000000019E-002     1.7148811259914964E-009
   6.0400000000000009E-002    -8.2728157657641077E-011
   6.1500000000000027E-002    -2.1810886430273513E-009
   6.2600000000000017E-002    -3.7935463659266588E-009
   6.3700000000000007E-002    -4.1573335884947937E-009
   6.4800000000000024E-002    -2.7159763327233577E-009
   6.5900000000000014E-002     7.2510197846042956E-010
   6.7000000000000004E-002     5.8562901195102768E-009
   6.8100000000000022E-002     1.1746187134065167E-008
   6.9200000000000012E-002     1.6807383929062780E-008
   7.0300000000000029E-002     1.8925462086372136E-008
   7.1400000000000019E-002     1.5788067742050771E-008
   7.2500000000000009E-002     5.3511763908886678E-009
   7.3600000000000027E-002    -1.3721840552705089E-008
   7.4700000000000016E-002    -4.1848032594771212E-008
   7.5800000000000006E-002    -7.8673423331565573E-008
   7.6900000000000024E-002    -1.2357664047613071E-007
   7.8000000000000014E-002    -1.7638006966080866E-007
   7.9100000000000004E-002    -2.3804594206922047E-007
   8.0200000000000021E-002    -3.1115644105739193E-007
   8.1300000000000011E-002    -4.0007120105656213E-007
   8.2400000000000029E-002    -5.1077279294986511E-007
   8.3500000000000019E-002    -6.5050721786974464E-007
   8.4600000000000009E-002    -8.2738131368387258E-007
   8.5700000000000026E-002    -1.0500975804461632E-006
   8.6800000000000016E-002    -1.3279779977892758E-006
   8.7900000000000006E-002    -1.6713538570911624E-006
   8.9000000000000024E-002    -2.0923041574860690E-006
   9.0100000000000013E-002    -2.6056081878778059E-006
   9.1200000000000003E-002    -3.2297173220285913E-006
   9.2300000000000021E-002    -3.9875676520750858E-006
   9.3400000000000011E-002    -4.9071386456489563E-006
   9.4500000000000028E-002    -6.0218239923415240E-006
   9.5600000000000018E-002    -7.3707487899810076E-006
   9.6700000000000008E-002    -8.9992390712723136E-006
   9.7800000000000026E-002    -1.0959558494505472E-005
   9.8900000000000016E-002    -1.3311942893778905E-005
  0.10000000000000001         -1.6125859474414028E-005
  0.10110000000000002         -1.9481361960060894E-005
  0.10220000000000001         -2.3470491214538924E-005
  0.10330000000000003         -2.8198686777614057E-005
  0.10440000000000002         -3.3786298445193097E-005
  0.10550000000000001         -4.0370250644627959E-005
  0.10660000000000003         -4.8105848691193387E-005
  0.10770000000000002         -5.7168574130628258E-005
  0.10880000000000001         -6.7755820055026561E-005
  0.10990000000000003         -8.0088335380423814E-005
  0.11100000000000002         -9.4411538157146424E-005
  0.11210000000000001         -1.1099682888016105E-004
  0.11320000000000002         -1.3014306023251265E-004
  0.11430000000000001         -1.5217800682876259E-004
  0.11540000000000003         -1.7745977675076574E-004
  0.11650000000000002         -2.0637779380194843E-004
  0.11760000000000001         -2.3935307399369776E-004
  0.11870000000000003         -2.7683787629939616E-004
  0.11980000000000002         -3.1931474222801626E-004
  0.12090000000000001         -3.6729505518451333E-004
  0.12200000000000003         -4.2131738155148923E-004
  0.12310000000000001         -4.8194473492912948E-004
  0.12420000000000003         -5.4976117098703980E-004
  0.12530000000000002         -6.2536698533222079E-004
  0.12640000000000001         -7.0937274722382426E-004
  0.12750000000000003         -8.0239283852279186E-004
  0.12860000000000002         -9.0503779938444495E-004
  0.12970000000000001         -1.0179058881476521E-003
  0.13080000000000003         -1.1415734188631177E-003
  0.13190000000000002         -1.2765838764607906E-003
  0.13300000000000001         -1.4234344707801938E-003
  0.13410000000000000         -1.5825628070160747E-003
  0.13520000000000004         -1.7543309368193150E-003
  0.13630000000000003         -1.9390106899663806E-003
  0.13740000000000002         -2.1367671433836222E-003
  0.13850000000000001         -2.3476432543247938E-003
  0.13960000000000000         -2.5715441443026066E-003
  0.14070000000000005         -2.8082223143428564E-003
  0.14180000000000004         -3.0572614632546902E-003
  0.14290000000000003         -3.3180618193000555E-003
  0.14400000000000002         -3.5898273345082998E-003
  0.14510000000000001         -3.8715510163456202E-003
  0.14620000000000000         -4.1620051488280296E-003
  0.14730000000000004         -4.4597336091101170E-003
  0.14840000000000003         -4.7630462795495987E-003
  0.14950000000000002         -5.0700190477073193E-003
  0.15060000000000001         -5.3784931078553200E-003
  0.15170000000000000         -5.6860847398638725E-003
  0.15280000000000005         -5.9901922941207886E-003
  0.15390000000000004         -6.2880148179829121E-003
  0.15500000000000003         -6.5765678882598877E-003
  0.15610000000000002         -6.8527110852301121E-003
  0.15720000000000001         -7.1131717413663864E-003
  0.15830000000000000         -7.3545784689486027E-003
  0.15940000000000004         -7.5735007412731647E-003
  0.16050000000000003         -7.7664875425398350E-003
  0.16160000000000002         -7.9301139339804649E-003
  0.16270000000000001         -8.0610280856490135E-003
  0.16380000000000000         -8.1560024991631508E-003
  0.16490000000000005         -8.2119908183813095E-003
  0.16600000000000004         -8.2261702045798302E-003
  0.16710000000000003         -8.1960046663880348E-003
  0.16820000000000002         -8.1192841753363609E-003
  0.16930000000000001         -7.9941805452108383E-003
  0.17040000000000000         -7.8192865476012230E-003
  0.17150000000000004         -7.5936606153845787E-003
  0.17260000000000003         -7.3168659582734108E-003
  0.17370000000000002         -6.9889985024929047E-003
  0.17480000000000001         -6.6107101738452911E-003
  0.17590000000000000         -6.1832237988710403E-003
  0.17700000000000005         -5.7083386927843094E-003
  0.17810000000000004         -5.1884311251342297E-003
  0.17920000000000003         -4.6264398843050003E-003
  0.18030000000000002         -4.0258495137095451E-003
  0.18140000000000001         -3.3906595781445503E-003
  0.18250000000000000         -2.7253457810729742E-003
  0.18360000000000004         -2.0348117686808109E-003
  0.18470000000000003         -1.3243362773209810E-003
  0.18580000000000002         -5.9951143339276314E-004
  0.18690000000000001          1.3382363249547780E-004
  0.18800000000000000          8.6965761147439480E-004
  0.18910000000000005          1.6018825117498636E-003
  0.19020000000000004          2.3243741597980261E-003
  0.19130000000000003          3.0310738366097212E-003
  0.19240000000000002          3.7160674110054970E-003
  0.19350000000000001          4.3736640363931656E-003
  0.19460000000000005          4.9984715878963470E-003
  0.19570000000000004          5.5854627862572670E-003
  0.19680000000000003          6.1300443485379219E-003
  0.19790000000000002          6.6281119361519814E-003
  0.19900000000000001          7.0760981179773808E-003
  0.20010000000000000          7.4710166081786156E-003
  0.20120000000000005          7.8104943968355656E-003
  0.20230000000000004          8.0927927047014236E-003
  0.20340000000000003          8.3168167620897293E-003
  0.20450000000000002          8.4821209311485291E-003
  0.20560000000000000          8.5888989269733429E-003
  0.20670000000000005          8.6379600688815117E-003
  0.20780000000000004          8.6307097226381302E-003
  0.20890000000000003          8.5691101849079132E-003
