 -0.12000000000000000          0.0000000000000000     
 -0.11889999999999999          0.0000000000000000     
 -0.11780000000000000          0.0000000000000000     
 -0.11670000000000000          0.0000000000000000     
 -0.11559999999999999          0.0000000000000000     
 -0.11449999999999999          0.0000000000000000     
 -0.11340000000000000          0.0000000000000000     
 -0.11230000000000000          0.0000000000000000     
 -0.11119999999999999          0.0000000000000000     
 -0.11009999999999999          0.0000000000000000     
 -0.10900000000000000         -4.2212085705332338E-027
 -0.10790000000000000          8.0814901657685220E-027
 -0.10679999999999999          1.7936157838687128E-025
 -0.10569999999999999          4.9081273845331048E-026
 -0.10460000000000000         -4.0471025683862195E-024
 -0.10349999999999999         -1.3052000288582003E-023
 -0.10239999999999999          1.4008399472853854E-023
 -0.10130000000000000          1.7422592626094014E-022
 -0.10020000000000000          3.2228385954808474E-022
  -9.9099999999999994E-002    -5.9563208968154099E-022
  -9.7999999999999990E-002    -3.8095585006866614E-021
  -9.6899999999999986E-002    -5.2324097245769538E-021
  -9.5799999999999996E-002     1.0979766037655877E-020
  -9.4699999999999993E-002     5.5868224473880444E-020
  -9.3599999999999989E-002     7.1805855840412013E-020
  -9.2499999999999999E-002    -1.1376720320097271E-019
  -9.1399999999999995E-002    -5.9643992484985600E-019
  -9.0299999999999991E-002    -8.3326824827111168E-019
  -8.9200000000000002E-002     6.6728163706285211E-019
  -8.8099999999999984E-002     4.8013090677890265E-018
  -8.6999999999999994E-002     7.8186145474277867E-018
  -8.5899999999999990E-002    -9.0513494066063756E-019
  -8.4799999999999986E-002    -2.9408977311224407E-017
  -8.3699999999999997E-002    -5.8309913525108546E-017
  -8.2599999999999993E-002    -2.4495306096977709E-017
  -8.1499999999999989E-002     1.3352521501398384E-016
  -8.0399999999999999E-002     3.4470331366802853E-016
  -7.9299999999999995E-002     2.9679663894876260E-016
  -7.8199999999999992E-002    -3.9701323622403674E-016
  -7.7100000000000002E-002    -1.6054529074568816E-015
  -7.5999999999999984E-002    -2.0577073031602389E-015
  -7.4899999999999994E-002     2.4291104982240418E-016
  -7.3799999999999991E-002     5.7352109579479268E-015
  -7.2699999999999987E-002     1.0297746305036690E-014
  -7.1599999999999997E-002     5.4497981241729068E-015
  -7.0499999999999993E-002    -1.4300013403229991E-014
  -6.9399999999999989E-002    -3.9223283637961764E-014
  -6.8300000000000000E-002    -3.9785269669674259E-014
  -6.7199999999999996E-002     1.4429555234051275E-014
  -6.6099999999999992E-002     1.1276411391019509E-013
  -6.5000000000000002E-002     1.7247984182393317E-013
  -6.3899999999999985E-002     7.3242844081389258E-014
  -6.2799999999999995E-002    -2.2261984194017065E-013
  -6.1699999999999991E-002    -5.3925212819411206E-013
  -6.0599999999999994E-002    -5.0616965046462736E-013
  -5.9499999999999990E-002     1.6003471876684106E-013
  -5.8399999999999994E-002     1.2327041514284542E-012
  -5.7299999999999990E-002     1.8121620740454980E-012
  -5.6199999999999986E-002     8.3333112545908028E-013
  -5.5099999999999996E-002    -1.8320854815873089E-012
  -5.3999999999999992E-002    -4.5205228449418655E-012
  -5.2899999999999989E-002    -4.3378386820058790E-012
  -5.1799999999999985E-002     5.0515017516183924E-013
  -5.0699999999999995E-002     8.0056933304817335E-012
  -4.9599999999999991E-002     1.2083344741453672E-011
  -4.8499999999999988E-002     6.5156387230036472E-012
  -4.7399999999999998E-002    -8.6231100385192327E-012
  -4.6299999999999994E-002    -2.3475842797493485E-011
  -4.5199999999999990E-002    -2.3229477369435259E-011
  -4.4099999999999986E-002    -6.4638572272457395E-013
  -4.2999999999999997E-002     3.2814962552807359E-011
  -4.1899999999999993E-002     4.9575232807796965E-011
  -4.0799999999999989E-002     2.6199591107722853E-011
  -3.9699999999999985E-002    -3.1207182671355582E-011
  -3.8599999999999995E-002    -8.0241702171690577E-011
  -3.7499999999999992E-002    -6.9365249655284344E-011
  -3.6399999999999988E-002     1.3952936028793772E-011
  -3.5299999999999984E-002     1.1430860424876954E-010
  -3.4199999999999994E-002     1.3635295670333392E-010
  -3.3099999999999991E-002     2.5079216481316280E-011
  -3.1999999999999987E-002    -1.6140176695156327E-010
  -3.0899999999999997E-002    -2.6324711854819327E-010
  -2.9799999999999993E-002    -1.3716995594936776E-010
  -2.8699999999999989E-002     1.9347745627840141E-010
  -2.7599999999999986E-002     4.9249804234818839E-010
  -2.6499999999999996E-002     4.5358178324406140E-010
  -2.5399999999999992E-002    -3.4948655081024071E-011
  -2.4299999999999988E-002    -7.1095673792598291E-010
  -2.3199999999999985E-002    -1.0424238139350450E-009
  -2.2099999999999995E-002    -6.1231220094271066E-010
  -2.0999999999999991E-002     4.7730219776553895E-010
  -1.9899999999999987E-002     1.5378819329114890E-009
  -1.8799999999999983E-002     1.7156958076469664E-009
  -1.7699999999999994E-002     6.5879635080534626E-010
  -1.6599999999999990E-002    -1.0872576172715753E-009
  -1.5499999999999986E-002    -2.3495421164199115E-009
  -1.4399999999999996E-002    -2.1616204382013393E-009
  -1.3299999999999992E-002    -5.5338866822296495E-010
  -1.2199999999999989E-002     1.3768524098622947E-009
  -1.1099999999999985E-002     2.2679658151503190E-009
  -9.9999999999999950E-003     1.5990213597660841E-009
  -8.8999999999999913E-003     1.6337747821282278E-010
  -7.7999999999999875E-003    -5.8992943863245273E-010
  -6.6999999999999837E-003     9.1548157943321939E-011
  -5.5999999999999939E-003     1.3636536344563410E-009
  -4.4999999999999901E-003     1.2814433958396876E-009
  -3.3999999999999864E-003    -1.4573395823447299E-009
  -2.2999999999999826E-003    -5.8436531169547834E-009
  -1.1999999999999927E-003    -8.5281195438824398E-009
  -9.9999999999988987E-005    -5.9261084928152741E-009
   1.0000000000000148E-003     2.7594986296008983E-009
   2.1000000000000185E-003     1.3855389724426459E-008
   3.2000000000000084E-003     2.0545662948734389E-008
   4.3000000000000121E-003     1.6879511122169788E-008
   5.4000000000000159E-003     2.0604655759370871E-009
   6.5000000000000058E-003    -1.7957397346890502E-008
   7.6000000000000234E-003    -3.3031504642622167E-008
   8.7000000000000133E-003    -3.4316880004325867E-008
   9.8000000000000032E-003    -1.9388750160942436E-008
   1.0900000000000021E-002     6.1986433763649984E-009
   1.2000000000000011E-002     3.1845964088006440E-008
   1.3100000000000001E-002     4.7336932595953840E-008
   1.4200000000000018E-002     4.7256861535061034E-008
   1.5300000000000008E-002     3.1937073430299279E-008
   1.6400000000000026E-002     5.2900048785886611E-009
   1.7500000000000016E-002    -2.7696641424768131E-008
   1.8600000000000005E-002    -6.1124524108890910E-008
   1.9700000000000023E-002    -8.6080902406138193E-008
   2.0800000000000013E-002    -8.9584311524504301E-008
   2.1900000000000003E-002    -5.8527074742187324E-008
   2.3000000000000020E-002     1.0900873093078189E-008
   2.4100000000000010E-002     1.0347125112275535E-007
   2.5200000000000000E-002     1.8334401374886511E-007
   2.6300000000000018E-002     2.0628473862416286E-007
   2.7400000000000008E-002     1.4262002423492959E-007
   2.8500000000000025E-002    -1.2203997812321177E-009
   2.9600000000000015E-002    -1.7712268629566097E-007
   3.0700000000000005E-002    -3.1254350574272394E-007
   3.1800000000000023E-002    -3.4360425615886925E-007
   3.2900000000000013E-002    -2.4621778038635966E-007
   3.4000000000000002E-002    -4.7785270851363748E-008
   3.5100000000000020E-002     1.8605597063015011E-007
   3.6200000000000010E-002     3.7986427514624665E-007
   3.7300000000000028E-002     4.7466511432503466E-007
   3.8400000000000017E-002     4.4009559019286826E-007
   3.9500000000000007E-002     2.7370489874556370E-007
   4.0600000000000025E-002    -1.7204371260959306E-009
   4.1700000000000015E-002    -3.3454386993980734E-007
   4.2800000000000005E-002    -6.3882765743983327E-007
   4.3900000000000022E-002    -8.0252652878698427E-007
   4.5000000000000012E-002    -7.2203380341306911E-007
   4.6100000000000002E-002    -3.5739523696065589E-007
   4.7200000000000020E-002     2.1971985120217141E-007
   4.8300000000000010E-002     8.2141264101665001E-007
   4.9400000000000027E-002     1.2020235544696334E-006
   5.0500000000000017E-002     1.1642641766229644E-006
   5.1600000000000007E-002     6.6424922806618270E-007
   5.2700000000000025E-002    -1.4246262480810401E-007
   5.3800000000000014E-002    -9.4726635779807111E-007
   5.4900000000000004E-002    -1.4138668120722286E-006
   5.6000000000000022E-002    -1.3257924820209155E-006
   5.7100000000000012E-002    -6.8521126195264515E-007
   5.8200000000000002E-002     2.8335841761872871E-007
   5.9300000000000019E-002     1.2216464710945729E-006
   6.0400000000000009E-002     1.7707675397105049E-006
   6.1500000000000027E-002     1.6866906662471592E-006
   6.2600000000000017E-002     8.9838914618667332E-007
   6.3700000000000007E-002    -4.8963778453980922E-007
   6.4800000000000024E-002    -2.2192148207977880E-006
   6.5900000000000014E-002    -3.8966372812865302E-006
   6.7000000000000004E-002    -5.0099465624953154E-006
   6.8100000000000022E-002    -4.9781442612584215E-006
   6.9200000000000012E-002    -3.2634104627504712E-006
   7.0300000000000029E-002     4.6368222683668137E-007
   7.1400000000000019E-002     6.1708842622465454E-006
   7.2500000000000009E-002     1.3414390195976011E-005
   7.3600000000000027E-002     2.1454536181408912E-005
   7.4700000000000016E-002     2.9523025659727864E-005
   7.5800000000000006E-002     3.7148263800190762E-005
   7.6900000000000024E-002     4.4410862756194547E-005
   7.8000000000000014E-002     5.2030827646376565E-005
   7.9100000000000004E-002     6.1262326198630035E-005
   8.0200000000000021E-002     7.3649040132295340E-005
   8.1300000000000011E-002     9.0736059064511210E-005
   8.2400000000000029E-002     1.1383505625417456E-004
   8.3500000000000019E-002     1.4391234435606748E-004
   8.4600000000000009E-002     1.8163130152970552E-004
   8.5700000000000026E-002     2.2754400561098009E-004
   8.6800000000000016E-002     2.8238995582796633E-004
   8.7900000000000006E-002     3.4742202842608094E-004
   8.9000000000000024E-002     4.2466132435947657E-004
   9.0100000000000013E-002     5.1700475160032511E-004
   9.1200000000000003E-002     6.2816072022542357E-004
   9.2300000000000021E-002     7.6246215030550957E-004
   9.3400000000000011E-002     9.2466245405375957E-004
   9.4500000000000028E-002     1.1198261054232717E-003
   9.5600000000000018E-002     1.3533745659515262E-003
   9.6700000000000008E-002     1.6312780790030956E-003
   9.7800000000000026E-002     1.9603173714131117E-003
   9.8900000000000016E-002     2.3483145050704479E-003
  0.10000000000000001          2.8042786289006472E-003
  0.10110000000000002          3.3384691923856735E-003
  0.10220000000000001          3.9624199271202087E-003
  0.10330000000000003          4.6889986842870712E-003
  0.10440000000000002          5.5325236171483994E-003
  0.10550000000000001          6.5088830888271332E-003
  0.10660000000000003          7.6356073841452599E-003
  0.10770000000000002          8.9318174868822098E-003
  0.10880000000000001          1.0418078862130642E-002
  0.10990000000000003          1.2116232886910439E-002
  0.11100000000000002          1.4049308374524117E-002
  0.11210000000000001          1.6241600736975670E-002
  0.11320000000000002          1.8718726933002472E-002
  0.11430000000000001          2.1507600322365761E-002
  0.11540000000000003          2.4636255577206612E-002
  0.11650000000000002          2.8133304789662361E-002
  0.11760000000000001          3.2027281820774078E-002
  0.11870000000000003          3.6346197128295898E-002
  0.11980000000000002          4.1116930544376373E-002
  0.12090000000000001          4.6364862471818924E-002
  0.12200000000000003          5.2113492041826248E-002
  0.12310000000000001          5.8383531868457794E-002
  0.12420000000000003          6.5191879868507385E-002
  0.12530000000000002          7.2550632059574127E-002
  0.12640000000000001          8.0466240644454956E-002
  0.12750000000000003          8.8938683271408081E-002
  0.12860000000000002          9.7960568964481354E-002
  0.12970000000000001         0.10751631110906601     
  0.13080000000000003         0.11758092790842056     
  0.13190000000000002         0.12811857461929321     
  0.13300000000000001         0.13908125460147858     
  0.13410000000000000         0.15040740370750427     
  0.13520000000000004         0.16202169656753540     
  0.13630000000000003         0.17383466660976410     
  0.13740000000000002         0.18574221432209015     
  0.13850000000000001         0.19762627780437469     
  0.13960000000000000         0.20935466885566711     
  0.14070000000000005         0.22078101336956024     
  0.14180000000000004         0.23174552619457245     
  0.14290000000000003         0.24207547307014465     
  0.14400000000000002         0.25158578157424927     
  0.14510000000000001         0.26008042693138123     
  0.14620000000000000         0.26735535264015198     
  0.14730000000000004         0.27320069074630737     
  0.14840000000000003         0.27740296721458435     
  0.14950000000000002         0.27974915504455566     
  0.15060000000000001         0.28003025054931641     
  0.15170000000000000         0.27804508805274963     
  0.15280000000000005         0.27360427379608154     
  0.15390000000000004         0.26653394103050232     
  0.15500000000000003         0.25667995214462280     
  0.15610000000000002         0.24391081929206848     
  0.15720000000000001         0.22812204062938690     
  0.15830000000000000         0.20924137532711029     
  0.15940000000000004         0.18723207712173462     
  0.16050000000000003         0.16209661960601807     
  0.16160000000000002         0.13388086855411530     
  0.16270000000000001         0.10267585515975952     
  0.16380000000000000          6.8619050085544586E-002
  0.16490000000000005          3.1894758343696594E-002
  0.16600000000000004         -7.2655528783798218E-003
  0.16710000000000003         -4.8583991825580597E-002
  0.16820000000000002         -9.1738432645797729E-002
  0.16930000000000001        -0.13636344671249390     
  0.17040000000000000        -0.18205459415912628     
  0.17150000000000004        -0.22837230563163757     
  0.17260000000000003        -0.27484562993049622     
  0.17370000000000002        -0.32097986340522766     
  0.17480000000000001        -0.36626219749450684     
  0.17590000000000000        -0.41016992926597595     
  0.17700000000000005        -0.45217937231063843     
  0.17810000000000004        -0.49177256226539612     
  0.17920000000000003        -0.52844583988189697     
  0.18030000000000002        -0.56171762943267822     
  0.18140000000000001        -0.59113758802413940     
  0.18250000000000000        -0.61629438400268555     
  0.18360000000000004        -0.63682234287261963     
  0.18470000000000003        -0.65240883827209473     
  0.18580000000000002        -0.66279929876327515     
  0.18690000000000001        -0.66780358552932739     
  0.18800000000000000        -0.66729962825775146     
  0.18910000000000005        -0.66123574972152710     
  0.19020000000000004        -0.64963352680206299     
  0.19130000000000003        -0.63258862495422363     
  0.19240000000000002        -0.61026871204376221     
  0.19350000000000001        -0.58291065692901611     
  0.19460000000000005        -0.55081731081008911     
  0.19570000000000004        -0.51435160636901855     
  0.19680000000000003        -0.47393158078193665     
  0.19790000000000002        -0.43002435564994812     
  0.19900000000000001        -0.38313880562782288     
  0.20010000000000000        -0.33381721377372742     
  0.20120000000000005        -0.28262594342231750     
  0.20230000000000004        -0.23014575242996216     
  0.20340000000000003        -0.17696562409400940     
  0.20450000000000002        -0.12367122620344162     
  0.20560000000000000         -7.0834517478942871E-002
  0.20670000000000005         -1.9005630165338516E-002
  0.20780000000000004          3.1295061111450195E-002
  0.20890000000000003          7.9580910503864288E-002
