 -0.12000000000000000          0.0000000000000000     
 -0.11889999999999999          0.0000000000000000     
 -0.11780000000000000          0.0000000000000000     
 -0.11670000000000000          0.0000000000000000     
 -0.11559999999999999          0.0000000000000000     
 -0.11449999999999999          0.0000000000000000     
 -0.11340000000000000          0.0000000000000000     
 -0.11230000000000000          0.0000000000000000     
 -0.11119999999999999          0.0000000000000000     
 -0.11009999999999999          0.0000000000000000     
 -0.10900000000000000         -1.2739952567899994E-015
 -0.10790000000000000         -6.9301110192771485E-015
 -0.10679999999999999          1.5556681648171838E-014
 -0.10569999999999999          2.7182685898193004E-013
 -0.10460000000000000          1.1209479525153832E-012
 -0.10349999999999999          1.7291912259714826E-012
 -0.10239999999999999         -3.5571278995255584E-012
 -0.10130000000000000         -2.6088943505531148E-011
 -0.10020000000000000         -6.4138916400224844E-011
  -9.9099999999999994E-002    -5.0921385164048871E-011
  -9.7999999999999990E-002     1.8446560945406532E-010
  -9.6899999999999986E-002     7.8463624486602157E-010
  -9.5799999999999996E-002     1.3941608978385034E-009
  -9.4699999999999993E-002     5.7503957151538998E-010
  -9.3599999999999989E-002    -3.8465572949064608E-009
  -9.2499999999999999E-002    -1.2032741025791438E-008
  -9.1399999999999995E-002    -1.7198013679831092E-008
  -9.0299999999999991E-002    -3.3154161638293544E-009
  -8.9200000000000002E-002     4.5308752305572852E-008
  -8.8099999999999984E-002     1.1733131088931259E-007
  -8.6999999999999994E-002     1.4461593877967971E-007
  -8.5899999999999990E-002     1.0784595438906308E-008
  -8.4799999999999986E-002    -3.5605609127742355E-007
  -8.3699999999999997E-002    -8.1742899737946573E-007
  -8.2599999999999993E-002    -9.1410532832014724E-007
  -8.1499999999999989E-002    -3.0671358786094061E-008
  -8.0399999999999999E-002     2.0368652258184738E-006
  -7.9299999999999995E-002     4.3444811126391869E-006
  -7.8199999999999992E-002     4.5950719140819274E-006
  -7.7100000000000002E-002     2.6674263153836364E-007
  -7.5999999999999984E-002    -8.8689466792857274E-006
  -7.4899999999999994E-002    -1.8292023014510050E-005
  -7.3799999999999991E-002    -1.9025696019525640E-005
  -7.2699999999999987E-002    -2.7077746835857397E-006
  -7.1599999999999997E-002     2.9840406568837352E-005
  -7.0499999999999993E-002     6.2305341998580843E-005
  -6.9399999999999989E-002     6.6446351411286741E-005
  -6.8300000000000000E-002     1.8813389033311978E-005
  -6.7199999999999996E-002    -7.6184776844456792E-005
  -6.6099999999999992E-002    -1.7320182814728469E-004
  -6.5000000000000002E-002    -1.9916144083254039E-004
  -6.3899999999999985E-002    -9.4980830908752978E-005
  -6.2799999999999995E-002     1.3380982272792608E-004
  -6.1699999999999991E-002     3.9154011756181717E-004
  -6.0599999999999994E-002     5.1916058873757720E-004
  -5.9499999999999990E-002     3.7252169568091631E-004
  -5.8399999999999994E-002    -8.1606463936623186E-005
  -5.7299999999999990E-002    -7.0269469870254397E-004
  -5.6199999999999986E-002    -1.1894146446138620E-003
  -5.5099999999999996E-002    -1.1841772357001901E-003
  -5.3999999999999992E-002    -4.5167701318860054E-004
  -5.2899999999999989E-002     9.2309375759214163E-004
  -5.1799999999999985E-002     2.4141606409102678E-003
  -5.0699999999999995E-002     3.1370860524475574E-003
  -4.9599999999999991E-002     2.2239354439079762E-003
  -4.8499999999999988E-002    -5.7305762311443686E-004
  -4.7399999999999998E-002    -4.3510412797331810E-003
  -4.6299999999999994E-002    -7.0619801990687847E-003
  -4.5199999999999990E-002    -6.3787801191210747E-003
  -4.4099999999999986E-002    -1.2294522020965815E-003
  -4.2999999999999997E-002     6.8498328328132629E-003
  -4.1899999999999993E-002     1.3673239387571812E-002
  -4.0799999999999989E-002     1.4276483096182346E-002
  -3.9699999999999985E-002     6.0548218898475170E-003
  -3.8599999999999995E-002    -8.6809527128934860E-003
  -3.7499999999999992E-002    -2.2736446931958199E-002
  -3.6399999999999988E-002    -2.7330750599503517E-002
  -3.5299999999999984E-002    -1.7185475677251816E-002
  -3.4199999999999994E-002     5.5640293285250664E-003
  -3.3099999999999991E-002     3.1231259927153587E-002
  -3.1999999999999987E-002     4.6656299382448196E-002
  -3.0899999999999997E-002     4.1467189788818359E-002
  -2.9799999999999993E-002     1.3413395732641220E-002
  -2.8699999999999989E-002    -2.9494410380721092E-002
  -2.7599999999999986E-002    -7.0583514869213104E-002
  -2.6499999999999996E-002    -8.9331276714801788E-002
  -2.5399999999999992E-002    -6.8795934319496155E-002
  -2.4299999999999988E-002    -4.7471686266362667E-003
  -2.3199999999999985E-002     8.6346819996833801E-002
  -2.2099999999999995E-002    0.16606844961643219     
  -2.0999999999999991E-002    0.18539984524250031     
  -1.9899999999999987E-002    0.10915675759315491     
  -1.8799999999999983E-002    -5.6089367717504501E-002
  -1.7699999999999994E-002   -0.24846629798412323     
  -1.6599999999999990E-002   -0.36757284402847290     
  -1.5499999999999986E-002   -0.32224962115287781     
  -1.4399999999999996E-002    -8.8413253426551819E-002
  -1.3299999999999992E-002    0.25746393203735352     
  -1.2199999999999989E-002    0.55675470829010010     
  -1.1099999999999985E-002    0.63941287994384766     
  -9.9999999999999950E-003    0.41513216495513916     
  -8.8999999999999913E-003    -6.3961729407310486E-002
  -7.7999999999999875E-003   -0.60725021362304688     
  -6.6999999999999837E-003   -0.96096545457839966     
  -5.5999999999999939E-003   -0.92283105850219727     
  -4.4999999999999901E-003   -0.44384169578552246     
  -3.3999999999999864E-003    0.32942423224449158     
  -2.2999999999999826E-003     1.0933746099472046     
  -1.1999999999999927E-003     1.4970529079437256     
  -9.9999999999988987E-005     1.2871102094650269     
   1.0000000000000148E-003    0.43669354915618896     
   2.1000000000000185E-003   -0.79626244306564331     
   3.2000000000000084E-003    -1.9222630262374878     
   4.3000000000000121E-003    -2.3911874294281006     
   5.4000000000000159E-003    -1.8350336551666260     
   6.5000000000000058E-003   -0.28616273403167725     
   7.6000000000000234E-003     1.7438141107559204     
   8.7000000000000133E-003     3.4016869068145752     
   9.8000000000000032E-003     3.8318860530853271     
   1.0900000000000021E-002     2.5919916629791260     
   1.2000000000000011E-002    -5.1398351788520813E-002
   1.3100000000000001E-002    -3.1232185363769531     
   1.4200000000000018E-002    -5.2945775985717773     
   1.5300000000000008E-002    -5.4740266799926758     
   1.6400000000000026E-002    -3.3716180324554443     
   1.7500000000000016E-002    0.25968489050865173     
   1.8600000000000005E-002     3.8783833980560303     
   1.9700000000000023E-002     5.8415541648864746     
   2.0800000000000013E-002     5.2231001853942871     
   2.1900000000000003E-002     2.3529262542724609     
   2.3000000000000020E-002    -1.2334325313568115     
   2.4100000000000010E-002    -3.4669480323791504     
   2.5200000000000000E-002    -2.7499396800994873     
   2.6300000000000018E-002     1.1880860328674316     
   2.7400000000000008E-002     7.0190763473510742     
   2.8500000000000025E-002     12.298158645629883     
   2.9600000000000015E-002     14.516094207763672     
   3.0700000000000005E-002     12.278393745422363     
   3.1800000000000023E-002     6.1083679199218750     
   3.2900000000000013E-002    -1.4804182052612305     
   3.4000000000000002E-002    -6.7275753021240234     
   3.5100000000000020E-002    -5.9863619804382324     
   3.6200000000000010E-002     2.7168357372283936     
   3.7300000000000028E-002     18.456422805786133     
   3.8400000000000017E-002     37.019222259521484     
   3.9500000000000007E-002     51.662212371826172     
   4.0600000000000025E-002     54.952510833740234     
   4.1700000000000015E-002     41.165695190429688     
   4.2800000000000005E-002     8.3489437103271484     
   4.3900000000000022E-002    -40.901885986328125     
   4.5000000000000012E-002    -100.51957702636719     
   4.6100000000000002E-002    -163.70938110351562     
   4.7200000000000020E-002    -226.37464904785156     
   4.8300000000000010E-002    -289.75469970703125     
   4.9400000000000027E-002    -360.99609375000000     
   5.0500000000000017E-002    -451.24822998046875     
   5.1600000000000007E-002    -572.09216308593750     
   5.2700000000000025E-002    -732.02111816406250     
   5.3800000000000014E-002    -934.91912841796875     
   5.4900000000000004E-002    -1181.6112060546875     
   5.6000000000000022E-002    -1474.0162353515625     
   5.7100000000000012E-002    -1820.0469970703125     
   5.8200000000000002E-002    -2236.8093261718750     
   5.9300000000000019E-002    -2750.4477539062500     
   6.0400000000000009E-002    -3392.7021484375000     
   6.1500000000000027E-002    -4196.1005859375000     
   6.2600000000000017E-002    -5190.5224609375000     
   6.3700000000000007E-002    -6403.1821289062500     
   6.4800000000000024E-002    -7862.3427734375000     
   6.5900000000000014E-002    -9603.0449218750000     
   6.7000000000000004E-002    -11672.006835937500     
   6.8100000000000022E-002    -14129.748046875000     
   6.9200000000000012E-002    -17049.408203125000     
   7.0300000000000029E-002    -20513.658203125000     
   7.1400000000000019E-002    -24612.273437500000     
   7.2500000000000009E-002    -29441.859375000000     
   7.3600000000000027E-002    -35108.093750000000     
   7.4700000000000016E-002    -41729.113281250000     
   7.5800000000000006E-002    -49437.937500000000     
   7.6900000000000024E-002    -58383.039062500000     
   7.8000000000000014E-002    -68726.804687500000     
   7.9100000000000004E-002    -80644.734375000000     
   8.0200000000000021E-002    -94324.468750000000     
   8.1300000000000011E-002    -109967.24218750000     
   8.2400000000000029E-002    -127791.13281250000     
   8.3500000000000019E-002    -148031.20312500000     
   8.4600000000000009E-002    -170937.09375000000     
   8.5700000000000026E-002    -196767.76562500000     
   8.6800000000000016E-002    -225783.98437500000     
   8.7900000000000006E-002    -258243.20312500000     
   8.9000000000000024E-002    -294396.56250000000     
   9.0100000000000013E-002    -334488.65625000000     
   9.1200000000000003E-002    -378761.53125000000     
   9.2300000000000021E-002    -427448.65625000000     
   9.3400000000000011E-002    -480771.34375000000     
   9.4500000000000028E-002    -538923.93750000000     
   9.5600000000000018E-002    -602058.50000000000     
   9.6700000000000008E-002    -670273.75000000000     
   9.7800000000000026E-002    -743607.43750000000     
   9.8900000000000016E-002    -822029.50000000000     
  0.10000000000000001         -905435.37500000000     
  0.10110000000000002         -993634.06250000000     
  0.10220000000000001         -1086341.6250000000     
  0.10330000000000003         -1183177.1250000000     
  0.10440000000000002         -1283639.5000000000     
  0.10550000000000001         -1387111.2500000000     
  0.10660000000000003         -1492837.8750000000     
  0.10770000000000002         -1599926.0000000000     
  0.10880000000000001         -1707334.8750000000     
  0.10990000000000003         -1813877.7500000000     
  0.11100000000000002         -1918221.6250000000     
  0.11210000000000001         -2018882.3750000000     
  0.11320000000000002         -2114235.5000000000     
  0.11430000000000001         -2202558.0000000000     
  0.11540000000000003         -2282012.2500000000     
  0.11650000000000002         -2350675.2500000000     
  0.11760000000000001         -2406552.7500000000     
  0.11870000000000003         -2447565.7500000000     
  0.11980000000000002         -2471590.0000000000     
  0.12090000000000001         -2476508.5000000000     
  0.12200000000000003         -2460217.7500000000     
  0.12310000000000001         -2420728.5000000000     
  0.12420000000000003         -2356187.5000000000     
  0.12530000000000002         -2264917.0000000000     
  0.12640000000000001         -2145427.0000000000     
  0.12750000000000003         -1996492.2500000000     
  0.12860000000000002         -1817155.1250000000     
  0.12970000000000001         -1606739.5000000000     
  0.13080000000000003         -1364889.6250000000     
  0.13190000000000002         -1091746.2500000000     
  0.13300000000000001         -787822.25000000000     
  0.13410000000000000         -454171.65625000000     
  0.13520000000000004         -92320.421875000000     
  0.13630000000000003          295709.43750000000     
  0.13740000000000002          707441.68750000000     
  0.13850000000000001          1139950.6250000000     
  0.13960000000000000          1589873.1250000000     
  0.14070000000000005          2053350.6250000000     
  0.14180000000000004          2526117.7500000000     
  0.14290000000000003          3003496.7500000000     
  0.14400000000000002          3480480.0000000000     
  0.14510000000000001          3951844.0000000000     
  0.14620000000000000          4412171.5000000000     
  0.14730000000000004          4855949.0000000000     
  0.14840000000000003          5277640.0000000000     
  0.14950000000000002          5671790.0000000000     
  0.15060000000000001          6033079.5000000000     
  0.15170000000000000          6356415.0000000000     
  0.15280000000000005          6637037.0000000000     
  0.15390000000000004          6870584.0000000000     
  0.15500000000000003          7053190.0000000000     
  0.15610000000000002          7181558.5000000000     
  0.15720000000000001          7253014.5000000000     
  0.15830000000000000          7265582.5000000000     
  0.15940000000000004          7218005.0000000000     
  0.16050000000000003          7109817.5000000000     
  0.16160000000000002          6941343.0000000000     
  0.16270000000000001          6713681.5000000000     
  0.16380000000000000          6428779.0000000000     
  0.16490000000000005          6089295.5000000000     
  0.16600000000000004          5698620.0000000000     
  0.16710000000000003          5260813.0000000000     
  0.16820000000000002          4780532.0000000000     
  0.16930000000000001          4263026.5000000000     
  0.17040000000000000          3713986.5000000000     
  0.17150000000000004          3139513.2500000000     
  0.17260000000000003          2545969.2500000000     
  0.17370000000000002          1939874.1250000000     
  0.17480000000000001          1327834.8750000000     
  0.17590000000000000          716405.75000000000     
  0.17700000000000005          112046.82031250000     
  0.17810000000000004         -479027.40625000000     
  0.17920000000000003         -1050863.7500000000     
  0.18030000000000002         -1597960.7500000000     
  0.18140000000000001         -2115291.5000000000     
  0.18250000000000000         -2598315.2500000000     
  0.18360000000000004         -3043130.5000000000     
  0.18470000000000003         -3446447.7500000000     
  0.18580000000000002         -3805573.0000000000     
  0.18690000000000001         -4118530.2500000000     
  0.18800000000000000         -4383982.5000000000     
  0.18910000000000005         -4601311.5000000000     
  0.19020000000000004         -4770527.5000000000     
  0.19130000000000003         -4892223.0000000000     
  0.19240000000000002         -4967603.5000000000     
  0.19350000000000001         -4998398.5000000000     
  0.19460000000000005         -4986772.0000000000     
  0.19570000000000004         -4935316.5000000000     
  0.19680000000000003         -4846963.0000000000     
  0.19790000000000002         -4724945.5000000000     
  0.19900000000000001         -4572718.0000000000     
  0.20010000000000000         -4393906.5000000000     
  0.20120000000000005         -4192223.7500000000     
  0.20230000000000004         -3971397.5000000000     
  0.20340000000000003         -3735119.5000000000     
  0.20450000000000002         -3486994.5000000000     
  0.20560000000000000         -3230501.7500000000     
  0.20670000000000005         -2968953.5000000000     
  0.20780000000000004         -2705466.5000000000     
  0.20890000000000003         -2442921.0000000000     
