 -0.12000000000000000          0.0000000000000000     
 -0.11889999999999999          0.0000000000000000     
 -0.11780000000000000          0.0000000000000000     
 -0.11670000000000000          0.0000000000000000     
 -0.11559999999999999          0.0000000000000000     
 -0.11449999999999999          0.0000000000000000     
 -0.11340000000000000          0.0000000000000000     
 -0.11230000000000000          0.0000000000000000     
 -0.11119999999999999          0.0000000000000000     
 -0.11009999999999999          0.0000000000000000     
 -0.10900000000000000         -7.1920985154415197E-024
 -0.10790000000000000          3.0896355819930621E-023
 -0.10679999999999999          3.0447304638242612E-022
 -0.10569999999999999         -1.6334392455044009E-022
 -0.10460000000000000         -5.2030896453742869E-021
 -0.10349999999999999         -7.3172461609926184E-021
 -0.10239999999999999          4.7128696179565446E-020
 -0.10130000000000000          1.8328406934069150E-019
 -0.10020000000000000          7.1033440400523678E-021
  -9.9099999999999994E-002    -1.4362232544205885E-018
  -9.7999999999999990E-002    -3.4465747876310636E-018
  -9.6899999999999986E-002     1.1057448507685292E-018
  -9.5799999999999996E-002     2.2603795498975151E-017
  -9.4699999999999993E-002     4.5204546973296106E-017
  -9.3599999999999989E-002    -1.2280355634006138E-017
  -9.2499999999999999E-002    -2.3877694670465196E-016
  -9.1399999999999995E-002    -4.6309445866452178E-016
  -9.0299999999999991E-002     8.3137292933356893E-018
  -8.9200000000000002E-002     1.8604407412830008E-015
  -8.8099999999999984E-002     3.8577061026677777E-015
  -8.6999999999999994E-002     1.2147221146026300E-015
  -8.5899999999999990E-002    -1.0976105346339506E-014
  -8.4799999999999986E-002    -2.6335904350317449E-014
  -8.3699999999999997E-002    -1.7382027485109489E-014
  -8.2599999999999993E-002     4.7717543485330596E-014
  -8.1499999999999989E-002     1.4674436524860640E-013
  -8.0399999999999999E-002     1.4740482055450310E-013
  -7.9299999999999995E-002    -1.3091920126120926E-013
  -7.8199999999999992E-002    -6.5900263761589639E-013
  -7.7100000000000002E-002    -9.0773379481448591E-013
  -7.5999999999999984E-002     4.9157758264228293E-016
  -7.4899999999999994E-002     2.3112477643555396E-012
  -7.3799999999999991E-002     4.3164365311210151E-012
  -7.2699999999999987E-002     2.4085755091773908E-012
  -7.1599999999999997E-002    -5.7709149958729000E-012
  -7.0499999999999993E-002    -1.6115371190283945E-011
  -6.9399999999999989E-002    -1.6224552951138449E-011
  -6.8300000000000000E-002     6.3475604980545164E-012
  -6.7199999999999996E-002     4.6434567996245235E-011
  -6.6099999999999992E-002     6.9124789225938343E-011
  -6.5000000000000002E-002     2.5821378021873009E-011
  -6.3899999999999985E-002    -9.5043403702810281E-011
  -6.2799999999999995E-002    -2.1680328365913937E-010
  -6.1699999999999991E-002    -1.8944254498443058E-010
  -6.0599999999999994E-002     8.9187622565045643E-011
  -5.9499999999999990E-002     5.0668835793743483E-010
  -5.8399999999999994E-002     6.9250361001138572E-010
  -5.7299999999999990E-002     2.4897331418749502E-010
  -5.6199999999999986E-002    -8.0805345747947399E-010
  -5.5099999999999996E-002    -1.7630190640716137E-009
  -5.3999999999999992E-002    -1.5108788664619510E-009
  -5.2899999999999989E-002     4.8357551296618340E-010
  -5.1799999999999985E-002     3.2343216993524493E-009
  -5.0699999999999995E-002     4.3566119600768616E-009
  -4.9599999999999991E-002     1.7783055028530725E-009
  -4.8499999999999988E-002    -3.9045291444494978E-009
  -4.7399999999999998E-002    -8.6168103763384352E-009
  -4.6299999999999994E-002    -7.2389858551957786E-009
  -4.5199999999999990E-002     1.6333593366724131E-009
  -4.4099999999999986E-002     1.2504020929782200E-008
  -4.2999999999999997E-002     1.5503584194220821E-008
  -4.1899999999999993E-002     4.6385855156927391E-009
  -4.0799999999999989E-002    -1.4351527077849369E-008
  -3.9699999999999985E-002    -2.5047967255886761E-008
  -3.8599999999999995E-002    -1.3173712787306613E-008
  -3.7499999999999992E-002     1.7276006403221800E-008
  -3.6399999999999988E-002     4.0384403376947375E-008
  -3.5299999999999984E-002     2.6623165894079648E-008
  -3.4199999999999994E-002    -2.6627168026038817E-008
  -3.3099999999999991E-002    -7.9409353759274381E-008
  -3.1999999999999987E-002    -7.1695986036957038E-008
  -3.0899999999999997E-002     2.2398968013703779E-008
  -2.9799999999999993E-002     1.5085596771768905E-007
  -2.8699999999999989E-002     1.9978071463810920E-007
  -2.7599999999999986E-002     7.8611051890220551E-008
  -2.6499999999999996E-002    -1.8117216882274079E-007
  -2.5399999999999992E-002    -4.0424083636025898E-007
  -2.4299999999999988E-002    -3.7624965898430673E-007
  -2.3199999999999985E-002    -2.2459394344309658E-008
  -2.2099999999999995E-002     4.7904887878758018E-007
  -2.0999999999999991E-002     7.7183983648865251E-007
  -1.9899999999999987E-002     5.7062749192482443E-007
  -1.8799999999999983E-002    -8.7111878599444026E-008
  -1.7699999999999994E-002    -8.0462370988243492E-007
  -1.6599999999999990E-002    -1.0805977126437938E-006
  -1.5499999999999986E-002    -6.9069341179783805E-007
  -1.4399999999999996E-002     1.1068377148149011E-007
  -1.3299999999999992E-002     7.6821527272841195E-007
  -1.2199999999999989E-002     8.7521516434208024E-007
  -1.1099999999999985E-002     5.2260310212659533E-007
  -9.9999999999999950E-003     2.0812086631849525E-007
  -8.8999999999999913E-003     3.2550121886743000E-007
  -7.7999999999999875E-003     6.6694121869659284E-007
  -6.6999999999999837E-003     4.6056874225541833E-007
  -5.5999999999999939E-003    -9.3055825800547609E-007
  -4.4999999999999901E-003    -3.1418433081853436E-006
  -3.3999999999999864E-003    -4.5875294745201245E-006
  -2.2999999999999826E-003    -3.3521737350383773E-006
  -1.1999999999999927E-003     1.2152203225923586E-006
  -9.9999999999988987E-005     7.3629844337119721E-006
   1.0000000000000148E-003     1.1363992598489858E-005
   2.1000000000000185E-003     9.6324411060777493E-006
   3.2000000000000084E-003     1.3463701407090412E-006
   4.3000000000000121E-003    -1.0253591426589992E-005
   5.4000000000000159E-003    -1.9086601241724566E-005
   6.5000000000000058E-003    -1.9550368961063214E-005
   7.6000000000000234E-003    -9.9860462796641514E-006
   8.7000000000000133E-003     5.9609196796372999E-006
   9.8000000000000032E-003     2.1079809812363237E-005
   1.0900000000000021E-002     2.8413543986971490E-005
   1.2000000000000011E-002     2.4765437046880834E-005
   1.3100000000000001E-002     1.1781258763221558E-005
   1.4200000000000018E-002    -5.7385445870750118E-006
   1.5300000000000008E-002    -2.2678739696857519E-005
   1.6400000000000026E-002    -3.5331577237229794E-005
   1.7500000000000016E-002    -4.0956849261419848E-005
   1.8600000000000005E-002    -3.6325200198916718E-005
   1.9700000000000023E-002    -1.7718080925988033E-005
   2.0800000000000013E-002     1.6055733794928528E-005
   2.1900000000000003E-002     5.8906778576783836E-005
   2.3000000000000020E-002     9.4960349088069052E-005
   2.4100000000000010E-002     1.0237622336717322E-004
   2.5200000000000000E-002     6.4097177528310567E-005
   2.6300000000000018E-002    -1.9167253412888385E-005
   2.7400000000000008E-002    -1.2190961570013314E-004
   2.8500000000000025E-002    -1.9949837587773800E-004
   2.9600000000000015E-002    -2.0680281159002334E-004
   3.0700000000000005E-002    -1.2190902634756640E-004
   3.1800000000000023E-002     3.7510133552132174E-005
   3.2900000000000013E-002     2.1528276556637138E-004
   3.4000000000000002E-002     3.3697517937980592E-004
   3.5100000000000020E-002     3.4112244611606002E-004
   3.6200000000000010E-002     2.0752994169015437E-004
   3.7300000000000028E-002    -3.0069566491874866E-005
   3.8400000000000017E-002    -2.9271154198795557E-004
   3.9500000000000007E-002    -4.8314456944353878E-004
   4.0600000000000025E-002    -5.2119238534942269E-004
   4.1700000000000015E-002    -3.7492619594559073E-004
   4.2800000000000005E-002    -7.6322779932525009E-005
   4.3900000000000022E-002     2.8539175400510430E-004
   4.5000000000000012E-002     5.9214490465819836E-004
   4.6100000000000002E-002     7.3795806383714080E-004
   4.7200000000000020E-002     6.6658662399277091E-004
   4.8300000000000010E-002     3.8973701884970069E-004
   4.9400000000000027E-002    -2.1688450942747295E-005
   5.0500000000000017E-002    -4.6675521298311651E-004
   5.1600000000000007E-002    -8.4618967957794666E-004
   5.2700000000000025E-002    -1.0790869127959013E-003
   5.3800000000000014E-002    -1.1008941801264882E-003
   5.4900000000000004E-002    -8.5729989223182201E-004
   5.6000000000000022E-002    -3.1661012326367199E-004
   5.7100000000000012E-002     4.8971938667818904E-004
   5.8200000000000002E-002     1.4176532858982682E-003
   5.9300000000000019E-002     2.1964816842228174E-003
   6.0400000000000009E-002     2.4915018584579229E-003
   6.1500000000000027E-002     2.0454041659832001E-003
   6.2600000000000017E-002     8.4128230810165405E-004
   6.3700000000000007E-002    -8.1030256114900112E-004
   6.4800000000000024E-002    -2.3434092290699482E-003
   6.5900000000000014E-002    -3.1754011288285255E-003
   6.7000000000000004E-002    -3.0161170288920403E-003
   6.8100000000000022E-002    -2.0835162140429020E-003
   6.9200000000000012E-002    -1.0812343098223209E-003
   7.0300000000000029E-002    -9.0777850709855556E-004
   7.1400000000000019E-002    -2.2205705754458904E-003
   7.2500000000000009E-002    -5.0816056318581104E-003
   7.3600000000000027E-002    -8.8919512927532196E-003
   7.4700000000000016E-002    -1.2677361257374287E-002
   7.5800000000000006E-002    -1.5589514747262001E-002
   7.6900000000000024E-002    -1.7356626689434052E-002
   7.8000000000000014E-002    -1.8435820937156677E-002
   7.9100000000000004E-002    -1.9788065925240517E-002
   8.0200000000000021E-002    -2.2416200488805771E-002
   8.1300000000000011E-002    -2.6944926008582115E-002
   8.2400000000000029E-002    -3.3487927168607712E-002
   8.3500000000000019E-002    -4.1864618659019470E-002
   8.4600000000000009E-002    -5.2002258598804474E-002
   8.5700000000000026E-002    -6.4246878027915955E-002
   8.6800000000000016E-002    -7.9363107681274414E-002
   8.7900000000000006E-002    -9.8221302032470703E-002
   8.9000000000000024E-002   -0.12137612700462341     
   9.0100000000000013E-002   -0.14883637428283691     
   9.1200000000000003E-002   -0.18021944165229797     
   9.2300000000000021E-002   -0.21525315940380096     
   9.3400000000000011E-002   -0.25435838103294373     
   9.4500000000000028E-002   -0.29897379875183105     
   9.5600000000000018E-002   -0.35142102837562561     
   9.6700000000000008E-002   -0.41435274481773376     
   9.7800000000000026E-002   -0.49006119370460510     
   9.8900000000000016E-002   -0.57999312877655029     
  0.10000000000000001        -0.68477380275726318     
  0.10110000000000002        -0.80463337898254395     
  0.10220000000000001        -0.94002676010131836     
  0.10330000000000003         -1.0921608209609985     
  0.10440000000000002         -1.2631143331527710     
  0.10550000000000001         -1.4556095600128174     
  0.10660000000000003         -1.6725233793258667     
  0.10770000000000002         -1.9164384603500366     
  0.10880000000000001         -2.1894850730895996     
  0.10990000000000003         -2.4934570789337158     
  0.11100000000000002         -2.8298125267028809     
  0.11210000000000001         -3.1997723579406738     
  0.11320000000000002         -3.6043984889984131     
  0.11430000000000001         -4.0443682670593262     
  0.11540000000000003         -4.5199017524719238     
  0.11650000000000002         -5.0308051109313965     
  0.11760000000000001         -5.5766239166259766     
  0.11870000000000003         -6.1564431190490723     
  0.11980000000000002         -6.7689666748046875     
  0.12090000000000001         -7.4120521545410156     
  0.12200000000000003         -8.0816955566406250     
  0.12310000000000001         -8.7724676132202148     
  0.12420000000000003         -9.4768133163452148     
  0.12530000000000002         -10.184966087341309     
  0.12640000000000001         -10.887107849121094     
  0.12750000000000003         -11.572458267211914     
  0.12860000000000002         -12.230249404907227     
  0.12970000000000001         -12.848683357238770     
  0.13080000000000003         -13.415411949157715     
  0.13190000000000002         -13.914627075195312     
  0.13300000000000001         -14.329049110412598     
  0.13410000000000000         -14.638321876525879     
  0.13520000000000004         -14.821507453918457     
  0.13630000000000003         -14.856803894042969     
  0.13740000000000002         -14.723943710327148     
  0.13850000000000001         -14.404283523559570     
  0.13960000000000000         -13.879570960998535     
  0.14070000000000005         -13.133850097656250     
  0.14180000000000004         -12.148772239685059     
  0.14290000000000003         -10.910128593444824     
  0.14400000000000002         -9.4029808044433594     
  0.14510000000000001         -7.6143145561218262     
  0.14620000000000000         -5.5372958183288574     
  0.14730000000000004         -3.1696026325225830     
  0.14840000000000003        -0.51055777072906494     
  0.14950000000000002          2.4307539463043213     
  0.15060000000000001          5.6425342559814453     
  0.15170000000000000          9.1046314239501953     
  0.15280000000000005          12.794805526733398     
  0.15390000000000004          16.683622360229492     
  0.15500000000000003          20.739776611328125     
  0.15610000000000002          24.922159194946289     
  0.15720000000000001          29.187843322753906     
  0.15830000000000000          33.484256744384766     
  0.15940000000000004          37.754394531250000     
  0.16050000000000003          41.936222076416016     
  0.16160000000000002          45.962886810302734     
  0.16270000000000001          49.765190124511719     
  0.16380000000000000          53.278411865234375     
  0.16490000000000005          56.436210632324219     
  0.16600000000000004          59.176494598388672     
  0.16710000000000003          61.437133789062500     
  0.16820000000000002          63.161560058593750     
  0.16930000000000001          64.290885925292969     
  0.17040000000000000          64.773582458496094     
  0.17150000000000004          64.563247680664062     
  0.17260000000000003          63.627002716064453     
  0.17370000000000002          61.944023132324219     
  0.17480000000000001          59.504413604736328     
  0.17590000000000000          56.312320709228516     
  0.17700000000000005          52.383396148681641     
  0.17810000000000004          47.741184234619141     
  0.17920000000000003          42.420845031738281     
  0.18030000000000002          36.467075347900391     
  0.18140000000000001          29.936454772949219     
  0.18250000000000000          22.898777008056641     
  0.18360000000000004          15.434501647949219     
  0.18470000000000003          7.6340203285217285     
  0.18580000000000002        -0.40396249294281006     
  0.18690000000000001         -8.5763139724731445     
  0.18800000000000000         -16.775438308715820     
  0.18910000000000005         -24.893421173095703     
  0.19020000000000004         -32.823844909667969     
  0.19130000000000003         -40.460758209228516     
  0.19240000000000002         -47.701953887939453     
  0.19350000000000001         -54.454078674316406     
  0.19460000000000005         -60.627254486083984     
  0.19570000000000004         -66.143363952636719     
  0.19680000000000003         -70.929115295410156     
  0.19790000000000002         -74.926406860351562     
  0.19900000000000001         -78.086563110351562     
  0.20010000000000000         -80.374046325683594     
  0.20120000000000005         -81.770492553710938     
  0.20230000000000004         -82.271713256835938     
  0.20340000000000003         -81.887489318847656     
  0.20450000000000002         -80.642906188964844     
  0.20560000000000000         -78.576522827148438     
  0.20670000000000005         -75.731788635253906     
  0.20780000000000004         -72.166511535644531     
  0.20890000000000003         -67.947181701660156     
