 -0.12000000000000000          0.0000000000000000     
 -0.11889999999999999          0.0000000000000000     
 -0.11780000000000000          0.0000000000000000     
 -0.11670000000000000          0.0000000000000000     
 -0.11559999999999999          0.0000000000000000     
 -0.11449999999999999          0.0000000000000000     
 -0.11340000000000000          0.0000000000000000     
 -0.11230000000000000          0.0000000000000000     
 -0.11119999999999999          0.0000000000000000     
 -0.11009999999999999          0.0000000000000000     
 -0.10900000000000000         -9.9949218961152162E-030
 -0.10790000000000000          6.2468290062584521E-031
 -0.10679999999999999          7.6211280774432197E-029
 -0.10569999999999999          4.1104116504660832E-028
 -0.10460000000000000         -2.6973796725390093E-027
 -0.10349999999999999         -4.4864707536335765E-027
 -0.10239999999999999          4.7888171029990844E-027
 -0.10130000000000000         -1.0563382159061910E-026
 -0.10020000000000000         -6.5575430927129099E-026
  -9.9099999999999994E-002     1.0713681423773099E-025
  -9.7999999999999990E-002     3.9371120868017065E-025
  -9.6899999999999986E-002     9.6686007152075982E-025
  -9.5799999999999996E-002     3.9371130728778380E-025
  -9.4699999999999993E-002    -4.6008710909377915E-024
  -9.3599999999999989E-002    -1.1151143696421539E-023
  -9.2499999999999999E-002    -9.8410887020082460E-024
  -9.1399999999999995E-002     3.8630925580900042E-023
  -9.0299999999999991E-002     2.0290158814557568E-023
  -8.9200000000000002E-002    -2.1631585229449689E-023
  -8.8099999999999984E-002    -1.6835768465030966E-022
  -8.6999999999999994E-002    -6.7072109605511308E-025
  -8.5899999999999990E-002     4.1854667516780676E-022
  -8.4799999999999986E-002     5.0239014432315955E-022
  -8.3699999999999997E-002    -1.0067925024215824E-021
  -8.2599999999999993E-002     5.0239004334896368E-022
  -8.1499999999999989E-002     2.8500075835956252E-021
  -8.0399999999999999E-002     2.1792598303528029E-021
  -7.9299999999999995E-002    -3.8574707566261648E-021
  -7.8199999999999992E-002    -1.2577192356576422E-020
  -7.7100000000000002E-002    -1.5260183369547711E-020
  -7.5999999999999984E-002     2.7667679300341452E-020
  -7.4899999999999994E-002     7.1937035053335559E-020
  -7.3799999999999991E-002     4.1082629518436497E-020
  -7.2699999999999987E-002     1.9618696567904781E-020
  -7.1599999999999997E-002    -3.4041135000630941E-020
  -7.0499999999999993E-002    -1.5745874098435585E-019
  -6.9399999999999989E-002    -1.0916489951969838E-019
  -6.8300000000000000E-002    -1.8452460761497376E-021
  -6.7199999999999996E-002     8.4010479263628589E-020
  -6.6099999999999992E-002     5.5621697509475792E-019
  -6.5000000000000002E-002     3.4157766820766064E-019
  -6.3899999999999985E-002    -1.8452331514526665E-021
  -6.2799999999999995E-002     2.5572195579257938E-019
  -6.1699999999999991E-002    -1.0321138855300043E-018
  -6.0599999999999994E-002    -1.6760317027937196E-018
  -5.9499999999999990E-002     6.8500067296435051E-019
  -5.8399999999999994E-002     4.8060756960688633E-018
  -5.7299999999999990E-002     6.5231905647559478E-018
  -5.6199999999999986E-002    -1.8906701825002043E-018
  -5.5099999999999996E-002    -1.2365068027718307E-017
  -5.3999999999999992E-002    -1.3051913313448650E-017
  -5.2899999999999989E-002    -1.2365067200537694E-017
  -5.1799999999999985E-002    -1.8429584047681457E-021
  -5.0699999999999995E-002     3.0562795004062375E-017
  -4.9599999999999991E-002     5.2885279611598042E-017
  -4.8499999999999988E-002     4.4643129565389016E-017
  -4.7399999999999998E-002    -1.5799301900995538E-017
  -4.6299999999999994E-002    -1.0577609802457774E-016
  -4.5199999999999990E-002    -1.6553167841496766E-016
  -4.4099999999999986E-002    -9.9594478045295456E-017
  -4.2999999999999997E-002     1.2569094111037981E-016
  -4.1899999999999993E-002     3.4273420029367870E-016
  -4.0799999999999989E-002     3.7295540940942608E-016
  -3.9699999999999985E-002     8.7227558787366256E-017
  -3.8599999999999995E-002    -4.4027001770023178E-016
  -3.7499999999999992E-002    -7.9193504222218420E-016
  -3.6399999999999988E-002    -5.1719672940669969E-016
  -3.5299999999999984E-002     3.9493448502257668E-016
  -3.4199999999999994E-002     1.2960761351754981E-015
  -3.3099999999999991E-002     1.2521179839491969E-015
  -3.1999999999999987E-002    -1.5516468335484467E-016
  -3.0899999999999997E-002    -2.1339029989634467E-015
  -2.9799999999999993E-002    -2.8152541841524378E-015
  -2.8699999999999989E-002    -7.0526398408116402E-016
  -2.7599999999999986E-002     3.2070096751146302E-015
  -2.6499999999999996E-002     5.4873377773622702E-015
  -2.5399999999999992E-002     2.8003970144993605E-015
  -2.4299999999999988E-002    -4.4087361867240112E-015
  -2.3199999999999985E-002    -1.0650790484485230E-014
  -2.2099999999999995E-002    -8.9803813731604946E-015
  -2.0999999999999991E-002     2.6245646213523925E-015
  -1.9899999999999987E-002     1.8185743167441204E-014
  -1.8799999999999983E-002     2.4691547431351414E-014
  -1.7699999999999994E-002     1.1504108416208157E-014
  -1.6599999999999990E-002    -1.6980760872940814E-014
  -1.5499999999999986E-002    -4.3531472778681954E-014
  -1.4399999999999996E-002    -4.5289797980701055E-014
  -1.3299999999999992E-002    -1.2584947867893062E-014
  -1.2199999999999989E-002     4.0164808192679965E-014
  -1.1099999999999985E-002     8.0606284450987498E-014
  -9.9999999999999950E-003     7.5682969819575868E-014
  -8.8999999999999913E-003     1.6603241676481362E-014
  -7.7999999999999875E-003    -6.8499696745990407E-014
  -6.6999999999999837E-003    -1.3338189873337430E-013
  -5.5999999999999939E-003    -1.2828276039090342E-013
  -4.4999999999999901E-003    -2.9464888103188092E-014
  -3.3999999999999864E-003     1.2104775732116324E-013
  -2.2999999999999826E-003     2.3428391930473136E-013
  -1.1999999999999927E-003     2.0298574019556037E-013
  -9.9999999999988987E-005    -1.8211574284200671E-014
   1.0000000000000148E-003    -3.1431354372522813E-013
   2.1000000000000185E-003    -4.5075960108595381E-013
   3.2000000000000084E-003    -2.1866067441943249E-013
   4.3000000000000121E-003     3.4294840730274279E-013
   5.4000000000000159E-003     8.6095101317282263E-013
   6.5000000000000058E-003     8.0046462080235470E-013
   7.6000000000000234E-003    -1.0542451243586437E-013
   8.7000000000000133E-003    -1.4276850101441196E-012
   9.8000000000000032E-003    -2.1032774046719771E-012
   1.0900000000000021E-002    -1.1415174361317781E-012
   1.2000000000000011E-002     1.3707776233551350E-012
   1.3100000000000001E-002     3.8408729322036983E-012
   1.4200000000000018E-002     4.0209255196266280E-012
   1.5300000000000008E-002     7.9264047582461306E-013
   1.6400000000000026E-002    -4.2333562870477959E-012
   1.7500000000000016E-002    -7.1873427348601027E-012
   1.8600000000000005E-002    -4.8888601500429729E-012
   1.9700000000000023E-002     1.8588884771741920E-012
   2.0800000000000013E-002     8.0158397280927218E-012
   2.1900000000000003E-002     8.0946126537750906E-012
   2.3000000000000020E-002     1.2666842401365397E-012
   2.4100000000000010E-002    -6.9453978158995344E-012
   2.5200000000000000E-002    -8.6052571318662174E-012
   2.6300000000000018E-002    -1.5607029557607177E-012
   2.7400000000000008E-002     7.3518960017060486E-012
   2.8500000000000025E-002     9.0623949317025776E-012
   2.9600000000000015E-002     6.7307357604073914E-013
   3.0700000000000005E-002    -1.0560514268620480E-011
   3.1800000000000023E-002    -1.2594545198418849E-011
   3.2900000000000013E-002    -1.2962513007419574E-012
   3.4000000000000002E-002     1.3569333157104069E-011
   3.5100000000000020E-002     1.6911557224053020E-011
   3.6200000000000010E-002     3.1600477443105568E-012
   3.7300000000000028E-002    -1.4350057600531763E-011
   3.8400000000000017E-002    -1.7095859450311224E-011
   3.9500000000000007E-002    -2.6916585280090111E-012
   4.0600000000000025E-002     1.3828159103890236E-011
   4.1700000000000015E-002     1.8892136119386116E-011
   4.2800000000000005E-002    -4.2221053042634793E-012
   4.3900000000000022E-002    -4.6039300843903064E-011
   4.5000000000000012E-002    -3.6406495873553268E-011
   4.6100000000000002E-002     4.9658603618052410E-011
   4.7200000000000020E-002     1.3338302684573478E-010
   4.8300000000000010E-002     1.3014207767003683E-010
   4.9400000000000027E-002    -2.5783389312472593E-011
   5.0500000000000017E-002    -2.9622224118064366E-010
   5.1600000000000007E-002    -4.0785477772864454E-010
   5.2700000000000025E-002    -1.7018547682212670E-010
   5.3800000000000014E-002     2.3889379363595253E-010
   5.4900000000000004E-002     4.8376519456994060E-010
   5.6000000000000022E-002     4.5351636335233536E-010
   5.7100000000000012E-002     1.1213682760136123E-010
   5.8200000000000002E-002    -7.3483014118025380E-010
   5.9300000000000019E-002    -1.1640753916353219E-009
   6.0400000000000009E-002    -9.5283780865429435E-011
   6.1500000000000027E-002     1.3566596734904124E-009
   6.2600000000000017E-002     1.6505055100424215E-009
   6.3700000000000007E-002     6.0764149267811263E-010
   6.4800000000000024E-002    -1.3398062659319976E-009
   6.5900000000000014E-002    -2.9300299964063470E-009
   6.7000000000000004E-002    -1.5126568886358882E-009
   6.8100000000000022E-002     1.3451363356509205E-009
   6.9200000000000012E-002     3.5345748550241751E-009
   7.0300000000000029E-002     4.1568362085797617E-009
   7.1400000000000019E-002     9.5334207195207910E-010
   7.2500000000000009E-002    -3.7942822217473804E-009
   7.3600000000000027E-002    -6.1450480259850337E-009
   7.4700000000000016E-002    -3.5177218915549702E-009
   7.5800000000000006E-002     4.4103498630931881E-009
   7.6900000000000024E-002     9.7571888346692504E-009
   7.8000000000000014E-002     4.9634714116564282E-009
   7.9100000000000004E-002    -4.7161510252635708E-009
   8.0200000000000021E-002    -1.0339550549076648E-008
   8.1300000000000011E-002    -9.3254950428445227E-009
   8.2400000000000029E-002     3.3962952450394823E-009
   8.3500000000000019E-002     1.7593075440913708E-008
   8.4600000000000009E-002     1.2614983724290596E-008
   8.5700000000000026E-002    -1.0247363846360713E-008
   8.6800000000000016E-002    -3.0897226110937481E-008
   8.7900000000000006E-002    -3.8272176539067004E-008
   8.9000000000000024E-002    -2.8315994882177620E-008
   9.0100000000000013E-002     1.2983726094262238E-008
   9.1200000000000003E-002     8.4520749510375026E-008
   9.2300000000000021E-002     1.0517061355130863E-007
   9.3400000000000011E-002     5.5758441419584415E-008
   9.4500000000000028E-002    -4.1590908494981704E-008
   9.5600000000000018E-002    -1.0501548786123749E-007
   9.6700000000000008E-002    -7.2565711661809473E-008
   9.7800000000000026E-002    -1.7991077072565531E-008
   9.8900000000000016E-002     2.6996122670652767E-008
  0.10000000000000001          3.2896082302613650E-008
  0.10110000000000002          1.9212897939269169E-009
  0.10220000000000001         -1.0280301410148240E-007
  0.10330000000000003         -1.7360254389586771E-007
  0.10440000000000002         -5.7078324289250304E-008
  0.10550000000000001          1.2582044917053281E-007
  0.10660000000000003          2.1726982879499701E-007
  0.10770000000000002          1.4352031030284707E-007
  0.10880000000000001         -4.0853457505818369E-008
  0.10990000000000003         -9.9853053825427196E-008
  0.11100000000000002          1.2246200498111648E-008
  0.11210000000000001          1.9219500302369852E-007
  0.11320000000000002          2.8659437134592736E-007
  0.11430000000000001          1.5196178537735250E-008
  0.11540000000000003         -4.0370102283304732E-007
  0.11650000000000002         -5.3645010211766930E-007
  0.11760000000000001         -3.0045168841752457E-007
  0.11870000000000003          2.2169481894707133E-007
  0.11980000000000002          6.5239191826549359E-007
  0.12090000000000001          6.0519226963151596E-007
  0.12200000000000003          7.4195838806190295E-008
  0.12310000000000001         -4.4500066564978624E-007
  0.12420000000000003         -6.0429960058172583E-007
  0.12530000000000002         -2.9160170811337593E-007
  0.12640000000000001          2.8954440267625614E-007
  0.12750000000000003          3.2789415627121343E-007
  0.12860000000000002          5.2071008838083799E-008
  0.12970000000000001         -1.5737758474188013E-007
  0.13080000000000003         -1.0907164949003345E-007
  0.13190000000000002         -7.4962514418075443E-008
  0.13300000000000001         -3.2220773960034421E-007
  0.13410000000000000         -1.8650865740710287E-007
  0.13520000000000004          7.0139620333975472E-008
  0.13630000000000003          2.2501359353555017E-007
  0.13740000000000002          3.9021250586301903E-007
  0.13850000000000001          5.5836142109910725E-007
  0.13960000000000000          7.0881043257031706E-007
  0.14070000000000005          5.3181162229520851E-007
  0.14180000000000004         -1.7028366983140586E-007
  0.14290000000000003         -1.0611777270241873E-006
  0.14400000000000002         -1.3974754438095260E-006
  0.14510000000000001         -9.3137850853963755E-007
  0.14620000000000000         -1.1128400956295081E-007
  0.14730000000000004          7.4421024010007386E-007
  0.14840000000000003          1.1926072147616651E-006
  0.14950000000000002          7.7960999078641180E-007
  0.15060000000000001         -8.1784236272142152E-008
  0.15170000000000000         -6.9538009483949281E-007
  0.15280000000000005         -6.7178024210079457E-007
  0.15390000000000004         -2.5878301812554128E-007
  0.15500000000000003          5.9814844632910535E-008
  0.15610000000000002          2.3681366201344645E-007
  0.15720000000000001          2.4861358838279557E-007
  0.15830000000000000          1.5421422006056673E-007
  0.15940000000000004          2.7221341269978439E-007
  0.16050000000000003          4.9641187160887057E-007
  0.16160000000000002          5.0821176955651026E-007
  0.16270000000000001          2.1321375243132934E-007
  0.16380000000000000         -3.0598278044635663E-007
  0.16490000000000005         -5.4198119414650137E-007
  0.16600000000000004         -4.2988193627024884E-007
  0.16710000000000003         -2.2338332428262220E-007
  0.16820000000000002          1.2471434729377506E-007
  0.16930000000000001          2.3681359095917287E-007
  0.17040000000000000          2.7811330483018537E-007
  0.17150000000000004          3.2236303582067194E-007
  0.17260000000000003          4.2114919551750063E-008
  0.17370000000000002         -4.2840693481593917E-007
  0.17480000000000001         -4.7597535512977629E-007
  0.17590000000000000          1.0996447485922545E-007
  0.17700000000000005          3.9095007764444745E-007
  0.17810000000000004          4.5802380554960109E-008
  0.17920000000000003         -2.2559581225323200E-007
  0.18030000000000002         -1.6659620882819581E-007
  0.18140000000000001         -6.3346895728955133E-008
  0.18250000000000000          7.2352193569713563E-008
  0.18360000000000004          5.2664915983768879E-007
  0.18470000000000003          7.4494766977295512E-007
  0.18580000000000002          4.1454990196143626E-007
  0.18690000000000001         -4.3472851984915906E-009
  0.18800000000000000         -5.8254340729035903E-007
  0.18910000000000005         -1.1017399401680450E-006
  0.19020000000000004         -1.0663401326382882E-006
  0.19130000000000003         -6.5334290866303490E-007
  0.19240000000000002         -1.3414637578534894E-007
  0.19350000000000001          3.6145030435363878E-007
  0.19460000000000005          4.2044990777867497E-007
  0.19570000000000004          2.0215136942169920E-007
  0.19680000000000003         -4.3472496713548026E-009
  0.19790000000000002          3.1052522331265209E-008
  0.19900000000000001          3.8505015709233703E-007
  0.20010000000000000          8.3934708072774811E-007
  0.20120000000000005          1.0517456985326135E-006
  0.20230000000000004          7.6854757935507223E-007
  0.20340000000000003          1.1955191325796477E-007
  0.20450000000000002         -5.4714359976060223E-007
  0.20560000000000000         -8.6574152646790026E-007
  0.20670000000000005         -7.5954227440888644E-007
  0.20780000000000004         -4.4684438194053655E-007
  0.20890000000000003         -2.9934537337794609E-007
