 -0.12000000000000000          0.0000000000000000
 -0.11889999999999999          0.0000000000000000
 -0.11780000000000000          0.0000000000000000
 -0.11670000000000000          0.0000000000000000
 -0.11559999999999999          0.0000000000000000
 -0.11449999999999999          0.0000000000000000
 -0.11340000000000000          0.0000000000000000
 -0.11230000000000000          0.0000000000000000
 -0.11119999999999999          0.0000000000000000
 -0.11009999999999999          0.0000000000000000
 -0.10900000000000000          0.0000000000000000
 -0.10790000000000000          1.1221720914170103E-028
 -0.10679999999999999         -2.1945975568152441E-027
 -0.10569999999999999         -2.5164890906655692E-026
 -0.10460000000000000         -7.0738470085018223E-026
 -0.10349999999999999          1.7356924393076956E-025
 -0.10239999999999999          1.6507273373461548E-024
 -0.10130000000000000          3.5289716260889120E-024
 -0.10020000000000000         -5.3218398656423147E-024
  -9.9099999999999994E-002    -4.6959015354296028E-023
  -9.7999999999999990E-002    -9.5173903580591148E-023
  -9.6899999999999986E-002     6.2709235483095980E-023
  -9.5799999999999996E-002     7.8674549581757114E-022
  -9.4699999999999993E-002     1.7474463070511554E-021
  -9.3599999999999989E-002     2.9520815904053121E-022
  -9.2499999999999999E-002    -8.1112854268745395E-021
  -9.1399999999999995E-002    -2.1774912471173307E-020
  -9.0299999999999991E-002    -1.7459703470353094E-020
  -8.9200000000000002E-002     4.9194628227030650E-020
  -8.8099999999999984E-002     1.8524191537772502E-019
  -8.6999999999999994E-002     2.4351969758892683E-019
  -8.5899999999999990E-002    -1.1084318435908312E-019
  -8.4799999999999986E-002    -1.0817392422116278E-018
  -8.3699999999999997E-002    -2.0120554218747578E-018
  -8.2599999999999993E-002    -9.4122907008696549E-019
  -8.1499999999999989E-002     4.0952421725744817E-018
  -8.0399999999999999E-002     1.1343365967956084E-017
  -7.9299999999999995E-002     1.1918662639361202E-017
  -7.8199999999999992E-002    -6.6066766632100061E-018
  -7.7100000000000002E-002    -4.4771574170906250E-017
  -7.5999999999999984E-002    -7.2125570142752920E-017
  -7.4899999999999994E-002    -3.0500074861296154E-017
  -7.3799999999999991E-002     1.1467362327011253E-016
  -7.2699999999999987E-002     2.9110685394425945E-016
  -7.1599999999999997E-002     2.8974122507504870E-016
  -7.0499999999999993E-002    -1.0343872384151930E-016
  -6.9399999999999989E-002    -8.1621608868817598E-016
  -6.8300000000000000E-002    -1.2717465960732761E-015
  -6.7199999999999996E-002    -6.1989899780525077E-016
  -6.6099999999999992E-002     1.4361195863559590E-015
  -6.5000000000000002E-002     3.7290388333645341E-015
  -6.3899999999999985E-002     3.7346148512563092E-015
  -6.2799999999999995E-002    -5.2782731053209637E-016
  -6.1699999999999991E-002    -7.6444647256735353E-015
  -6.0599999999999994E-002    -1.1750971086487740E-014
  -5.9499999999999990E-002    -5.9936169932326908E-015
  -5.8399999999999994E-002     1.0214511765441799E-014
  -5.7299999999999990E-002     2.6033052802224357E-014
  -5.6199999999999986E-002     2.3777936000377031E-014
  -5.5099999999999996E-002    -5.3829214848553908E-015
  -5.3999999999999992E-002    -4.5555207284393717E-014
  -5.2899999999999989E-002    -5.8549255125151661E-014
  -5.1799999999999985E-002    -1.3655238371252862E-014
  -5.0699999999999995E-002     7.2456722967437909E-014
  -4.9599999999999991E-002     1.2562046129878379E-013
  -4.8499999999999988E-002     6.3959945738149837E-014
  -4.7399999999999998E-002    -1.1299982623875701E-013
  -4.6299999999999994E-002    -2.7384960076502762E-013
  -4.5199999999999990E-002    -2.2348210792794837E-013
  -4.4099999999999986E-002     1.1722868227363736E-013
  -4.2999999999999997E-002     5.5556384145893922E-013
  -4.1899999999999993E-002     6.7858793671021767E-013
  -4.0799999999999989E-002     1.6887446302460418E-013
  -3.9699999999999985E-002    -8.1300629206290664E-013
  -3.8599999999999995E-002    -1.5461588172976937E-012
  -3.7499999999999992E-002    -1.1973005052678953E-012
  -3.6399999999999988E-002     4.1191458880970866E-013
  -3.5299999999999984E-002     2.3483827729653406E-012
  -3.4199999999999994E-002     3.0047277600059319E-012
  -3.3099999999999991E-002     1.3540589005947568E-012
  -3.1999999999999987E-002    -1.8946621615362202E-012
  -3.0899999999999997E-002    -4.3953816281083746E-012
  -2.9799999999999993E-002    -3.8435231559941219E-012
  -2.8699999999999989E-002    -1.1870474221631344E-013
  -2.7599999999999986E-002     4.0408995594098940E-012
  -2.6499999999999996E-002     4.9283858244431045E-012
  -2.5399999999999992E-002     1.2248192911290534E-012
  -2.4299999999999988E-002    -4.0636782133729454E-012
  -2.3199999999999985E-002    -5.4443376890089823E-012
  -2.2099999999999995E-002     1.3242380282607602E-013
  -2.0999999999999991E-002     9.2262412987320630E-012
  -1.9899999999999987E-002     1.3072696571081455E-011
  -1.8799999999999983E-002     4.4937105252162990E-012
  -1.7699999999999994E-002    -1.4350916288652371E-011
  -1.6599999999999990E-002    -3.0537281037190667E-011
  -1.5499999999999986E-002    -2.8505290142200046E-011
  -1.4399999999999996E-002    -2.9694129100032995E-012
  -1.3299999999999992E-002     3.3707245328251645E-011
  -1.2199999999999989E-002     5.7385072388393965E-011
  -1.1099999999999985E-002     4.8880587077970716E-011
  -9.9999999999999950E-003     9.3250424743063220E-012
  -8.8999999999999913E-003    -3.8752459574631359E-011
  -7.7999999999999875E-003    -6.6948419030765649E-011
  -6.6999999999999837E-003    -6.1512621385428901E-011
  -5.5999999999999939E-003    -3.2053651399799321E-011
  -4.4999999999999901E-003    -8.1225971044693313E-013
  -3.3999999999999864E-003     1.8220947320402026E-011
  -2.2999999999999826E-003     3.1145180184877219E-011
  -1.1999999999999927E-003     5.4716533387511035E-011
  -9.9999999999988987E-005     9.2719831812360098E-011
   1.0000000000000148E-003     1.2035059060444553E-010
   2.1000000000000185E-003     9.5145183398592792E-011
   3.2000000000000084E-003    -8.5720285036838817E-012
   4.3000000000000121E-003    -1.6704455874094748E-010
   5.4000000000000159E-003    -3.0499375247572402E-010
   6.5000000000000058E-003    -3.3251254527577601E-010
   7.6000000000000234E-003    -2.0021567737060764E-010
   8.7000000000000133E-003     6.3263297378490790E-011
   9.8000000000000032E-003     3.5670422171563132E-010
   1.0900000000000021E-002     5.5205201521246750E-010
   1.2000000000000011E-002     5.5375093399590014E-010
   1.3100000000000001E-002     3.4042701990699697E-010
   1.4200000000000018E-002    -2.7900334820252226E-011
   1.5300000000000008E-002    -4.3415437911420440E-010
   1.6400000000000026E-002    -7.4514705517003677E-010
   1.7500000000000016E-002    -8.5295476237590151E-010
   1.8600000000000005E-002    -7.0505823401845191E-010
   1.9700000000000023E-002    -3.1711760994923566E-010
   2.0800000000000013E-002     2.3170586282983408E-010
   2.1900000000000003E-002     8.1469414547896690E-010
   2.3000000000000020E-002     1.2765193346808701E-009
   2.4100000000000010E-002     1.4539187631612549E-009
   2.5200000000000000E-002     1.2086570633229599E-009
   2.6300000000000018E-002     4.8475512492984763E-010
   2.7400000000000008E-002    -6.1960936381666443E-010
   2.8500000000000025E-002    -1.8102083165771887E-009
   2.9600000000000015E-002    -2.6446207446184644E-009
   3.0700000000000005E-002    -2.6934963148761426E-009
   3.1800000000000023E-002    -1.7593329015852532E-009
   3.2900000000000013E-002    -2.9344665586350516E-011
   3.4000000000000002E-002     1.9513910487489738E-009
   3.5100000000000020E-002     3.4991758379732119E-009
   3.6200000000000010E-002     4.0869654327480021E-009
   3.7300000000000028E-002     3.5429477129866882E-009
   3.8400000000000017E-002     2.0491457419780090E-009
   3.9500000000000007E-002    -1.6662282664725581E-011
   4.0600000000000025E-002    -2.2475923344700277E-009
   4.1700000000000015E-002    -4.2605741157331067E-009
   4.2800000000000005E-002    -5.6462603481577389E-009
   4.3900000000000022E-002    -5.9450613321132550E-009
   4.5000000000000012E-002    -4.7682156001371823E-009
   4.6100000000000002E-002    -2.0436417003111274E-009
   4.7200000000000020E-002     1.7811410124579652E-009
   4.8300000000000010E-002     5.7652824736464936E-009
   4.9400000000000027E-002     8.7760341216380766E-009
   5.0500000000000017E-002     9.9198915748388572E-009
   5.1600000000000007E-002     8.8676781473395749E-009
   5.2700000000000025E-002     5.9139391161977528E-009
   5.3800000000000014E-002     1.7815744435267789E-009
   5.4900000000000004E-002    -2.6887678750142641E-009
   5.6000000000000022E-002    -6.8173040546071206E-009
   5.7100000000000012E-002    -1.0263585537018116E-008
   5.8200000000000002E-002    -1.3110269314609013E-008
   5.9300000000000019E-002    -1.5873109049380218E-008
   6.0400000000000009E-002    -1.9442090604115947E-008
   6.1500000000000027E-002    -2.4963510369957476E-008
   6.2600000000000017E-002    -3.3703724255929046E-008
   6.3700000000000007E-002    -4.6943711140556843E-008
   6.4800000000000024E-002    -6.5908253077395784E-008
   6.5900000000000014E-002    -9.1678138858242164E-008
   6.7000000000000004E-002    -1.2505208246693655E-007
   6.8100000000000022E-002    -1.6643534195281973E-007
   6.9200000000000012E-002    -2.1593200472125318E-007
   7.0300000000000029E-002    -2.7376742650631058E-007
   7.1400000000000019E-002    -3.4094497891601350E-007
   7.2500000000000009E-002    -4.1981243725786044E-007
   7.3600000000000027E-002    -5.1420977342786500E-007
   7.4700000000000016E-002    -6.2914739373809425E-007
   7.5800000000000006E-002    -7.7032706258250983E-007
   7.6900000000000024E-002    -9.4393504923573346E-007
   7.8000000000000014E-002    -1.1568815807549981E-006
   7.9100000000000004E-002    -1.4172353530739201E-006
   8.0200000000000021E-002    -1.7344098068861058E-006
   8.1300000000000011E-002    -2.1189023300394183E-006
   8.2400000000000029E-002    -2.5818874291871907E-006
   8.3500000000000019E-002    -3.1352290079667000E-006
   8.4600000000000009E-002    -3.7922457067907089E-006
   8.5700000000000026E-002    -4.5689703256357461E-006
   8.6800000000000016E-002    -5.4852130233484786E-006
   8.7900000000000006E-002    -6.5648900999804027E-006
   8.9000000000000024E-002    -7.8356515587074682E-006
   9.0100000000000013E-002    -9.3284043032326736E-006
   9.1200000000000003E-002    -1.1077324415964540E-005
   9.2300000000000021E-002    -1.3120447874825913E-005
   9.3400000000000011E-002    -1.5500378140131943E-005
   9.4500000000000028E-002    -1.8264556274516508E-005
   9.5600000000000018E-002    -2.1464948076754808E-005
   9.6700000000000008E-002    -2.5157514755846933E-005
   9.7800000000000026E-002    -2.9402031941572204E-005
   9.8900000000000016E-002    -3.4262480767210945E-005
  0.10000000000000001         -3.9807739085517824E-005
  0.10110000000000002         -4.6112265408737585E-005
  0.10220000000000001         -5.3256277169566602E-005
  0.10330000000000003         -6.1325532442424446E-005
  0.10440000000000002         -7.0410613261628896E-005
  0.10550000000000001         -8.0605670518707484E-005
  0.10660000000000003         -9.2006754130125046E-005
  0.10770000000000002         -1.0471005953149870E-004
  0.10880000000000001         -1.1881046521011740E-004
  0.10990000000000003         -1.3440051407087594E-004
  0.11100000000000002         -1.5156957670114934E-004
  0.11210000000000001         -1.7040218517649919E-004
  0.11320000000000002         -1.9097545009572059E-004
  0.11430000000000001         -2.1335558267310262E-004
  0.11540000000000003         -2.3759453324601054E-004
  0.11650000000000002         -2.6372761931270361E-004
  0.11760000000000001         -2.9177186661399901E-004
  0.11870000000000003         -3.2172375358641148E-004
  0.11980000000000002         -3.5355510772205889E-004
  0.12090000000000001         -3.8720775046385825E-004
  0.12200000000000003         -4.2258726898580790E-004
  0.12310000000000001         -4.5955882524140179E-004
  0.12420000000000003         -4.9794494407251477E-004
  0.12530000000000002         -5.3752522217109799E-004
  0.12640000000000001         -5.7803600793704391E-004
  0.12750000000000003         -6.1916798586025834E-004
  0.12860000000000002         -6.6056306241080165E-004
  0.12970000000000001         -7.0181098999455571E-004
  0.13080000000000003         -7.4244861025363207E-004
  0.13190000000000002         -7.8196020331233740E-004
  0.13300000000000001         -8.1977946683764458E-004
  0.13410000000000000         -8.5529097123071551E-004
  0.13520000000000004         -8.8783318642526865E-004
  0.13630000000000003         -9.1670232359319925E-004
  0.13740000000000002         -9.4115885440260172E-004
  0.13850000000000001         -9.6043595112860203E-004
  0.13960000000000000         -9.7374815959483385E-004
  0.14070000000000005         -9.8029978107661009E-004
  0.14180000000000004         -9.7929534967988729E-004
  0.14290000000000003         -9.6995179774239659E-004
  0.14400000000000002         -9.5151143614202738E-004
  0.14510000000000001         -9.2325452715158463E-004
  0.14620000000000000         -8.8451197370886803E-004
  0.14730000000000004         -8.3467701915651560E-004
  0.14840000000000003         -7.7321659773588181E-004
  0.14950000000000002         -6.9968547904863954E-004
  0.15060000000000001         -6.1374169308692217E-004
  0.15170000000000000         -5.1516259554773569E-004
  0.15280000000000005         -4.0385549073107541E-004
  0.15390000000000004         -2.7986723580397666E-004
  0.15500000000000003         -1.4339131303131580E-004
  0.15610000000000002          5.2256250455684494E-006
  0.15720000000000001          1.6547711857128888E-004
  0.15830000000000000          3.3669421100057662E-004
  0.15940000000000004          5.1804690156131983E-004
  0.16050000000000003          7.0855050580576062E-004
  0.16160000000000002          9.0707303024828434E-004
  0.16270000000000001          1.1123438598588109E-003
  0.16380000000000000          1.3229621108621359E-003
  0.16490000000000005          1.5374078648164868E-003
  0.16600000000000004          1.7540587577968836E-003
  0.16710000000000003          1.9712110515683889E-003
  0.16820000000000002          2.1871016360819340E-003
  0.16930000000000001          2.3999309632927179E-003
  0.17040000000000000          2.6078843511641026E-003
  0.17150000000000004          2.8091536369174719E-003
  0.17260000000000003          3.0019637197256088E-003
  0.17370000000000002          3.1845993362367153E-003
  0.17480000000000001          3.3554346300661564E-003
  0.17590000000000000          3.5129557363688946E-003
  0.17700000000000005          3.6557796411216259E-003
  0.17810000000000004          3.7826732732355595E-003
  0.17920000000000003          3.8925735279917717E-003
  0.18030000000000002          3.9846054278314114E-003
  0.18140000000000001          4.0580937638878822E-003
  0.18250000000000000          4.1125747375190258E-003
  0.18360000000000004          4.1477945633232594E-003
  0.18470000000000003          4.1637155227363110E-003
  0.18580000000000002          4.1605131700634956E-003
  0.18690000000000001          4.1385754011571407E-003
  0.18800000000000000          4.0984931401908398E-003
  0.18910000000000005          4.0410528890788555E-003
  0.19020000000000004          3.9672148413956165E-003
  0.19130000000000003          3.8780963514000177E-003
  0.19240000000000002          3.7749516777694225E-003
  0.19350000000000001          3.6591563839465380E-003
  0.19460000000000005          3.5321828909218311E-003
  0.19570000000000004          3.3955711405724287E-003
  0.19680000000000003          3.2508992590010166E-003
  0.19790000000000002          3.0997567810118198E-003
  0.19900000000000001          2.9437239281833172E-003
  0.20010000000000000          2.7843506541103125E-003
  0.20120000000000005          2.6231361553072929E-003
  0.20230000000000004          2.4615025613456964E-003
  0.20340000000000003          2.3007704876363277E-003
  0.20450000000000002          2.1421404089778662E-003
  0.20560000000000000          1.9866812508553267E-003
  0.20670000000000005          1.8353245686739683E-003
  0.20780000000000004          1.6888524405658245E-003
  0.20890000000000003          1.5478853601962328E-003
