 -0.12000000000000000          0.0000000000000000
 -0.11889999999999999          0.0000000000000000
 -0.11780000000000000          0.0000000000000000
 -0.11670000000000000          0.0000000000000000
 -0.11559999999999999         -8.5477461332524538E-018
 -0.11449999999999999          4.2738731493442882E-017
 -0.11340000000000000          2.5643244190021649E-017
 -0.11230000000000000         -5.9834215488141664E-017
 -0.11119999999999999         -2.1369365415849196E-016
 -0.11009999999999999          1.4531169170991723E-016
 -0.10900000000000000          3.6755305974161775E-016
 -0.10790000000000000         -1.4616647236166094E-015
 -0.10679999999999999         -4.3849938532124731E-015
 -0.10569999999999999         -4.5730444848653476E-015
 -0.10460000000000000          1.6240713269122416E-016
 -0.10349999999999999          7.7357105028835575E-015
 -0.10239999999999999          1.2573734845737310E-014
 -0.10130000000000000          1.1394146598995604E-014
 -0.10020000000000000          5.2910552560115048E-015
  -9.9099999999999994E-002    -6.8296486765680522E-015
  -9.7999999999999990E-002    -2.0591520025550758E-014
  -9.6899999999999986E-002    -3.4900444215385865E-014
  -9.5799999999999996E-002    -4.3191758356724355E-014
  -9.4699999999999993E-002    -2.8506731209517605E-014
  -9.3599999999999989E-002     2.5899709487535796E-015
  -9.2499999999999999E-002     4.1345453536539845E-014
  -9.1399999999999995E-002     9.5418491901158586E-014
  -9.0299999999999991E-002     1.1995051761755360E-013
  -8.9200000000000002E-002     8.8682858799538078E-014
  -8.8099999999999984E-002    -3.1207827798753265E-014
  -8.6999999999999994E-002    -1.9240121648667063E-013
  -8.5899999999999990E-002    -2.9560669233610892E-013
  -8.4799999999999986E-002    -2.4126013686842640E-013
  -8.3699999999999997E-002    -1.4043935014484282E-014
  -8.2599999999999993E-002     2.9632470522483745E-013
  -8.1499999999999989E-002     4.5789424769210330E-013
  -8.0399999999999999E-002     3.0873605538425664E-013
  -7.9299999999999995E-002     5.4543182307926347E-014
  -7.8199999999999992E-002    -1.0336786222982230E-013
  -7.7100000000000002E-002    -2.4950812358044694E-014
  -7.5999999999999984E-002    -7.8040093105195135E-015
  -7.4899999999999994E-002    -2.1823238745624640E-013
  -7.3799999999999991E-002    -5.3369548363990660E-013
  -7.2699999999999987E-002    -5.6906606163420470E-013
  -7.1599999999999997E-002     3.7588730955953609E-013
  -7.0499999999999993E-002     1.9860604046767483E-012
  -6.9399999999999989E-002     2.6159098758665733E-012
  -6.8300000000000000E-002     8.2996077458569184E-013
  -6.7199999999999996E-002    -3.1617169819753155E-012
  -6.6099999999999992E-002    -6.7332558799371167E-012
  -6.5000000000000002E-002    -7.0837303037252219E-012
  -6.3899999999999985E-002    -3.7229785226911005E-012
  -6.2799999999999995E-002     2.9288604961458242E-012
  -6.1699999999999991E-002     9.6507229291331598E-012
  -6.0599999999999994E-002     1.1611012498691231E-011
  -5.9499999999999990E-002     6.4289415804830163E-012
  -5.8399999999999994E-002    -3.7947956409156713E-012
  -5.7299999999999990E-002    -1.3738440940436192E-011
  -5.6199999999999986E-002    -1.5559400989850758E-011
  -5.5099999999999996E-002    -8.9775843009620715E-012
  -5.3999999999999992E-002     2.0857133294777119E-012
  -5.2899999999999989E-002     6.9869761018526155E-012
  -5.1799999999999985E-002    -9.9601923930769942E-013
  -5.0699999999999995E-002    -1.1219755159663780E-011
  -4.9599999999999991E-002    -5.1981231818931661E-012
  -4.8499999999999988E-002     1.9309616405838170E-011
  -4.7399999999999998E-002     5.5581244468028146E-011
  -4.6299999999999994E-002     8.3450094057191393E-011
  -4.5199999999999990E-002     7.7707840162588582E-011
  -4.4099999999999986E-002     2.6030408731281263E-011
  -4.2999999999999997E-002    -5.7017390808766777E-011
  -4.1899999999999993E-002    -1.3670407861265943E-010
  -4.0799999999999989E-002    -1.6485372789087904E-010
  -3.9699999999999985E-002    -1.2017932482510929E-010
  -3.8599999999999995E-002    -3.8012197556280825E-012
  -3.7499999999999992E-002     1.4394724301425299E-010
  -3.6399999999999988E-002     2.2223275997212966E-010
  -3.5299999999999984E-002     1.7279606912001810E-010
  -3.4199999999999994E-002    -4.3628295420816698E-012
  -3.3099999999999991E-002    -2.0392915134337386E-010
  -3.1999999999999987E-002    -3.5419919774959396E-010
  -3.0899999999999997E-002    -3.9467296097939197E-010
  -2.9799999999999993E-002    -3.4103561641352087E-010
  -2.8699999999999989E-002    -1.3502790552344379E-010
  -2.7599999999999986E-002     1.9646126392380836E-010
  -2.6499999999999996E-002     5.3691340262673748E-010
  -2.5399999999999992E-002     6.3088412272094274E-010
  -2.4299999999999988E-002     2.1396601157519513E-010
  -2.3199999999999985E-002    -5.1217424745786388E-010
  -2.2099999999999995E-002    -1.0769810598887375E-009
  -2.0999999999999991E-002    -1.2294917306476805E-009
  -1.9899999999999987E-002    -9.6074315170113778E-010
  -1.8799999999999983E-002    -4.1862424637884033E-010
  -1.7699999999999994E-002     1.4590212371601297E-010
  -1.6599999999999990E-002     6.3872485078775298E-010
  -1.5499999999999986E-002     7.3717720816546262E-010
  -1.4399999999999996E-002     4.9055559614430422E-010
  -1.3299999999999992E-002     1.3189692393833496E-010
  -1.2199999999999989E-002    -8.7835821949155957E-011
  -1.1099999999999985E-002    -5.6749444032888618E-010
  -9.9999999999999950E-003    -1.3025974743285929E-009
  -8.8999999999999913E-003    -1.8718857575095171E-009
  -7.7999999999999875E-003    -1.9885444402234498E-009
  -6.6999999999999837E-003    -1.0229255220650657E-009
  -5.5999999999999939E-003     7.3367467656737517E-010
  -4.4999999999999901E-003     1.6746452002891488E-009
  -3.3999999999999864E-003     8.9696794436378013E-010
  -2.2999999999999826E-003    -1.2341165867013615E-009
  -1.1999999999999927E-003    -2.9170530435607134E-009
  -9.9999999999988987E-005    -2.8253233086417140E-009
   1.0000000000000148E-003    -1.3443346436048387E-009
   2.1000000000000185E-003     2.9098605469624061E-011
   3.2000000000000084E-003    -3.3628272388952496E-010
   4.3000000000000121E-003    -2.3329231879642975E-009
   5.4000000000000159E-003    -3.5587488511623633E-009
   6.5000000000000058E-003    -2.1136119521258934E-009
   7.6000000000000234E-003     1.3930060438482883E-009
   8.7000000000000133E-003     3.9674765694996950E-009
   9.8000000000000032E-003     5.6097992917614192E-009
   1.0900000000000021E-002     5.8538995872936539E-009
   1.2000000000000011E-002     5.5602220605521779E-009
   1.3100000000000001E-002     3.0795823668938738E-009
   1.4200000000000018E-002    -1.1809433986265105E-010
   1.5300000000000008E-002    -4.3554746476104356E-009
   1.6400000000000026E-002    -6.7644108092679289E-009
   1.7500000000000016E-002    -4.7277177728233255E-009
   1.8600000000000005E-002     8.2245621424448245E-010
   1.9700000000000023E-002     6.0141118751744216E-009
   2.0800000000000013E-002     7.4054726795225179E-009
   2.1900000000000003E-002     2.8454261169486017E-009
   2.3000000000000020E-002    -4.3676573469042523E-009
   2.4100000000000010E-002    -9.8598516018455484E-009
   2.5200000000000000E-002    -7.8231581213117352E-009
   2.6300000000000018E-002    -6.9550254444550319E-010
   2.7400000000000008E-002     5.2131907679608958E-009
   2.8500000000000025E-002     6.5328471521297615E-009
   2.9600000000000015E-002     3.0125046901474661E-009
   3.0700000000000005E-002    -1.1890225470878590E-009
   3.1800000000000023E-002    -1.5544023845848187E-009
   3.2900000000000013E-002     1.1634767593804440E-009
   3.4000000000000002E-002     3.2539482219817728E-009
   3.5100000000000020E-002     3.0678277695983525E-009
   3.6200000000000010E-002     2.4604480675094464E-009
   3.7300000000000028E-002     3.0406606121857749E-009
   3.8400000000000017E-002     5.4134656757298671E-009
   3.9500000000000007E-002     8.2164932635464538E-009
   4.0600000000000025E-002     6.8427801203085892E-009
   4.1700000000000015E-002     1.5970673672427438E-009
   4.2800000000000005E-002    -4.4732382242784752E-009
   4.3900000000000022E-002    -8.9302094608001426E-009
   4.5000000000000012E-002    -1.0519032755951230E-008
   4.6100000000000002E-002    -1.0960597762732505E-008
   4.7200000000000020E-002    -9.8246815127822629E-009
   4.8300000000000010E-002    -6.9678769420988829E-009
   4.9400000000000027E-002    -2.2467758764577184E-009
   5.0500000000000017E-002     2.4026214351380304E-009
   5.1600000000000007E-002     4.9009072355943317E-009
   5.2700000000000025E-002     4.3876386968122461E-009
   5.3800000000000014E-002    -7.1466654816276787E-010
   5.4900000000000004E-002    -5.9603793012286133E-009
   5.6000000000000022E-002    -4.7527599633667705E-009
   5.7100000000000012E-002     9.0048857259716897E-010
   5.8200000000000002E-002     6.2669229805578652E-009
   5.9300000000000019E-002     9.0520249074188541E-009
   6.0400000000000009E-002     5.9574238875370611E-009
   6.1500000000000027E-002     2.5760082955628150E-009
   6.2600000000000017E-002     1.8476291607782969E-009
   6.3700000000000007E-002     4.4893235795484543E-009
   6.4800000000000024E-002     6.4856848780436849E-009
   6.5900000000000014E-002     6.1158247355308504E-009
   6.7000000000000004E-002     6.1761866732013004E-009
   6.8100000000000022E-002     6.0214371266908984E-009
   6.9200000000000012E-002     1.0778390624466283E-008
   7.0300000000000029E-002     1.7005270080971968E-008
   7.1400000000000019E-002     1.8678964153195921E-008
   7.2500000000000009E-002     1.0278290218934671E-008
   7.3600000000000027E-002    -3.2671243488380242E-009
   7.4700000000000016E-002    -1.3594837255936909E-008
   7.5800000000000006E-002    -1.1690349133175459E-008
   7.6900000000000024E-002    -6.9741679098456189E-010
   7.8000000000000014E-002     7.7858857139290194E-009
   7.9100000000000004E-002     6.1589675581785741E-009
   8.0200000000000021E-002    -4.6101713557789026E-009
   8.1300000000000011E-002    -1.3837681223094478E-008
   8.2400000000000029E-002    -1.2990822639835642E-008
   8.3500000000000019E-002    -5.1887063534650224E-009
   8.4600000000000009E-002    -4.9154773584803024E-009
   8.5700000000000026E-002    -1.3246691743518113E-008
   8.6800000000000016E-002    -2.2940275457017378E-008
   8.7900000000000006E-002    -2.4889860839039102E-008
   8.9000000000000024E-002    -1.5940484487941831E-008
   9.0100000000000013E-002     1.0397052108146454E-009
   9.1200000000000003E-002     1.3932785591919128E-008
   9.2300000000000021E-002     1.7002459884452037E-008
   9.3400000000000011E-002     1.4479246246423827E-008
   9.4500000000000028E-002     1.1310699044031480E-008
   9.5600000000000018E-002     1.1583928483105410E-008
   9.6700000000000008E-002     1.0996713761812771E-008
   9.7800000000000026E-002     2.1635746527692845E-009
   9.8900000000000016E-002    -1.3768230111566027E-008
  0.10000000000000001         -2.6258257790345851E-008
  0.10110000000000002         -2.5483101850909406E-008
  0.10220000000000001         -1.1263503907343875E-008
  0.10330000000000003          6.0035012516834740E-009
  0.10440000000000002          1.5060434677138801E-008
  0.10550000000000001          1.3684480215658823E-008
  0.10660000000000003          8.6516385167101362E-009
  0.10770000000000002          8.4408693368231980E-009
  0.10880000000000001          1.3464469539314905E-008
  0.10990000000000003          1.5422738641746037E-008
  0.11100000000000002          7.1273782431546806E-009
  0.11210000000000001         -8.0336111096812601E-009
  0.11320000000000002         -1.8058821993349738E-008
  0.11430000000000001         -1.3393741227218925E-008
  0.11540000000000003          2.1120416526798635E-009
  0.11650000000000002          1.4032640827110754E-008
  0.11760000000000001          1.1699890833938298E-008
  0.11870000000000003         -8.6015905509384538E-010
  0.11980000000000002         -9.9974784006917616E-009
  0.12090000000000001         -6.5082250699788347E-009
  0.12200000000000003          4.0796930278474974E-009
  0.12310000000000001          8.2187607830519482E-009
  0.12420000000000003         -1.9739476719848881E-009
  0.12530000000000002         -2.0273654754987547E-008
  0.12640000000000001         -3.1922848364729361E-008
  0.12750000000000003         -2.7963043436329826E-008
  0.12860000000000002         -1.3637572848779200E-008
  0.12970000000000001         -1.9248045379782752E-009
  0.13080000000000003         -5.8666449476163507E-010
  0.13190000000000002         -5.4284861050746258E-009
  0.13300000000000001         -6.1921605620796072E-009
  0.13410000000000000          1.5365715366755239E-009
  0.13520000000000004          1.1407451872003094E-008
  0.13630000000000003          1.3090666328707812E-008
  0.13740000000000002          2.4498079120860439E-009
  0.13850000000000001         -1.4671270420762994E-008
  0.13960000000000000         -2.7888978237911033E-008
  0.14070000000000005         -3.1493911478719383E-008
  0.14180000000000004         -2.6834994670821288E-008
  0.14290000000000003         -1.8375782673274443E-008
  0.14400000000000002         -9.1502387888908743E-009
  0.14510000000000001          9.7713170887914202E-011
  0.14620000000000000          8.6555163036905469E-009
  0.14730000000000004          1.3354765293627224E-008
  0.14840000000000003          1.0670774486243317E-008
  0.14950000000000002          1.6185992546269290E-009
  0.15060000000000001         -8.1170004051500655E-009
  0.15170000000000000         -1.3043972124648917E-008
  0.15280000000000005         -1.2826203210636322E-008
  0.15390000000000004         -1.1904842445176200E-008
  0.15500000000000003         -1.4037611073547396E-008
  0.15610000000000002         -1.7546193831208257E-008
  0.15720000000000001         -1.6736869667965948E-008
  0.15830000000000000         -8.2776576704191029E-009
  0.15940000000000004          3.6076470699697438E-009
  0.16050000000000003          9.8507682011472752E-009
  0.16160000000000002          4.8184825018893207E-009
  0.16270000000000001         -7.9757276338909833E-009
  0.16380000000000000         -1.8613222962926557E-008
  0.16490000000000005         -2.0240703335616672E-008
  0.16600000000000004         -1.4809851123231965E-008
  0.16710000000000003         -1.0444470177617404E-008
  0.16820000000000002         -1.2653421421759958E-008
  0.16930000000000001         -1.8859854122865727E-008
  0.17040000000000000         -2.1101296709957751E-008
  0.17150000000000004         -1.4469407005890389E-008
  0.17260000000000003         -2.1796482396752026E-009
  0.17370000000000002          7.5595876225520442E-009
  0.17480000000000001          9.1666176871285643E-009
  0.17590000000000000          4.0984815541378339E-009
  0.17700000000000005         -1.5449648227416901E-009
  0.17810000000000004         -3.2419069651012933E-009
  0.17920000000000003         -1.6410395264898625E-009
  0.18030000000000002         -3.4379238345039198E-010
  0.18140000000000001         -1.5416093956943655E-009
  0.18250000000000000         -4.0659449140889592E-009
  0.18360000000000004         -5.7292761646010604E-009
  0.18470000000000003         -6.3232139524416198E-009
  0.18580000000000002         -7.6095405532328186E-009
  0.18690000000000001         -1.0300251318540177E-008
  0.18800000000000000         -1.2120714210084316E-008
  0.18910000000000005         -9.6437169361252018E-009
  0.19020000000000004         -2.2998321025369250E-009
  0.19130000000000003          6.2005556245026128E-009
  0.19240000000000002          1.0808777872739483E-008
  0.19350000000000001          9.3056602423757795E-009
  0.19460000000000005          3.5731453351672826E-009
  0.19570000000000004         -3.1475357875621057E-009
  0.19680000000000003         -9.6301384644448262E-009
  0.19790000000000002         -1.6709618577692709E-008
  0.19900000000000001         -2.4087396965910557E-008
  0.20010000000000000         -2.8178288147273634E-008
  0.20120000000000005         -2.4206714854813072E-008
  0.20230000000000004         -1.1284784662279890E-008
  0.20340000000000003          4.8660524498700397E-009
  0.20450000000000002          1.5178640566659851E-008
  0.20560000000000000          1.4248033863850651E-008
  0.20670000000000005          4.5239221257986628E-009
  0.20780000000000004         -6.3713962994427220E-009
  0.20890000000000003         -1.2236813340393837E-008
