 -0.12000000000000000          0.0000000000000000
 -0.11889999999999999          0.0000000000000000
 -0.11780000000000000          0.0000000000000000
 -0.11670000000000000          0.0000000000000000
 -0.11559999999999999          0.0000000000000000
 -0.11449999999999999          0.0000000000000000
 -0.11340000000000000          0.0000000000000000
 -0.11230000000000000         -3.8211401660109682E-025
 -0.11119999999999999          4.0440402103521515E-024
 -0.11009999999999999          9.1070512631173788E-024
 -0.10900000000000000         -8.2472930617614390E-024
 -0.10790000000000000         -3.1842820089962118E-024
 -0.10679999999999999         -8.7790689311363544E-023
 -0.10569999999999999         -2.5665311872326981E-023
 -0.10460000000000000         -2.8754062036840023E-023
 -0.10349999999999999          9.8585443005746144E-023
 -0.10239999999999999          2.2592494173744507E-022
 -0.10130000000000000         -6.9016155701143899E-022
 -0.10020000000000000         -1.6062481314909699E-021
  -9.9099999999999994E-002    -4.6091868902582841E-021
  -9.7999999999999990E-002    -1.1785830926368928E-020
  -9.6899999999999986E-002     1.9060478901402199E-021
  -9.5799999999999996E-002     3.2292743373158066E-020
  -9.4699999999999993E-002     6.2679442895143747E-020
  -9.3599999999999989E-002     8.4718733276081512E-020
  -9.2499999999999999E-002     1.4014764729651387E-019
  -9.1399999999999995E-002     2.6235584090767810E-019
  -9.0299999999999991E-002     5.1812256785091191E-019
  -8.9200000000000002E-002     7.4049963238055992E-019
  -8.8099999999999984E-002     4.2864258943132371E-019
  -8.6999999999999994E-002    -4.1744863854497915E-019
  -8.5899999999999990E-002    -1.2635398923706762E-018
  -8.4799999999999986E-002    -1.1747213740977948E-018
  -8.3699999999999997E-002     1.1612406048598650E-019
  -8.2599999999999993E-002     1.6740865875833011E-018
  -8.1499999999999989E-002     2.1635808480240590E-018
  -8.0399999999999999E-002     7.8325566766523680E-019
  -7.9299999999999995E-002    -6.2835456913489491E-020
  -7.8199999999999992E-002    -9.0892652979342750E-019
  -7.7100000000000002E-002    -6.8654931016741463E-019
  -7.5999999999999984E-002    -9.9840627556846842E-019
  -7.4899999999999994E-002    -5.0499020708698942E-018
  -7.3799999999999991E-002    -1.3375271449785430E-017
  -7.2699999999999987E-002    -1.4221362238322032E-017
  -7.1599999999999997E-002    -5.4512385235520475E-018
  -7.0499999999999993E-002     6.5242903013803371E-018
  -6.9399999999999989E-002     4.6097336243314390E-018
  -6.8300000000000000E-002     9.1059855132461156E-018
  -6.7199999999999996E-002     3.2834669717496417E-017
  -6.6099999999999992E-002     7.3658845361071013E-017
  -6.5000000000000002E-002     7.1744286202480277E-017
  -6.3899999999999985E-002     1.4477546691474605E-018
  -6.2799999999999995E-002    -1.4577849950808295E-016
  -6.1699999999999991E-002    -2.7590925645572478E-016
  -6.0599999999999994E-002    -1.7952472887805771E-016
  -5.9499999999999990E-002     2.3740030640712691E-016
  -5.8399999999999994E-002     7.7399382560815405E-016
  -5.7299999999999990E-002     9.1739099786414995E-016
  -5.6199999999999986E-002     3.0858651701137481E-016
  -5.5099999999999996E-002    -8.7932787831338345E-016
  -5.3999999999999992E-002    -1.8962871756108028E-015
  -5.2899999999999989E-002    -1.6994663648220573E-015
  -5.1799999999999985E-002     1.0433074217920668E-016
  -5.0699999999999995E-002     2.5064702290550139E-015
  -4.9599999999999991E-002     3.5409702022615305E-015
  -4.8499999999999988E-002     2.1137192626215608E-015
  -4.7399999999999998E-002    -1.0230811220445814E-015
  -4.6299999999999994E-002    -3.8521626955444720E-015
  -4.5199999999999990E-002    -4.3989957313470603E-015
  -4.4099999999999986E-002    -2.2276456175437378E-015
  -4.2999999999999997E-002     1.8583998153965916E-015
  -4.1899999999999993E-002     6.1495913342059921E-015
  -4.0799999999999989E-002     7.8422680946810958E-015
  -3.9699999999999985E-002     4.8165884800575876E-015
  -3.8599999999999995E-002    -2.2094363150019017E-015
  -3.7499999999999992E-002    -8.8251693618397221E-015
  -3.6399999999999988E-002    -1.0107108834762901E-014
  -3.5299999999999984E-002    -1.9523364045218039E-015
  -3.4199999999999994E-002     1.1937973938384860E-014
  -3.3099999999999991E-002     1.9537143577203972E-014
  -3.1999999999999987E-002     1.0177583670040354E-014
  -3.0899999999999997E-002    -1.7781874470058565E-014
  -2.9799999999999993E-002    -5.0459687291190200E-014
  -2.8699999999999989E-002    -6.4811139311241051E-014
  -2.7599999999999986E-002    -3.0166905621740667E-014
  -2.6499999999999996E-002     6.0755681085059021E-014
  -2.5399999999999992E-002     1.6644877750410236E-013
  -2.4299999999999988E-002     2.2878771902164197E-013
  -2.3199999999999985E-002     1.5039655447673245E-013
  -2.2099999999999995E-002    -1.1522445324263497E-013
  -2.0999999999999991E-002    -4.5586044704684636E-013
  -1.9899999999999987E-002    -6.0420635508706688E-013
  -1.8799999999999983E-002    -3.2366053196938860E-013
  -1.7699999999999994E-002     3.2122443810803092E-013
  -1.6599999999999990E-002     8.0746320003585725E-013
  -1.5499999999999986E-002     7.9806945557300835E-013
  -1.4399999999999996E-002     3.6197222519698813E-013
  -1.3299999999999992E-002    -1.7259505185728691E-013
  -1.2199999999999989E-002    -4.1831691105845281E-013
  -1.1099999999999985E-002    -2.6359396978516136E-013
  -9.9999999999999950E-003    -3.1456399442707228E-013
  -8.8999999999999913E-003    -6.7188523624958640E-013
  -7.7999999999999875E-003    -1.2348994439873029E-012
  -6.6999999999999837E-003    -9.2262449850194495E-013
  -5.5999999999999939E-003     1.2802752564697317E-012
  -4.4999999999999901E-003     4.3497111294754642E-012
  -3.3999999999999864E-003     4.5832101135123704E-012
  -2.2999999999999826E-003    -2.9497975242986918E-013
  -1.1999999999999927E-003    -7.0813003898162474E-012
  -9.9999999999988987E-005    -9.5086803014732268E-012
   1.0000000000000148E-003    -1.0124518411147587E-012
   2.1000000000000185E-003     1.3085627199871386E-011
   3.2000000000000084E-003     1.9551185323485321E-011
   4.3000000000000121E-003     8.9661082378067469E-012
   5.4000000000000159E-003    -1.2052416356600482E-011
   6.5000000000000058E-003    -2.4318051045080225E-011
   7.6000000000000234E-003    -1.1025240616302501E-011
   8.7000000000000133E-003     1.7952753866845583E-011
   9.8000000000000032E-003     3.3766395929335502E-011
   1.0900000000000021E-002     1.0927264301741069E-011
   1.2000000000000011E-002    -3.3619038108945176E-011
   1.3100000000000001E-002    -6.4720895309733351E-011
   1.4200000000000018E-002    -4.2885264783798505E-011
   1.5300000000000008E-002     4.2251289272821069E-011
   1.6400000000000026E-002     1.2962858564335988E-010
   1.7500000000000016E-002     1.1953368850292634E-010
   1.8600000000000005E-002    -7.0797187556870256E-012
   1.9700000000000023E-002    -1.6338294606121906E-010
   2.0800000000000013E-002    -2.1493155866192382E-010
   2.1900000000000003E-002    -1.1074870187588459E-010
   2.3000000000000020E-002     6.1776736504093321E-011
   2.4100000000000010E-002     1.6820032866515788E-010
   2.5200000000000000E-002     1.4242024226618355E-010
   2.6300000000000018E-002     2.2529061949327911E-011
   2.7400000000000008E-002    -3.5741756776452860E-011
   2.8500000000000025E-002     5.4996646126070914E-011
   2.9600000000000015E-002     1.8942949986389124E-010
   3.0700000000000005E-002     1.9501977810421067E-010
   3.1800000000000023E-002    -1.6741774633288742E-011
   3.2900000000000013E-002    -2.5091073663219277E-010
   3.4000000000000002E-002    -4.3130193860818622E-010
   3.5100000000000020E-002    -4.2571168812344240E-010
   3.6200000000000010E-002    -2.5430663130876496E-010
   3.7300000000000028E-002    -1.2099415913624512E-010
   3.8400000000000017E-002    -2.5774280279500239E-011
   3.9500000000000007E-002     2.7559371451602033E-010
   4.0600000000000025E-002     6.6210981142234004E-010
   4.1700000000000015E-002     7.7973705270295568E-010
   4.2800000000000005E-002     3.9543845975487102E-010
   4.3900000000000022E-002    -3.9219344438734538E-010
   4.5000000000000012E-002    -1.0229734836997295E-009
   4.6100000000000002E-002    -1.0173831777038345E-009
   4.7200000000000020E-002    -7.5163486545903879E-011
   4.8300000000000010E-002     1.2838339280563105E-009
   4.9400000000000027E-002     1.8809798163488267E-009
   5.0500000000000017E-002     1.3532739373545155E-009
   5.1600000000000007E-002     4.9393844570033707E-010
   5.2700000000000025E-002     9.6195482135463806E-011
   5.3800000000000014E-002     3.6171166062359816E-010
   5.4900000000000004E-002     1.3845979918158946E-009
   5.6000000000000022E-002     1.8069659102337710E-009
   5.7100000000000012E-002     1.4096390721363150E-010
   5.8200000000000002E-002    -3.2011122641506518E-009
   5.9300000000000019E-002    -5.1965036718115698E-009
   6.0400000000000009E-002    -3.8150993475483119E-009
   6.1500000000000027E-002    -3.8565806104173816E-010
   6.2600000000000017E-002     2.9093389919410129E-009
   6.3700000000000007E-002     2.9216513652841059E-009
   6.4800000000000024E-002    -1.5685763798956032E-010
   6.5900000000000014E-002    -2.4331816561584674E-009
   6.7000000000000004E-002    -1.2363579049434748E-009
   6.8100000000000022E-002     1.7575394473112738E-009
   6.9200000000000012E-002     2.9722888594818642E-009
   7.0300000000000029E-002     4.1668668515626450E-011
   7.1400000000000019E-002    -4.6905070938407789E-009
   7.2500000000000009E-002    -5.8106093270282599E-009
   7.3600000000000027E-002    -1.4812304716116387E-009
   7.4700000000000016E-002     4.5600740961049269E-009
   7.5800000000000006E-002     7.7511579377187445E-009
   7.6900000000000024E-002     6.1918714600039948E-009
   7.8000000000000014E-002     1.5493261118493251E-009
   7.9100000000000004E-002    -2.2507007368943732E-009
   8.0200000000000021E-002    -3.4514688884712541E-009
   8.1300000000000011E-002    -2.5549038440431104E-009
   8.2400000000000029E-002    -1.5149312915241353E-009
   8.3500000000000019E-002    -1.4071066534171450E-009
   8.4600000000000009E-002    -1.0841709752185125E-009
   8.5700000000000026E-002     4.7565346106281936E-010
   8.6800000000000016E-002     3.1827371849146857E-009
   8.7900000000000006E-002     4.5812287297053444E-009
   8.9000000000000024E-002     2.6992761359423412E-009
   9.0100000000000013E-002    -1.3517132968487999E-009
   9.1200000000000003E-002    -4.5243324642285643E-009
   9.2300000000000021E-002    -4.6136925391238037E-009
   9.3400000000000011E-002    -1.8528309997378756E-009
   9.4500000000000028E-002     1.7306797661653661E-010
   9.5600000000000018E-002    -9.7392138798113592E-010
   9.6700000000000008E-002    -3.4295033479736503E-009
   9.7800000000000026E-002    -3.7877523340057451E-009
   9.8900000000000016E-002    -4.8911308336840875E-010
  0.10000000000000001          4.1360448399530014E-009
  0.10110000000000002          5.0684620944707603E-009
  0.10220000000000001          1.6179912964986443E-009
  0.10330000000000003         -3.4189238107273923E-009
  0.10440000000000002         -4.8079140668733089E-009
  0.10550000000000001         -2.4862376601930691E-009
  0.10660000000000003          3.2392008519899207E-010
  0.10770000000000002         -7.1787020772262622E-013
  0.10880000000000001         -2.7319111417511976E-009
  0.10990000000000003         -3.9349199454363770E-009
  0.11100000000000002         -1.7275219033052736E-009
  0.11210000000000001          2.3800241777394149E-009
  0.11320000000000002          3.7449039425041519E-009
  0.11430000000000001          9.3304364234825243E-010
  0.11540000000000003         -2.5420758831273815E-009
  0.11650000000000002         -2.5037141249129036E-009
  0.11760000000000001          1.1556842149929025E-009
  0.11870000000000003          4.8688599818547118E-009
  0.11980000000000002          3.8495926446557860E-009
  0.12090000000000001         -2.2964887769205689E-009
  0.12200000000000003         -6.9547194669894452E-009
  0.12310000000000001         -2.8292479470337639E-009
  0.12420000000000003          8.5024449703041682E-009
  0.12530000000000002          1.7342435043588011E-008
  0.12640000000000001          1.6394871238389896E-008
  0.12750000000000003          5.5163464907082016E-009
  0.12860000000000002         -6.6528449416125568E-009
  0.12970000000000001         -1.0934630090275732E-008
  0.13080000000000003         -5.6260476277714133E-009
  0.13190000000000002          2.8733495582855539E-009
  0.13300000000000001          5.3317110726425199E-009
  0.13410000000000000          5.1214721352721426E-010
  0.13520000000000004         -5.6339346521383504E-009
  0.13630000000000003         -5.3446105319210346E-009
  0.13740000000000002          2.6349353809962395E-009
  0.13850000000000001          1.1690037382550145E-008
  0.13960000000000000          1.3395509590452548E-008
  0.14070000000000005          6.3172804765088131E-009
  0.14180000000000004         -2.7328008744831322E-009
  0.14290000000000003         -5.5805124965502273E-009
  0.14400000000000002         -5.4081761291513430E-010
  0.14510000000000001          5.9150253584050461E-009
  0.14620000000000000          5.8996105778419405E-009
  0.14730000000000004         -1.6267662772406766E-009
  0.14840000000000003         -9.9060324387778564E-009
  0.14950000000000002         -1.1319669646070452E-008
  0.15060000000000001         -4.3798271676109835E-009
  0.15170000000000000          4.2719414672376388E-009
  0.15280000000000005          6.5420815431593837E-009
  0.15390000000000004          1.1309633229927840E-009
  0.15500000000000003         -5.8397104929497345E-009
  0.15610000000000002         -7.5760144824243980E-009
  0.15720000000000001         -3.0561717601074179E-009
  0.15830000000000000          2.3285968708819382E-009
  0.15940000000000004          3.3797735721208255E-009
  0.16050000000000003          5.3206195005373047E-010
  0.16160000000000002         -8.3676104933871898E-010
  0.16270000000000001          3.0814428786385406E-009
  0.16380000000000000          9.7983310354265996E-009
  0.16490000000000005          1.2127848947329767E-008
  0.16600000000000004          5.7767390870822055E-009
  0.16710000000000003         -6.0507412413812744E-009
  0.16820000000000002         -1.5207259451699429E-008
  0.16930000000000001         -1.6122335466661752E-008
  0.17040000000000000         -1.0422744445293119E-008
  0.17150000000000004         -4.4453023484436471E-009
  0.17260000000000003         -2.6714894740820228E-009
  0.17370000000000002         -3.5596765535217401E-009
  0.17480000000000001         -1.6603826091809992E-009
  0.17590000000000000          5.8497251487210633E-009
  0.17700000000000005          1.5385461793471222E-008
  0.17810000000000004          1.9668902950797928E-008
  0.17920000000000003          1.3662864617458581E-008
  0.18030000000000002          2.1756640933290328E-010
  0.18140000000000001         -1.2062546517199735E-008
  0.18250000000000000         -1.5558958565975445E-008
  0.18360000000000004         -9.1602601060003508E-009
  0.18470000000000003          1.6482164522102494E-009
  0.18580000000000002          9.7498791262751183E-009
  0.18690000000000001          1.1487839124413313E-008
  0.18800000000000000          7.7942443610368173E-009
  0.18910000000000005          2.5052429020178124E-009
  0.19020000000000004         -1.0090923652228412E-009
  0.19130000000000003         -1.5477241710470935E-009
  0.19240000000000002         -3.2961527951513858E-010
  0.19350000000000001          1.3560491618491710E-010
  0.19460000000000005         -1.9356929392699840E-009
  0.19570000000000004         -6.0236571286509388E-009
  0.19680000000000003         -8.7761398148700209E-009
  0.19790000000000002         -6.9754380049857900E-009
  0.19900000000000001         -2.0029244929276047E-010
  0.20010000000000000          7.6952231253812897E-009
  0.20120000000000005          1.1073407080175457E-008
  0.20230000000000004          7.2095174274977580E-009
  0.20340000000000003         -4.9051918082909651E-010
  0.20450000000000002         -5.5733710979666284E-009
  0.20560000000000000         -3.8040388616877863E-009
  0.20670000000000005          2.9218110153550469E-009
  0.20780000000000004          8.7692910710757133E-009
  0.20890000000000003          9.5213277262473639E-009
