 -0.12000000000000000          0.0000000000000000
 -0.11889999999999999          0.0000000000000000
 -0.11780000000000000          0.0000000000000000
 -0.11670000000000000          0.0000000000000000
 -0.11559999999999999          0.0000000000000000
 -0.11449999999999999          4.4683558932212818E-015
 -0.11340000000000000          1.3144575124395350E-014
 -0.11230000000000000         -2.4045846779042808E-014
 -0.11119999999999999         -1.9728489907376011E-013
 -0.11009999999999999         -4.0466485078464487E-013
 -0.10900000000000000         -6.3337348800201111E-014
 -0.10790000000000000          1.5019422299416669E-012
 -0.10679999999999999          3.5827195480278637E-012
 -0.10569999999999999          2.9677308691599130E-012
 -0.10460000000000000         -3.9228350392009562E-012
 -0.10349999999999999         -1.5176005100697323E-011
 -0.10239999999999999         -1.9487758471438559E-011
 -0.10130000000000000         -2.7853205893338300E-012
 -0.10020000000000000          3.4440652702192654E-011
  -9.9099999999999994E-002     6.4937660140144523E-011
  -9.7999999999999990E-002     4.8827692794579441E-011
  -9.6899999999999986E-002    -2.5792620858699385E-011
  -9.5799999999999996E-002    -1.1132415578951216E-010
  -9.4699999999999993E-002    -1.2409578003194211E-010
  -9.3599999999999989E-002    -2.4602919467728430E-011
  -9.2499999999999999E-002     1.1468220281438739E-010
  -9.1399999999999995E-002     1.4398663172302871E-010
  -9.0299999999999991E-002    -1.7826106625519782E-011
  -8.9200000000000002E-002    -2.4877858420440522E-010
  -8.8099999999999984E-002    -2.6746251624356706E-010
  -8.6999999999999994E-002     1.1325563644545437E-010
  -8.5899999999999990E-002     7.1990045990473480E-010
  -8.4799999999999986E-002     1.0322908565449415E-009
  -8.3699999999999997E-002     5.7376127005175738E-010
  -8.2599999999999993E-002    -5.9773284682982052E-010
  -8.1499999999999989E-002    -1.7685117533977220E-009
  -8.0399999999999999E-002    -2.0441609237404277E-009
  -7.9299999999999995E-002    -1.1000240878309057E-009
  -7.8199999999999992E-002     4.6336080587951954E-010
  -7.7100000000000002E-002     1.5718933926598034E-009
  -7.5999999999999984E-002     1.6175679028577837E-009
  -7.4899999999999994E-002     1.0242233119738538E-009
  -7.3799999999999991E-002     8.1960575242653920E-010
  -7.2699999999999987E-002     1.5139865369925534E-009
  -7.1599999999999997E-002     2.3524499527127368E-009
  -7.0499999999999993E-002     1.8045477061509045E-009
  -6.9399999999999989E-002    -9.7055856725147450E-010
  -6.8300000000000000E-002    -4.9888124950569720E-009
  -6.7199999999999996E-002    -7.8291385541185791E-009
  -6.6099999999999992E-002    -7.4180680833537231E-009
  -6.5000000000000002E-002    -3.7201219207113013E-009
  -6.3899999999999985E-002     1.2146521396694687E-009
  -6.2799999999999995E-002     4.9514633032885537E-009
  -6.1699999999999991E-002     6.5712339988515556E-009
  -6.0599999999999994E-002     6.9815882836574418E-009
  -5.9499999999999990E-002     7.3716732217247397E-009
  -5.8399999999999994E-002     7.4287792502621135E-009
  -5.7299999999999990E-002     5.2923112211866873E-009
  -5.6199999999999986E-002    -4.4634264470660227E-010
  -5.5099999999999996E-002    -8.5505534813659335E-009
  -5.3999999999999992E-002    -1.5076718060450471E-008
  -5.2899999999999989E-002    -1.5889157791566988E-008
  -5.1799999999999985E-002    -9.6424596059190022E-009
  -5.0699999999999995E-002     1.5769728466235568E-009
  -4.9599999999999991E-002     1.4715061057694062E-008
  -4.8499999999999988E-002     2.9104272464356360E-008
  -4.7399999999999998E-002     4.7486230749831999E-008
  -4.6299999999999994E-002     7.3621823744612425E-008
  -4.5199999999999990E-002     1.0879800712680391E-007
  -4.4099999999999986E-002     1.5086722105200735E-007
  -4.2999999999999997E-002     1.9720920433488647E-007
  -4.1899999999999993E-002     2.4914712350784392E-007
  -4.0799999999999989E-002     3.1362726101773899E-007
  -3.9699999999999985E-002     4.0029935645155734E-007
  -3.8599999999999995E-002     5.1652666078601406E-007
  -3.7499999999999992E-002     6.6509917417655106E-007
  -3.6399999999999988E-002     8.4711209963574699E-007
  -3.5299999999999984E-002     1.0675517042083738E-006
  -3.4199999999999994E-002     1.3383068167442122E-006
  -3.3099999999999991E-002     1.6755808828824029E-006
  -3.1999999999999987E-002     2.0941668764999099E-006
  -3.0899999999999997E-002     2.6045480064239587E-006
  -2.9799999999999993E-002     3.2166206548044823E-006
  -2.8699999999999989E-002     3.9476672870884522E-006
  -2.7599999999999986E-002     4.8277807199515829E-006
  -2.6499999999999996E-002     5.8978022916831867E-006
  -2.5399999999999992E-002     7.2016615270021107E-006
  -2.4299999999999988E-002     8.7805206133496757E-006
  -2.3199999999999985E-002     1.0674890884006318E-005
  -2.2099999999999995E-002     1.2933651625474560E-005
  -2.0999999999999991E-002     1.5622305816551038E-005
  -1.9899999999999987E-002     1.8823330309129369E-005
  -1.8799999999999983E-002     2.2628989386126091E-005
  -1.7699999999999994E-002     2.7134441885919045E-005
  -1.6599999999999990E-002     3.2439317810277368E-005
  -1.5499999999999986E-002     3.8658115943549637E-005
  -1.4399999999999996E-002     4.5931302114220032E-005
  -1.3299999999999992E-002     5.4428009830341139E-005
  -1.2199999999999989E-002     6.4338996712691080E-005
  -1.1099999999999985E-002     7.5867939764290729E-005
  -9.9999999999999950E-003     8.9231136196718630E-005
  -8.8999999999999913E-003     1.0466745423540311E-004
  -7.7999999999999875E-003     1.2245042364247033E-004
  -6.6999999999999837E-003     1.4289175396300292E-004
  -5.5999999999999939E-003     1.6633351049245688E-004
  -4.4999999999999901E-003     1.9313753411064150E-004
  -3.3999999999999864E-003     2.2368357323870687E-004
  -2.2999999999999826E-003     2.5837967461240011E-004
  -1.1999999999999927E-003     2.9767582970246804E-004
  -9.9999999999988987E-005     3.4206797415923032E-004
   1.0000000000000148E-003     3.9208779082003766E-004
   2.1000000000000185E-003     4.4828659071634400E-004
   3.2000000000000084E-003     5.1122726593428789E-004
   4.3000000000000121E-003     5.8148909963234516E-004
   5.4000000000000159E-003     6.5967732473519826E-004
   6.5000000000000058E-003     7.4642317403873716E-004
   7.6000000000000234E-003     8.4236893664352492E-004
   8.7000000000000133E-003     9.4814629658603912E-004
   9.8000000000000032E-003     1.0643624367904828E-003
   1.0900000000000021E-002     1.1915987089371983E-003
   1.2000000000000011E-002     1.3304150079583884E-003
   1.3100000000000001E-002     1.4813421782811519E-003
   1.4200000000000018E-002     1.6448568280176728E-003
   1.5300000000000008E-002     1.8213490059267850E-003
   1.6400000000000026E-002     2.0110973444286756E-003
   1.7500000000000016E-002     2.2142610272142876E-003
   1.8600000000000005E-002     2.4308748453637915E-003
   1.9700000000000023E-002     2.6608368943982991E-003
   2.0800000000000013E-002     2.9038758342685451E-003
   2.1900000000000003E-002     3.1595082595713402E-003
   2.3000000000000020E-002     3.4270073277187186E-003
   2.4100000000000010E-002     3.7053867177842194E-003
   2.5200000000000000E-002     3.9933930271654873E-003
   2.6300000000000018E-002     4.2894896449690769E-003
   2.7400000000000008E-002     4.5918230645463146E-003
   2.8500000000000025E-002     4.8981823966801289E-003
   2.9600000000000015E-002     5.2059724598688102E-003
   3.0700000000000005E-002     5.5122024506400087E-003
   3.1800000000000023E-002     5.8134854011229024E-003
   3.2900000000000013E-002     6.1060291663319645E-003
   3.4000000000000002E-002     6.3856144649184817E-003
   3.5100000000000020E-002     6.6475728525761807E-003
   3.6200000000000010E-002     6.8867793608280766E-003
   3.7300000000000028E-002     7.0976708682671218E-003
   3.8400000000000017E-002     7.2742725527981883E-003
   3.9500000000000007E-002     7.4102204005700193E-003
   4.0600000000000025E-002     7.4987726531375847E-003
   4.1700000000000015E-002     7.5328286459615673E-003
   4.2800000000000005E-002     7.5049661151472330E-003
   4.3900000000000022E-002     7.4075057671613978E-003
   4.5000000000000012E-002     7.2325856286725339E-003
   4.6100000000000002E-002     6.9722370599645334E-003
   4.7200000000000020E-002     6.6184490178819314E-003
   4.8300000000000010E-002     6.1632465707536404E-003
   4.9400000000000027E-002     5.5987903810452528E-003
   5.0500000000000017E-002     4.9175009924050184E-003
   5.1600000000000007E-002     4.1121885729732731E-003
   5.2700000000000025E-002     3.1761805246113880E-003
   5.3800000000000014E-002     2.1034429026767728E-003
   5.4900000000000004E-002     8.8870895308208915E-004
   5.6000000000000022E-002    -4.7237101212710311E-004
   5.7100000000000012E-002    -1.9830632404541438E-003
   5.8200000000000002E-002    -3.6453833815290556E-003
   5.9300000000000019E-002    -5.4599474160523858E-003
   6.0400000000000009E-002    -7.4258407880750440E-003
   6.1500000000000027E-002    -9.5404890065636776E-003
   6.2600000000000017E-002    -1.1799520090792971E-002
   6.3700000000000007E-002    -1.4196634446079246E-002
   6.4800000000000024E-002    -1.6723482349441727E-002
   6.5900000000000014E-002    -1.9369584190595340E-002
   6.7000000000000004E-002    -2.2122268833331134E-002
   6.8100000000000022E-002    -2.4966647314689918E-002
   6.9200000000000012E-002    -2.7885593624541308E-002
   7.0300000000000029E-002    -3.0859744205796319E-002
   7.1400000000000019E-002    -3.3867541286746641E-002
   7.2500000000000009E-002    -3.6885328612750193E-002
   7.3600000000000027E-002    -3.9887488447912733E-002
   7.4700000000000016E-002    -4.2846604228509028E-002
   7.5800000000000006E-002    -4.5733665940200362E-002
   7.6900000000000024E-002    -4.8518298180576798E-002
   7.8000000000000014E-002    -5.1169030082537897E-002
   7.9100000000000004E-002    -5.3653643966829603E-002
   8.0200000000000021E-002    -5.5939529084321114E-002
   8.1300000000000011E-002    -5.7994069097491122E-002
   8.2400000000000029E-002    -5.9785036559499155E-002
   8.3500000000000019E-002    -6.1281034962414306E-002
   8.4600000000000009E-002    -6.2451963366302474E-002
   8.5700000000000026E-002    -6.3269470817180082E-002
   8.6800000000000016E-002    -6.3707417385147458E-002
   8.7900000000000006E-002    -6.3742357089212165E-002
   8.9000000000000024E-002    -6.3353954058814804E-002
   9.0100000000000013E-002    -6.2525394180663940E-002
   9.1200000000000003E-002    -6.1243835017126387E-002
   9.2300000000000021E-002    -5.9500737497224523E-002
   9.3400000000000011E-002    -5.7292183245398275E-002
   9.4500000000000028E-002    -5.4619108523368917E-002
   9.5600000000000018E-002    -5.1487487807974991E-002
   9.6700000000000008E-002    -4.7908456036415657E-002
   9.7800000000000026E-002    -4.3898385554853890E-002
   9.8900000000000016E-002    -3.9478860715549818E-002
  0.10000000000000001         -3.4676556880652229E-002
  0.10110000000000002         -2.9523018181834122E-002
  0.10220000000000001         -2.4054400946478722E-002
  0.10330000000000003         -1.8311126464117252E-002
  0.10440000000000002         -1.2337481775708457E-002
  0.10550000000000001         -6.1811451895334140E-003
  0.10660000000000003          1.0739077209122789E-004
  0.10770000000000002          6.4754559355676587E-003
  0.10880000000000001          1.2868865206793199E-002
  0.10990000000000003          1.9232588434575235E-002
  0.11100000000000002          2.5511428174375964E-002
  0.11210000000000001          3.1650723876126725E-002
  0.11320000000000002          3.7597102685186283E-002
  0.11430000000000001          4.3299206040260413E-002
  0.11540000000000003          4.8708387032002254E-002
  0.11650000000000002          5.3779326390814050E-002
  0.11760000000000001          5.8470570682110139E-002
  0.11870000000000003          6.2745026669385043E-002
  0.11980000000000002          6.6570465745499269E-002
  0.12090000000000001          6.9919935750652334E-002
  0.12200000000000003          7.2772057847313970E-002
  0.12310000000000001          7.5111196527843760E-002
  0.12420000000000003          7.6927543096396753E-002
  0.12530000000000002          7.8217104176471111E-002
  0.12640000000000001          7.8981693904912734E-002
  0.12750000000000003          7.9228793333048608E-002
  0.12860000000000002          7.8971349302915217E-002
  0.12970000000000001          7.8227376334833565E-002
  0.13080000000000003          7.7019568428229795E-002
  0.13190000000000002          7.5374810208814341E-002
  0.13300000000000001          7.3323757093242778E-002
  0.13410000000000000          7.0900292572299975E-002
  0.13520000000000004          6.8140978820079745E-002
  0.13630000000000003          6.5084437574761581E-002
  0.13740000000000002          6.1770716933500239E-002
  0.13850000000000001          5.8240685953875153E-002
  0.13960000000000000          5.4535513350629061E-002
  0.14070000000000005          5.0696156264146926E-002
  0.14180000000000004          4.6762831729635114E-002
  0.14290000000000003          4.2774487749433432E-002
  0.14400000000000002          3.8768332364710091E-002
  0.14510000000000001          3.4779461899079857E-002
  0.14620000000000000          3.0840573589890796E-002
  0.14730000000000004          2.6981751373149183E-002
  0.14840000000000003          2.3230229715512810E-002
  0.14950000000000002          1.9610186485441373E-002
  0.15060000000000001          1.6142595561657064E-002
  0.15170000000000000          1.2845204891251830E-002
  0.15280000000000005          9.7326172893924916E-003
  0.15390000000000004          6.8163908625630551E-003
  0.15500000000000003          4.1051210327115797E-003
  0.15610000000000002          1.6045068679419771E-003
  0.15720000000000001         -6.8253058685432022E-004
  0.15830000000000000         -2.7556289566657028E-003
  0.15940000000000004         -4.6166964591324595E-003
  0.16050000000000003         -6.2696311391066996E-003
  0.16160000000000002         -7.7201079194035797E-003
  0.16270000000000001         -8.9754131241059458E-003
  0.16380000000000000         -1.0044245035626257E-002
  0.16490000000000005         -1.0936452553591505E-002
  0.16600000000000004         -1.1662733524874624E-002
  0.16710000000000003         -1.2234367702544050E-002
  0.16820000000000002         -1.2663048118600201E-002
  0.16930000000000001         -1.2960766526997248E-002
  0.17040000000000000         -1.3139674831423366E-002
  0.17150000000000004         -1.3211899664011387E-002
  0.17260000000000003         -1.3189334965262398E-002
  0.17370000000000002         -1.3083487647052753E-002
  0.17480000000000001         -1.2905423871125379E-002
  0.17590000000000000         -1.2665755497758622E-002
  0.17700000000000005         -1.2374605994505470E-002
  0.17810000000000004         -1.2041514761877458E-002
  0.17920000000000003         -1.1675336746886382E-002
  0.18030000000000002         -1.1284190838833169E-002
  0.18140000000000001         -1.0875498914323187E-002
  0.18250000000000000         -1.0456051382833974E-002
  0.18360000000000004         -1.0032030800901223E-002
  0.18470000000000003         -9.6089703650589497E-003
  0.18580000000000002         -9.1917031512377487E-003
  0.18690000000000001         -8.7843768164648124E-003
  0.18800000000000000         -8.3905408656736874E-003
  0.18910000000000005         -8.0132404194164664E-003
  0.19020000000000004         -7.6550545750461059E-003
  0.19130000000000003         -7.3180691905645311E-003
  0.19240000000000002         -7.0038461377535423E-003
  0.19350000000000001         -6.7134672617798893E-003
  0.19460000000000005         -6.4476377718798231E-003
  0.19570000000000004         -6.2067809455585215E-003
  0.19680000000000003         -5.9910565208619896E-003
  0.19790000000000002         -5.8003202698604485E-003
  0.19900000000000001         -5.6340912844251604E-003
  0.20010000000000000         -5.4916003441387671E-003
  0.20120000000000005         -5.3718931986528416E-003
  0.20230000000000004         -5.2739139446793797E-003
  0.20340000000000003         -5.1965052412280633E-003
  0.20450000000000002         -5.1383494740879516E-003
  0.20560000000000000         -5.0979317535016430E-003
  0.20670000000000005         -5.0735881207760909E-003
  0.20780000000000004         -5.0636051624257704E-003
  0.20890000000000003         -5.0662913150618565E-003
