 -0.12000000000000000          0.0000000000000000
 -0.11889999999999999          0.0000000000000000
 -0.11780000000000000          0.0000000000000000
 -0.11670000000000000          0.0000000000000000
 -0.11559999999999999         -6.6697784448233044E-012
 -0.11449999999999999         -2.8765241924522122E-011
 -0.11340000000000000         -4.3307458313934788E-011
 -0.11230000000000000          1.5743658113298586E-011
 -0.11119999999999999          1.6289208870645666E-010
 -0.11009999999999999          2.2086536766163789E-010
 -0.10900000000000000         -1.1268541655340414E-010
 -0.10790000000000000         -8.5592499754483242E-010
 -0.10679999999999999         -1.3554488642597562E-009
 -0.10569999999999999         -6.0235588739132595E-010
 -0.10460000000000000          1.6139232172918128E-009
 -0.10349999999999999          3.7475698100308819E-009
 -0.10239999999999999          3.2052895893031064E-009
 -0.10130000000000000         -1.1624590179337702E-009
 -0.10020000000000000         -6.9281225201223151E-009
  -9.9099999999999994E-002    -9.0634513227882962E-009
  -9.7999999999999990E-002    -4.2335530636705698E-009
  -9.6899999999999986E-002     5.1883102258898361E-009
  -9.5799999999999996E-002     1.1897789420345362E-008
  -9.4699999999999993E-002     9.7416759103907680E-009
  -9.3599999999999989E-002    -8.6772367069443135E-011
  -9.2499999999999999E-002    -9.2572634002863197E-009
  -9.1399999999999995E-002    -9.8387022973156490E-009
  -9.0299999999999991E-002    -2.3596884446419608E-009
  -8.9200000000000002E-002     4.0686556346258840E-009
  -8.8099999999999984E-002     7.1558314829189840E-010
  -8.6999999999999994E-002    -1.1210953942963897E-008
  -8.5899999999999990E-002    -2.0564478120377316E-008
  -8.4799999999999986E-002    -1.6758384902004764E-008
  -8.3699999999999997E-002    -4.5724846131633967E-010
  -8.2599999999999993E-002     1.6880052911005805E-008
  -8.1499999999999989E-002     2.4520925734350385E-008
  -8.0399999999999999E-002     2.2628459106499577E-008
  -7.9299999999999995E-002     1.9364719605619030E-008
  -7.8199999999999992E-002     1.7605827906663762E-008
  -7.7100000000000002E-002     6.9375944988792071E-009
  -7.5999999999999984E-002    -2.7344199793333246E-008
  -7.4899999999999994E-002    -8.5414001205208478E-008
  -7.3799999999999991E-002    -1.4554770189079136E-007
  -7.2699999999999987E-002    -1.8127138901036233E-007
  -7.1599999999999997E-002    -1.9088982128323551E-007
  -7.0499999999999993E-002    -2.1059497612441191E-007
  -6.9399999999999989E-002    -2.9427616254906752E-007
  -6.8300000000000000E-002    -4.7505207589892962E-007
  -6.7199999999999996E-002    -7.4383763148944126E-007
  -6.6099999999999992E-002    -1.0661224223440513E-006
  -6.5000000000000002E-002    -1.4212349697118043E-006
  -6.3899999999999985E-002    -1.8257277361044544E-006
  -6.2799999999999995E-002    -2.3188495106296614E-006
  -6.1699999999999991E-002    -2.9281695788085926E-006
  -6.0599999999999994E-002    -3.6554793041432276E-006
  -5.9499999999999990E-002    -4.5021083678875584E-006
  -5.8399999999999994E-002    -5.5090154091885779E-006
  -5.7299999999999990E-002    -6.7672681325348094E-006
  -5.6199999999999986E-002    -8.3827690104953945E-006
  -5.5099999999999996E-002    -1.0428395398776047E-005
  -5.3999999999999992E-002    -1.2934507140016649E-005
  -5.2899999999999989E-002    -1.5932615497149527E-005
  -5.1799999999999985E-002    -1.9511589925969020E-005
  -5.0699999999999995E-002    -2.3829888959880918E-005
  -4.9599999999999991E-002    -2.9071274184389040E-005
  -4.8499999999999988E-002    -3.5392178688198328E-005
  -4.7399999999999998E-002    -4.2921699787257239E-005
  -4.6299999999999994E-002    -5.1822375098709017E-005
  -4.5199999999999990E-002    -6.2354134570341557E-005
  -4.4099999999999986E-002    -7.4875104473903775E-005
  -4.2999999999999997E-002    -8.9776105596683919E-005
  -4.1899999999999993E-002    -1.0741653386503458E-004
  -4.0799999999999989E-002    -1.2813419743906707E-004
  -3.9699999999999985E-002    -1.5232876467052847E-004
  -3.8599999999999995E-002    -1.8054120300803334E-004
  -3.7499999999999992E-002    -2.1345241111703217E-004
  -3.6399999999999988E-002    -2.5180549710057676E-004
  -3.5299999999999984E-002    -2.9633645317517221E-004
  -3.4199999999999994E-002    -3.4779211273416877E-004
  -3.3099999999999991E-002    -4.0702352998778224E-004
  -3.1999999999999987E-002    -4.7506066039204597E-004
  -3.0899999999999997E-002    -5.5308942683041096E-004
  -2.9799999999999993E-002    -6.4235238824039698E-004
  -2.8699999999999989E-002    -7.4407708598300815E-004
  -2.7599999999999986E-002    -8.5951248183846474E-004
  -2.6499999999999996E-002    -9.9004199728369713E-004
  -2.5399999999999992E-002    -1.1372554581612349E-003
  -2.4299999999999988E-002    -1.3028990942984819E-003
  -2.3199999999999985E-002    -1.4887428842484951E-003
  -2.2099999999999995E-002    -1.6964928945526481E-003
  -2.0999999999999991E-002    -1.9278284162282944E-003
  -1.9899999999999987E-002    -2.1845155861228704E-003
  -1.8799999999999983E-002    -2.4684583768248558E-003
  -1.7699999999999994E-002    -2.7816118672490120E-003
  -1.6599999999999990E-002    -3.1258123926818371E-003
  -1.5499999999999986E-002    -3.5026769619435072E-003
  -1.4399999999999996E-002    -3.9136409759521484E-003
  -1.3299999999999992E-002    -4.3600699864327908E-003
  -1.2199999999999989E-002    -4.8432825133204460E-003
  -1.1099999999999985E-002    -5.3644194267690182E-003
  -9.9999999999999950E-003    -5.9242388233542442E-003
  -8.8999999999999913E-003    -6.5229986794292927E-003
  -7.7999999999999875E-003    -7.1604917757213116E-003
  -6.6999999999999837E-003    -7.8361500054597855E-003
  -5.5999999999999939E-003    -8.5490448400378227E-003
  -4.4999999999999901E-003    -9.2977285385131836E-003
  -3.3999999999999864E-003    -1.0080021806061268E-002
  -2.2999999999999826E-003    -1.0892910882830620E-002
  -1.1999999999999927E-003    -1.1732616461813450E-002
  -9.9999999999988987E-005    -1.2594714760780334E-002
   1.0000000000000148E-003    -1.3474140316247940E-002
   2.1000000000000185E-003    -1.4365023002028465E-002
   3.2000000000000084E-003    -1.5260510146617889E-002
   4.3000000000000121E-003    -1.6152732074260712E-002
   5.4000000000000159E-003    -1.7032943665981293E-002
   6.5000000000000058E-003    -1.7891706898808479E-002
   7.6000000000000234E-003    -1.8718931823968887E-002
   8.7000000000000133E-003    -1.9503777846693993E-002
   9.8000000000000032E-003    -2.0234562456607819E-002
   1.0900000000000021E-002    -2.0898843184113503E-002
   1.2000000000000011E-002    -2.1483680233359337E-002
   1.3100000000000001E-002    -2.1975891664624214E-002
   1.4200000000000018E-002    -2.2362174466252327E-002
   1.5300000000000008E-002    -2.2629084065556526E-002
   1.6400000000000026E-002    -2.2763064131140709E-002
   1.7500000000000016E-002    -2.2750649601221085E-002
   1.8600000000000005E-002    -2.2578846663236618E-002
   1.9700000000000023E-002    -2.2235453128814697E-002
   2.0800000000000013E-002    -2.1709214895963669E-002
   2.1900000000000003E-002    -2.0989865064620972E-002
   2.3000000000000020E-002    -2.0068209618330002E-002
   2.4100000000000010E-002    -1.8936416134238243E-002
   2.5200000000000000E-002    -1.7588410526514053E-002
   2.6300000000000018E-002    -1.6020189970731735E-002
   2.7400000000000008E-002    -1.4229914173483849E-002
   2.8500000000000025E-002    -1.2217885814607143E-002
   2.9600000000000015E-002    -9.9866082891821861E-003
   3.0700000000000005E-002    -7.5410115532577038E-003
   3.1800000000000023E-002    -4.8887468874454498E-003
   3.2900000000000013E-002    -2.0403321832418442E-003
   3.4000000000000002E-002     9.9093164317309856E-004
   3.5100000000000020E-002     4.1891578584909439E-003
   3.6200000000000010E-002     7.5359777547419071E-003
   3.7300000000000028E-002     1.1010483838617802E-002
   3.8400000000000017E-002     1.4589160680770874E-002
   3.9500000000000007E-002     1.8245996907353401E-002
   4.0600000000000025E-002     2.1952845156192780E-002
   4.1700000000000015E-002     2.5679850950837135E-002
   4.2800000000000005E-002     2.9395766556262970E-002
   4.3900000000000022E-002     3.3068098127841949E-002
   4.5000000000000012E-002     3.6663249135017395E-002
   4.6100000000000002E-002     4.0146905928850174E-002
   4.7200000000000020E-002     4.3484602123498917E-002
   4.8300000000000010E-002     4.6642299741506577E-002
   4.9400000000000027E-002     4.9586821347475052E-002
   5.0500000000000017E-002     5.2286095917224884E-002
   5.1600000000000007E-002     5.4709404706954956E-002
   5.2700000000000025E-002     5.6827832013368607E-002
   5.3800000000000014E-002     5.8614902198314667E-002
   5.4900000000000004E-002     6.0047123581171036E-002
   5.6000000000000022E-002     6.1104282736778259E-002
   5.7100000000000012E-002     6.1769541352987289E-002
   5.8200000000000002E-002     6.2029596418142319E-002
   5.9300000000000019E-002     6.1874996870756149E-002
   6.0400000000000009E-002     6.1300572007894516E-002
   6.1500000000000027E-002     6.0305703431367874E-002
   6.2600000000000017E-002     5.8894287794828415E-002
   6.3700000000000007E-002     5.7074517011642456E-002
   6.4800000000000024E-002     5.4858703166246414E-002
   6.5900000000000014E-002     5.2263334393501282E-002
   6.7000000000000004E-002     4.9309149384498596E-002
   6.8100000000000022E-002     4.6021007001399994E-002
   6.9200000000000012E-002     4.2427435517311096E-002
   7.0300000000000029E-002     3.8560036569833755E-002
   7.1400000000000019E-002     3.4453049302101135E-002
   7.2500000000000009E-002     3.0143095180392265E-002
   7.3600000000000027E-002     2.5668989866971970E-002
   7.4700000000000016E-002     2.1071309223771095E-002
   7.5800000000000006E-002     1.6391653567552567E-002
   7.6900000000000024E-002     1.1671870946884155E-002
   7.8000000000000014E-002     6.9534918293356895E-003
   7.9100000000000004E-002     2.2774550598114729E-003
   8.0200000000000021E-002    -2.3161482531577349E-003
   8.1300000000000011E-002    -6.7885508760809898E-003
   8.2400000000000029E-002    -1.1103008873760700E-002
   8.3500000000000019E-002    -1.5225482173264027E-002
   8.4600000000000009E-002    -1.9125003367662430E-002
   8.5700000000000026E-002    -2.2773737087845802E-002
   8.6800000000000016E-002    -2.6147019118070602E-002
   8.7900000000000006E-002    -2.9223615303635597E-002
   8.9000000000000024E-002    -3.1986154615879059E-002
   9.0100000000000013E-002    -3.4421470016241074E-002
   9.1200000000000003E-002    -3.6520589143037796E-002
   9.2300000000000021E-002    -3.8278415799140930E-002
   9.3400000000000011E-002    -3.9693459868431091E-002
   9.4500000000000028E-002    -4.0767781436443329E-002
   9.5600000000000018E-002    -4.1507109999656677E-002
   9.6700000000000008E-002    -4.1920796036720276E-002
   9.7800000000000026E-002    -4.2021449655294418E-002
   9.8900000000000016E-002    -4.1824378073215485E-002
  0.10000000000000001         -4.1347082704305649E-002
  0.10110000000000002         -4.0609017014503479E-002
  0.10220000000000001         -3.9631504565477371E-002
  0.10330000000000003         -3.8437530398368835E-002
  0.10440000000000002         -3.7051238119602203E-002
  0.10550000000000001         -3.5497274249792099E-002
  0.10660000000000003         -3.3800318837165833E-002
  0.10770000000000002         -3.1984921544790268E-002
  0.10880000000000001         -3.0075430870056152E-002
  0.10990000000000003         -2.8095804154872894E-002
  0.11100000000000002         -2.6069173589348793E-002
  0.11210000000000001         -2.4017358198761940E-002
  0.11320000000000002         -2.1960576996207237E-002
  0.11430000000000001         -1.9917486235499382E-002
  0.11540000000000003         -1.7905304208397865E-002
  0.11650000000000002         -1.5939773991703987E-002
  0.11760000000000001         -1.4034883119165897E-002
  0.11870000000000003         -1.2202581390738487E-002
  0.11980000000000002         -1.0452764108777046E-002
  0.12090000000000001         -8.7935086339712143E-003
  0.12200000000000003         -7.2313719429075718E-003
  0.12310000000000001         -5.7714637368917465E-003
  0.12420000000000003         -4.4172955676913261E-003
  0.12530000000000002         -3.1706595327705145E-003
  0.12640000000000001         -2.0317675080150366E-003
  0.12750000000000003         -9.9962798412889242E-004
  0.12860000000000002         -7.2397109761368483E-005
  0.12970000000000001          7.5252540409564972E-004
  0.13080000000000003          1.4786140527576208E-003
  0.13190000000000002          2.1102847531437874E-003
  0.13300000000000001          2.6527030859142542E-003
  0.13410000000000000          3.1113976147025824E-003
  0.13520000000000004          3.4919632598757744E-003
  0.13630000000000003          3.8000319618731737E-003
  0.13740000000000002          4.0414338000118732E-003
  0.13850000000000001          4.2222677730023861E-003
  0.13960000000000000          4.3487166985869408E-003
  0.14070000000000005          4.4267163611948490E-003
  0.14180000000000004          4.4617569074034691E-003
  0.14290000000000003          4.4589587487280369E-003
  0.14400000000000002          4.4232923537492752E-003
  0.14510000000000001          4.3596653267741203E-003
  0.14620000000000000          4.2727538384497166E-003
  0.14730000000000004          4.1667371988296509E-003
  0.14840000000000003          4.0451996028423309E-003
  0.14950000000000002          3.9112921804189682E-003
  0.15060000000000001          3.7679849192500114E-003
  0.15170000000000000          3.6181453615427017E-003
  0.15280000000000005          3.4643723629415035E-003
  0.15390000000000004          3.3087735064327717E-003
  0.15500000000000003          3.1529376283288002E-003
  0.15610000000000002          2.9981515835970640E-003
  0.15720000000000001          2.8456505388021469E-003
  0.15830000000000000          2.6966615114361048E-003
  0.15940000000000004          2.5522140786051750E-003
  0.16050000000000003          2.4129415396600962E-003
  0.16160000000000002          2.2791021037846804E-003
  0.16270000000000001          2.1508240606635809E-003
  0.16380000000000000          2.0283367484807968E-003
  0.16490000000000005          1.9119662465527654E-003
  0.16600000000000004          1.8019219860434532E-003
  0.16710000000000003          1.6981125809252262E-003
  0.16820000000000002          1.6001969343051314E-003
  0.16930000000000001          1.5078312717378139E-003
  0.17040000000000000          1.4208651846274734E-003
  0.17150000000000004          1.3392943656072021E-003
  0.17260000000000003          1.2630334822461009E-003
  0.17370000000000002          1.1917528463527560E-003
  0.17480000000000001          1.1249593226239085E-003
  0.17590000000000000          1.0622384725138545E-003
  0.17700000000000005          1.0034127626568079E-003
  0.17810000000000004          9.4845640705898404E-004
  0.17920000000000003          8.9725962607190013E-004
  0.18030000000000002          8.4949174197390676E-004
  0.18140000000000001          8.0470525426790118E-004
  0.18250000000000000          7.6257053297013044E-004
  0.18360000000000004          7.2299886960536242E-004
  0.18470000000000003          6.8602879764512181E-004
  0.18580000000000002          6.5159716177731752E-004
  0.18690000000000001          6.1943399487063289E-004
  0.18800000000000000          5.8918504510074854E-004
  0.18910000000000005          5.6063127703964710E-004
  0.19020000000000004          5.3377379663288593E-004
  0.19130000000000003          5.0869997357949615E-004
  0.19240000000000002          4.8537272959947586E-004
  0.19350000000000001          4.6356138773262501E-004
  0.19460000000000005          4.4298314605839550E-004
  0.19570000000000004          4.2350287549197674E-004
  0.19680000000000003          4.0518306195735931E-004
  0.19790000000000002          3.8813389255665243E-004
  0.19900000000000001          3.7232117028906941E-004
  0.20010000000000000          3.5753048723563552E-004
  0.20120000000000005          3.4351990325376391E-004
  0.20230000000000004          3.3019893453456461E-004
  0.20340000000000003          3.1764811137691140E-004
  0.20450000000000002          3.0596356373280287E-004
  0.20560000000000000          2.9509194428101182E-004
  0.20670000000000005          2.8482722700573504E-004
  0.20780000000000004          2.7496932307258248E-004
  0.20890000000000003          2.6547667221166193E-004
