 -0.12000000000000000          0.0000000000000000
 -0.11889999999999999          0.0000000000000000
 -0.11780000000000000          0.0000000000000000
 -0.11670000000000000          0.0000000000000000
 -0.11559999999999999          0.0000000000000000
 -0.11449999999999999          0.0000000000000000
 -0.11340000000000000          0.0000000000000000
 -0.11230000000000000          6.9002062530678170E-019
 -0.11119999999999999         -5.0525722098872153E-018
 -0.11009999999999999         -6.7620929815246343E-017
 -0.10900000000000000         -2.6534858201825618E-016
 -0.10790000000000000         -3.9656536755317603E-016
 -0.10679999999999999          5.5514126434485058E-016
 -0.10569999999999999          3.9409580064380875E-015
 -0.10460000000000000          8.2768688414560157E-015
 -0.10349999999999999          5.2698874791431462E-015
 -0.10239999999999999         -1.6584044521764790E-014
 -0.10130000000000000         -5.3812673989159926E-014
 -0.10020000000000000         -6.8077176383109228E-014
  -9.9099999999999994E-002    -1.8195453553148527E-015
  -9.7999999999999990E-002     1.4874826901895705E-013
  -9.6899999999999986E-002     2.6036274915555713E-013
  -9.5799999999999996E-002     1.3868595128644495E-013
  -9.4699999999999993E-002    -2.4241649269549082E-013
  -9.3599999999999989E-002    -5.2204383394274800E-013
  -9.2499999999999999E-002    -1.4760469322500080E-013
  -9.1399999999999995E-002     8.9502027750959501E-013
  -9.0299999999999991E-002     1.4510940192502542E-012
  -8.9200000000000002E-002    -2.0848942147363991E-013
  -8.8099999999999984E-002    -4.2414791297240573E-012
  -8.6999999999999994E-002    -7.2559254611637147E-012
  -8.5899999999999990E-002    -3.5603685798191176E-012
  -8.4799999999999986E-002     9.1895440909595116E-012
  -8.3699999999999997E-002     2.3848345173660412E-011
  -8.2599999999999993E-002     2.4786225155670749E-011
  -8.1499999999999989E-002     1.5934302488584962E-013
  -8.0399999999999999E-002    -4.1677879897283887E-011
  -7.9299999999999995E-002    -6.8485848936372662E-011
  -7.8199999999999992E-002    -4.5271252024914332E-011
  -7.7100000000000002E-002     2.9692248659785037E-011
  -7.5999999999999984E-002     1.0643350784045325E-010
  -7.4899999999999994E-002     1.1172175684581731E-010
  -7.3799999999999991E-002     1.5425386662437646E-011
  -7.2699999999999987E-002    -1.2038205154940584E-010
  -7.1599999999999997E-002    -1.7017479092551469E-010
  -7.0499999999999993E-002    -5.2796537974852953E-011
  -6.9399999999999989E-002     1.6583345807674732E-010
  -6.8300000000000000E-002     2.8691060638408317E-010
  -6.7199999999999996E-002     1.3869178028258489E-010
  -6.6099999999999992E-002    -2.3360613443657030E-010
  -6.5000000000000002E-002    -5.3637438934828197E-010
  -6.3899999999999985E-002    -4.4100981200223544E-010
  -6.2799999999999995E-002     9.7844593538454205E-011
  -6.1699999999999991E-002     7.1087968844807392E-010
  -6.0599999999999994E-002     8.5679341399469422E-010
  -5.9499999999999990E-002     2.9974114856834433E-010
  -5.8399999999999994E-002    -5.9136140428961426E-010
  -5.7299999999999990E-002    -1.0607625888781058E-009
  -5.6199999999999986E-002    -6.0656912825862719E-010
  -5.5099999999999996E-002     4.9009374336606015E-010
  -5.3999999999999992E-002     1.2857176434621920E-009
  -5.2899999999999989E-002     9.5341068373500093E-010
  -5.1799999999999985E-002    -4.1328535038687164E-010
  -5.0699999999999995E-002    -1.7413609443295286E-009
  -4.9599999999999991E-002    -1.8367042331490779E-009
  -4.8499999999999988E-002    -4.6945469733827849E-010
  -4.7399999999999998E-002     1.3209952021142612E-009
  -4.6299999999999994E-002     2.0831598668280549E-009
  -4.5199999999999990E-002     1.2714864716656393E-009
  -4.4099999999999986E-002    -2.0481316642673164E-010
  -4.2999999999999997E-002    -8.1020290476629953E-010
  -4.1899999999999993E-002     9.9063979241975630E-011
  -4.0799999999999989E-002     1.5121165430898031E-009
  -3.9699999999999985E-002     1.6017840387405613E-009
  -3.8599999999999995E-002    -4.9661363910047385E-010
  -3.7499999999999992E-002    -3.6303160477757501E-009
  -3.6399999999999988E-002    -5.4091562340374821E-009
  -3.5299999999999984E-002    -4.2275312139850030E-009
  -3.4199999999999994E-002    -6.8202499203806610E-010
  -3.3099999999999991E-002     2.9752367236568489E-009
  -3.1999999999999987E-002     4.8444075417819477E-009
  -3.0899999999999997E-002     4.8926001028348765E-009
  -2.9799999999999993E-002     4.4836614421228660E-009
  -2.8699999999999989E-002     4.4517514119490897E-009
  -2.7599999999999986E-002     3.8258631818166577E-009
  -2.6499999999999996E-002     7.5049211289979212E-010
  -2.5399999999999992E-002    -5.1416879642829372E-009
  -2.4299999999999988E-002    -1.1380835829299940E-008
  -2.3199999999999985E-002    -1.4063165743039008E-008
  -2.2099999999999995E-002    -1.1026735080577055E-008
  -2.0999999999999991E-002    -3.8113885381108048E-009
  -1.9899999999999987E-002     3.6871565800566941E-009
  -1.8799999999999983E-002     8.7839708839965169E-009
  -1.7699999999999994E-002     1.2354051115437414E-008
  -1.6599999999999990E-002     1.7544287800319580E-008
  -1.5499999999999986E-002     2.6072825676237699E-008
  -1.4399999999999996E-002     3.6021994276325131E-008
  -1.3299999999999992E-002     4.3818221939773139E-008
  -1.2199999999999989E-002     4.8868212587649396E-008
  -1.1099999999999985E-002     5.6235954559724632E-008
  -9.9999999999999950E-003     7.4180142917157355E-008
  -8.8999999999999913E-003     1.0830931529426380E-007
  -7.7999999999999875E-003     1.5777571604758123E-007
  -6.6999999999999837E-003     2.1740908096035128E-007
  -5.5999999999999939E-003     2.8408712182681484E-007
  -4.4999999999999901E-003     3.6135182313046244E-007
  -3.3999999999999864E-003     4.5777900936627702E-007
  -2.2999999999999826E-003     5.8074391517948243E-007
  -1.1999999999999927E-003     7.3202045314246789E-007
  -9.9999999999988987E-005     9.1011747826996725E-007
   1.0000000000000148E-003     1.1176066436746623E-006
   2.1000000000000185E-003     1.3664724747286527E-006
   3.2000000000000084E-003     1.6761426877565100E-006
   4.3000000000000121E-003     2.0659931578848045E-006
   5.4000000000000159E-003     2.5496997295704205E-006
   6.5000000000000058E-003     3.1370659598906059E-006
   7.6000000000000234E-003     3.8414518712670542E-006
   8.7000000000000133E-003     4.6853097046550829E-006
   9.8000000000000032E-003     5.6984590628417209E-006
   1.0900000000000021E-002     6.9116213126108050E-006
   1.2000000000000011E-002     8.3531431300798431E-006
   1.3100000000000001E-002     1.0053832738776691E-005
   1.4200000000000018E-002     1.2056216291966848E-005
   1.5300000000000008E-002     1.4419283616007306E-005
   1.6400000000000026E-002     1.7213917089975439E-005
   1.7500000000000016E-002     2.0513791241683066E-005
   1.8600000000000005E-002     2.4391732949879952E-005
   1.9700000000000023E-002     2.8926271625095978E-005
   2.0800000000000013E-002     3.4212418540846556E-005
   2.1900000000000003E-002     4.0365765016758814E-005
   2.3000000000000020E-002     4.7515684855170548E-005
   2.4100000000000010E-002     5.5795379012124613E-005
   2.5200000000000000E-002     6.5341038862243295E-005
   2.6300000000000018E-002     7.6303804235067219E-005
   2.7400000000000008E-002     8.8864566350821406E-005
   2.8500000000000025E-002     1.0323692549718544E-004
   2.9600000000000015E-002     1.1965455632889643E-004
   3.0700000000000005E-002     1.3835486606694758E-004
   3.1800000000000023E-002     1.5957598225213587E-004
   3.2900000000000013E-002     1.8357120279688388E-004
   3.4000000000000002E-002     2.1062733139842749E-004
   3.5100000000000020E-002     2.4106803175527602E-004
   3.6200000000000010E-002     2.7523702010512352E-004
   3.7300000000000028E-002     3.1347680487670004E-004
   3.8400000000000017E-002     3.5612337524071336E-004
   3.9500000000000007E-002     4.0352190262638032E-004
   4.0600000000000025E-002     4.5604619663208723E-004
   4.1700000000000015E-002     5.1409966545179486E-004
   4.2800000000000005E-002     5.7809270219877362E-004
   4.3900000000000022E-002     6.4841512357816100E-004
   4.5000000000000012E-002     7.2542921407148242E-004
   4.6100000000000002E-002     8.0948596587404609E-004
   4.7200000000000020E-002     9.0094463666900992E-004
   4.8300000000000010E-002     1.0001687332987785E-003
   4.9400000000000027E-002     1.1074951617047191E-003
   5.0500000000000017E-002     1.2231995351612568E-003
   5.1600000000000007E-002     1.3474891893565655E-003
   5.2700000000000025E-002     1.4805238461121917E-003
   5.3800000000000014E-002     1.6224372666329145E-003
   5.4900000000000004E-002     1.7733293352648616E-003
   5.6000000000000022E-002     1.9332275260239840E-003
   5.7100000000000012E-002     2.1020451094955206E-003
   5.8200000000000002E-002     2.2795735858380795E-003
   5.9300000000000019E-002     2.4655093438923359E-003
   6.0400000000000009E-002     2.6594828814268112E-003
   6.1500000000000027E-002     2.8610515873879194E-003
   6.2600000000000017E-002     3.0696606263518333E-003
   6.3700000000000007E-002     3.2846003305166960E-003
   6.4800000000000024E-002     3.5050052683800459E-003
   6.5900000000000014E-002     3.7298894021660089E-003
   6.7000000000000004E-002     3.9581838063895702E-003
   6.8100000000000022E-002     4.1887317784130573E-003
   6.9200000000000012E-002     4.4202473945915699E-003
   7.0300000000000029E-002     4.6512777917087078E-003
   7.1400000000000019E-002     4.8802089877426624E-003
   7.2500000000000009E-002     5.1053226925432682E-003
   7.3600000000000027E-002     5.3248461335897446E-003
   7.4700000000000016E-002     5.5369585752487183E-003
   7.5800000000000006E-002     5.7397456839680672E-003
   7.6900000000000024E-002     5.9311632066965103E-003
   7.8000000000000014E-002     6.1090467497706413E-003
   7.9100000000000004E-002     6.2711751088500023E-003
   8.0200000000000021E-002     6.4153298735618591E-003
   8.1300000000000011E-002     6.5393010154366493E-003
   8.2400000000000029E-002     6.6408440470695496E-003
   8.3500000000000019E-002     6.7176399752497673E-003
   8.4600000000000009E-002     6.7673134617507458E-003
   8.5700000000000026E-002     6.7874956876039505E-003
   8.6800000000000016E-002     6.7758802324533463E-003
   8.7900000000000006E-002     6.7302202805876732E-003
   8.9000000000000024E-002     6.6482694819569588E-003
   9.0100000000000013E-002     6.5277339890599251E-003
   9.1200000000000003E-002     6.3662831671535969E-003
   9.2300000000000021E-002     6.1616129241883755E-003
   9.3400000000000011E-002     5.9115001931786537E-003
   9.4500000000000028E-002     5.6137866340577602E-003
   9.5600000000000018E-002     5.2663069218397141E-003
   9.6700000000000008E-002     4.8668351955711842E-003
   9.7800000000000026E-002     4.4130939058959484E-003
   9.8900000000000016E-002     3.9028257597237825E-003
  0.10000000000000001          3.3338500652462244E-003
  0.10110000000000002          2.7040513232350349E-003
  0.10220000000000001          2.0113165955990553E-003
  0.10330000000000003          1.2534934794530272E-003
  0.10440000000000002          4.2842360562644899E-004
  0.10550000000000001         -4.6596146421507001E-004
  0.10660000000000003         -1.4315601438283920E-003
  0.10770000000000002         -2.4700874928385019E-003
  0.10880000000000001         -3.5831073764711618E-003
  0.10990000000000003         -4.7720302827656269E-003
  0.11100000000000002         -6.0380273498594761E-003
  0.11210000000000001         -7.3818848468363285E-003
  0.11320000000000002         -8.8038789108395576E-003
  0.11430000000000001         -1.0303717106580734E-002
  0.11540000000000003         -1.1880538426339626E-002
  0.11650000000000002         -1.3532875105738640E-002
  0.11760000000000001         -1.5258523635566235E-002
  0.11870000000000003         -1.7054369673132896E-002
  0.11980000000000002         -1.8916241824626923E-002
  0.12090000000000001         -2.0838851109147072E-002
  0.12200000000000003         -2.2815769538283348E-002
  0.12310000000000001         -2.4839410558342934E-002
  0.12420000000000003         -2.6900915428996086E-002
  0.12530000000000002         -2.8990020975470543E-002
  0.12640000000000001         -3.1094986945390701E-002
  0.12750000000000003         -3.3202603459358215E-002
  0.12860000000000002         -3.5298272967338562E-002
  0.12970000000000001         -3.7366107106208801E-002
  0.13080000000000003         -3.9388895034790039E-002
  0.13190000000000002         -4.1348136961460114E-002
  0.13300000000000001         -4.3224118649959564E-002
  0.13410000000000000         -4.4996082782745361E-002
  0.13520000000000004         -4.6642515808343887E-002
  0.13630000000000003         -4.8141375184059143E-002
  0.13740000000000002         -4.9470286816358566E-002
  0.13850000000000001         -5.0606727600097656E-002
  0.13960000000000000         -5.1528297364711761E-002
  0.14070000000000005         -5.2213080227375031E-002
  0.14180000000000004         -5.2640043199062347E-002
  0.14290000000000003         -5.2789390087127686E-002
  0.14400000000000002         -5.2642889320850372E-002
  0.14510000000000001         -5.2184160798788071E-002
  0.14620000000000000         -5.1398981362581253E-002
  0.14730000000000004         -5.0275683403015137E-002
  0.14840000000000003         -4.8805523663759232E-002
  0.14950000000000002         -4.6982988715171814E-002
  0.15060000000000001         -4.4806007295846939E-002
  0.15170000000000000         -4.2276095598936081E-002
  0.15280000000000005         -3.9398543536663055E-002
  0.15390000000000004         -3.6182556301355362E-002
  0.15500000000000003         -3.2641366124153137E-002
  0.15610000000000002         -2.8792249038815498E-002
  0.15720000000000001         -2.4656411260366440E-002
  0.15830000000000000         -2.0258830860257149E-002
  0.15940000000000004         -1.5628060325980186E-002
  0.16050000000000003         -1.0796014219522476E-002
  0.16160000000000002         -5.7976832613348961E-003
  0.16270000000000001         -6.7076086997985840E-004
  0.16380000000000000          4.5448183082044125E-003
  0.16490000000000005          9.8073715344071388E-003
  0.16600000000000004          1.5073955059051514E-002
  0.16710000000000003          2.0300868898630142E-002
  0.16820000000000002          2.5444190949201584E-002
  0.16930000000000001          3.0460389330983162E-002
  0.17040000000000000          3.5306930541992188E-002
  0.17150000000000004          3.9942849427461624E-002
  0.17260000000000003          4.4329281896352768E-002
  0.17370000000000002          4.8429917544126511E-002
  0.17480000000000001          5.2211482077836990E-002
  0.17590000000000000          5.5644195526838303E-002
  0.17700000000000005          5.8702196925878525E-002
  0.17810000000000004          6.1363875865936279E-002
  0.17920000000000003          6.3612066209316254E-002
  0.18030000000000002          6.5434180200099945E-002
  0.18140000000000001          6.6822327673435211E-002
  0.18250000000000000          6.7773371934890747E-002
  0.18360000000000004          6.8288944661617279E-002
  0.18470000000000003          6.8375341594219208E-002
  0.18580000000000002          6.8043269217014313E-002
  0.18690000000000001          6.7307554185390472E-002
  0.18800000000000000          6.6186852753162384E-002
  0.18910000000000005          6.4703315496444702E-002
  0.19020000000000004          6.2882281839847565E-002
  0.19130000000000003          6.0751825571060181E-002
  0.19240000000000002          5.8342214673757553E-002
  0.19350000000000001          5.5685389786958694E-002
  0.19460000000000005          5.2814494818449020E-002
  0.19570000000000004          4.9763452261686325E-002
  0.19680000000000003          4.6566560864448547E-002
  0.19790000000000002          4.3257966637611389E-002
  0.19900000000000001          3.9871182292699814E-002
  0.20010000000000000          3.6438651382923126E-002
  0.20120000000000005          3.2991420477628708E-002
  0.20230000000000004          2.9558900743722916E-002
  0.20340000000000003          2.6168597862124443E-002
  0.20450000000000002          2.2845823317766190E-002
  0.20560000000000000          1.9613441079854965E-002
  0.20670000000000005          1.6491726040840149E-002
  0.20780000000000004          1.3498351909220219E-002
  0.20890000000000003          1.0648428462445736E-002
