 -0.12000000000000000          0.0000000000000000     
 -0.11889999999999999          0.0000000000000000     
 -0.11780000000000000          1.7570081399753690E-004
 -0.11670000000000000          2.9667624039575458E-004
 -0.11559999999999999         -2.8444704366847873E-004
 -0.11449999999999999         -1.5258661005645990E-003
 -0.11340000000000000         -1.9011363619938493E-003
 -0.11230000000000000          3.1476843287236989E-004
 -0.11119999999999999          4.4040004722774029E-003
 -0.11009999999999999          6.4795156940817833E-003
 -0.10900000000000000          2.7576847933232784E-003
 -0.10790000000000000         -5.6839068420231342E-003
 -0.10679999999999999         -1.2104557827115059E-002
 -0.10569999999999999         -9.6243638545274734E-003
 -0.10460000000000000          1.4482019469141960E-003
 -0.10349999999999999          1.2294576503336430E-002
 -0.10239999999999999          1.3055383227765560E-002
 -0.10130000000000000          2.6818781625479460E-003
 -0.10020000000000000         -8.9308824390172958E-003
  -9.9099999999999994E-002    -9.8512256518006325E-003
  -9.7999999999999990E-002     1.8791345646604896E-003
  -9.6899999999999986E-002     1.5191461890935898E-002
  -9.5799999999999996E-002     1.5821160748600960E-002
  -9.4699999999999993E-002     8.6111554992385209E-005
  -9.3599999999999989E-002    -2.0862508565187454E-002
  -9.2499999999999999E-002    -3.0889362096786499E-002
  -9.1399999999999995E-002    -2.3626584559679031E-002
  -9.0299999999999991E-002    -8.0948397517204285E-003
  -8.9200000000000002E-002    -1.4710103278048337E-004
  -8.8099999999999984E-002    -8.4034493193030357E-003
  -8.6999999999999994E-002    -2.8095662593841553E-002
  -8.5899999999999990E-002    -4.7714699059724808E-002
  -8.4799999999999986E-002    -6.0663018375635147E-002
  -8.3699999999999997E-002    -7.0083215832710266E-002
  -8.2599999999999993E-002    -8.2983866333961487E-002
  -8.1499999999999989E-002   -0.10097036510705948     
  -8.0399999999999999E-002   -0.11787006258964539     
  -7.9299999999999995E-002   -0.12700706720352173     
  -7.8199999999999992E-002   -0.13096387684345245     
  -7.7100000000000002E-002   -0.14407509565353394     
  -7.5999999999999984E-002   -0.18440096080303192     
  -7.4899999999999994E-002   -0.26102834939956665     
  -7.3799999999999991E-002   -0.36635452508926392     
  -7.2699999999999987E-002   -0.47940793633460999     
  -7.1599999999999997E-002   -0.57885944843292236     
  -7.0499999999999993E-002   -0.65813207626342773     
  -6.9399999999999989E-002   -0.73294657468795776     
  -6.8300000000000000E-002   -0.83513009548187256     
  -6.7199999999999996E-002   -0.99473017454147339     
  -6.6099999999999992E-002    -1.2216054201126099     
  -6.5000000000000002E-002    -1.5007454156875610     
  -6.3899999999999985E-002    -1.8067687749862671     
  -6.2799999999999995E-002    -2.1278047561645508     
  -6.1699999999999991E-002    -2.4785203933715820     
  -6.0599999999999994E-002    -2.8901014328002930     
  -5.9499999999999990E-002    -3.3849492073059082     
  -5.8399999999999994E-002    -3.9603197574615479     
  -5.7299999999999990E-002    -4.5983829498291016     
  -5.6199999999999986E-002    -5.2939381599426270     
  -5.5099999999999996E-002    -6.0729770660400391     
  -5.3999999999999992E-002    -6.9801483154296875     
  -5.2899999999999989E-002    -8.0455207824707031     
  -5.1799999999999985E-002    -9.2615079879760742     
  -5.0699999999999995E-002    -10.595320701599121     
  -4.9599999999999991E-002    -12.024289131164551     
  -4.8499999999999988E-002    -13.562590599060059     
  -4.7399999999999998E-002    -15.250041961669922     
  -4.6299999999999994E-002    -17.117860794067383     
  -4.5199999999999990E-002    -19.165672302246094     
  -4.4099999999999986E-002    -21.373756408691406     
  -4.2999999999999997E-002    -23.733741760253906     
  -4.1899999999999993E-002    -26.260633468627930     
  -4.0799999999999989E-002    -28.971323013305664     
  -3.9699999999999985E-002    -31.849855422973633     
  -3.8599999999999995E-002    -34.847705841064453     
  -3.7499999999999992E-002    -37.916240692138672     
  -3.6399999999999988E-002    -41.044898986816406     
  -3.5299999999999984E-002    -44.251445770263672     
  -3.4199999999999994E-002    -47.533164978027344     
  -3.3099999999999991E-002    -50.826347351074219     
  -3.1999999999999987E-002    -54.022983551025391     
  -3.0899999999999997E-002    -57.043075561523438     
  -2.9799999999999993E-002    -59.871665954589844     
  -2.8699999999999989E-002    -62.535457611083984     
  -2.7599999999999986E-002    -65.006713867187500     
  -2.6499999999999996E-002    -67.150596618652344     
  -2.5399999999999992E-002    -68.769500732421875     
  -2.4299999999999988E-002    -69.715187072753906     
  -2.3199999999999985E-002    -69.957290649414062     
  -2.2099999999999995E-002    -69.542625427246094     
  -2.0999999999999991E-002    -68.465736389160156     
  -1.9899999999999987E-002    -66.585708618164062     
  -1.8799999999999983E-002    -63.681591033935547     
  -1.7699999999999994E-002    -59.589206695556641     
  -1.6599999999999990E-002    -54.299015045166016     
  -1.5499999999999986E-002    -47.893089294433594     
  -1.4399999999999996E-002    -40.420024871826172     
  -1.3299999999999992E-002    -31.766691207885742     
  -1.2199999999999989E-002    -21.761419296264648     
  -1.1099999999999985E-002    -10.304532051086426     
  -9.9999999999999950E-003     2.5250368118286133     
  -8.8999999999999913E-003     16.543523788452148     
  -7.7999999999999875E-003     31.596855163574219     
  -6.6999999999999837E-003     47.662395477294922     
  -5.5999999999999939E-003     64.775161743164062     
  -4.4999999999999901E-003     82.870803833007812     
  -3.3999999999999864E-003     101.70878601074219     
  -2.2999999999999826E-003     120.96846008300781     
  -1.1999999999999927E-003     140.40229797363281     
  -9.9999999999988987E-005     159.88128662109375     
   1.0000000000000148E-003     179.31286621093750     
   2.1000000000000185E-003     198.45349121093750     
   3.2000000000000084E-003     216.91757202148438     
   4.3000000000000121E-003     234.30299377441406     
   5.4000000000000159E-003     250.30506896972656     
   6.5000000000000058E-003     264.77661132812500     
   7.6000000000000234E-003     277.57226562500000     
   8.7000000000000133E-003     288.39117431640625     
   9.8000000000000032E-003     296.81115722656250     
   1.0900000000000021E-002     302.45312500000000     
   1.2000000000000011E-002     305.16696166992188     
   1.3100000000000001E-002     304.99566650390625     
   1.4200000000000018E-002     301.96072387695312     
   1.5300000000000008E-002     295.90093994140625     
   1.6400000000000026E-002     286.50762939453125     
   1.7500000000000016E-002     273.59100341796875     
   1.8600000000000005E-002     257.26913452148438     
   1.9700000000000023E-002     237.87623596191406     
   2.0800000000000013E-002     215.73342895507812     
   2.1900000000000003E-002     190.92430114746094     
   2.3000000000000020E-002     163.38937377929688     
   2.4100000000000010E-002     133.20993041992188     
   2.5200000000000000E-002     100.79939270019531     
   2.6300000000000018E-002     66.790985107421875     
   2.7400000000000008E-002     31.756559371948242     
   2.8500000000000025E-002    -4.0080585479736328     
   2.9600000000000015E-002    -40.376052856445312     
   3.0700000000000005E-002    -77.097114562988281     
   3.1800000000000023E-002    -113.62890625000000     
   3.2900000000000013E-002    -149.25106811523438     
   3.4000000000000002E-002    -183.38912963867188     
   3.5100000000000020E-002    -215.75439453125000     
   3.6200000000000010E-002    -246.22871398925781     
   3.7300000000000028E-002    -274.58947753906250     
   3.8400000000000017E-002    -300.37673950195312     
   3.9500000000000007E-002    -323.03829956054688     
   4.0600000000000025E-002    -342.23165893554688     
   4.1700000000000015E-002    -357.92849731445312     
   4.2800000000000005E-002    -370.22085571289062     
   4.3900000000000022E-002    -379.07064819335938     
   4.5000000000000012E-002    -384.26300048828125     
   4.6100000000000002E-002    -385.55017089843750     
   4.7200000000000020E-002    -382.98034667968750     
   4.8300000000000010E-002    -376.89877319335938     
   4.9400000000000027E-002    -367.71987915039062     
   5.0500000000000017E-002    -355.60427856445312     
   5.1600000000000007E-002    -340.47616577148438     
   5.2700000000000025E-002    -322.36013793945312     
   5.3800000000000014E-002    -301.59793090820312     
   5.4900000000000004E-002    -278.82379150390625     
   5.6000000000000022E-002    -254.62672424316406     
   5.7100000000000012E-002    -229.24929809570312     
   5.8200000000000002E-002    -202.67671203613281     
   5.9300000000000019E-002    -174.96737670898438     
   6.0400000000000009E-002    -146.59280395507812     
   6.1500000000000027E-002    -118.28804016113281     
   6.2600000000000017E-002    -90.629379272460938     
   6.3700000000000007E-002    -63.760997772216797     
   6.4800000000000024E-002    -37.542217254638672     
   6.5900000000000014E-002    -11.946428298950195     
   6.7000000000000004E-002     12.661153793334961     
   6.8100000000000022E-002     35.672290802001953     
   6.9200000000000012E-002     56.658897399902344     
   7.0300000000000029E-002     75.659072875976562     
   7.1400000000000019E-002     92.992759704589844     
   7.2500000000000009E-002     108.83589935302734     
   7.3600000000000027E-002     122.95654296875000     
   7.4700000000000016E-002     134.91963195800781     
   7.5800000000000006E-002     144.52317810058594     
   7.6900000000000024E-002     152.00614929199219     
   7.8000000000000014E-002     157.82611083984375     
   7.9100000000000004E-002     162.22877502441406     
   8.0200000000000021E-002     165.06823730468750     
   8.1300000000000011E-002     166.07281494140625     
   8.2400000000000029E-002     165.24057006835938     
   8.3500000000000019E-002     162.96591186523438     
   8.4600000000000009E-002     159.74232482910156     
   8.5700000000000026E-002     155.75979614257812     
   8.6800000000000016E-002     150.83963012695312     
   8.7900000000000006E-002     144.77148437500000     
   8.9000000000000024E-002     137.68179321289062     
   9.0100000000000013E-002     130.05406188964844     
   9.1200000000000003E-002     122.34889984130859     
   9.2300000000000021E-002     114.63444519042969     
   9.3400000000000011E-002     106.63024902343750     
   9.4500000000000028E-002     98.114814758300781     
   9.5600000000000018E-002     89.287422180175781     
   9.6700000000000008E-002     80.674865722656250     
   9.7800000000000026E-002     72.669471740722656     
   9.8900000000000016E-002     65.191703796386719     
  0.10000000000000001          57.821575164794922     
  0.10110000000000002          50.295837402343750     
  0.10220000000000001          42.834884643554688     
  0.10330000000000003          35.972427368164062     
  0.10440000000000002          30.033187866210938     
  0.10550000000000001          24.822071075439453     
  0.10660000000000003          19.830856323242188     
  0.10770000000000002          14.779427528381348     
  0.10880000000000001          9.9039688110351562     
  0.10990000000000003          5.7160511016845703     
  0.11100000000000002          2.4675254821777344     
  0.11210000000000001        -0.12667405605316162     
  0.11320000000000002         -2.6011106967926025     
  0.11430000000000001         -5.2072658538818359     
  0.11540000000000003         -7.6819915771484375     
  0.11650000000000002         -9.5474433898925781     
  0.11760000000000001         -10.635843276977539     
  0.11870000000000003         -11.287013053894043     
  0.11980000000000002         -12.009642601013184     
  0.12090000000000001         -12.975413322448730     
  0.12200000000000003         -13.866035461425781     
  0.12310000000000001         -14.243124008178711     
  0.12420000000000003         -14.033939361572266     
  0.12530000000000002         -13.626146316528320     
  0.12640000000000001         -13.474768638610840     
  0.12750000000000003         -13.635649681091309     
  0.12860000000000002         -13.724935531616211     
  0.12970000000000001         -13.347702026367188     
  0.13080000000000003         -12.536179542541504     
  0.13190000000000002         -11.727501869201660     
  0.13300000000000001         -11.313724517822266     
  0.13410000000000000         -11.233091354370117     
  0.13520000000000004         -11.039150238037109     
  0.13630000000000003         -10.382887840270996     
  0.13740000000000002         -9.3908100128173828     
  0.13850000000000001         -8.5446987152099609     
  0.13960000000000000         -8.1793022155761719     
  0.14070000000000005         -8.1306362152099609     
  0.14180000000000004         -7.9092803001403809     
  0.14290000000000003         -7.2158250808715820     
  0.14400000000000002         -6.2622065544128418     
  0.14510000000000001         -5.5537214279174805     
  0.14620000000000000         -5.3645272254943848     
  0.14730000000000004         -5.4530010223388672     
  0.14840000000000003         -5.3161087036132812     
  0.14950000000000002         -4.7178902626037598     
  0.15060000000000001         -3.9380903244018555     
  0.15170000000000000         -3.4754180908203125     
  0.15280000000000005         -3.5263938903808594     
  0.15390000000000004         -3.7782976627349854     
  0.15500000000000003         -3.7365419864654541     
  0.15610000000000002         -3.2440013885498047     
  0.15720000000000001         -2.6378219127655029     
  0.15830000000000000         -2.3919367790222168     
  0.15940000000000004         -2.6162986755371094     
  0.16050000000000003         -2.9420495033264160     
  0.16160000000000002         -2.9113237857818604     
  0.16270000000000001         -2.4576468467712402     
  0.16380000000000000         -1.9717423915863037     
  0.16490000000000005         -1.8862729072570801     
  0.16600000000000004         -2.2168719768524170     
  0.16710000000000003         -2.5455136299133301     
  0.16820000000000002         -2.4585275650024414     
  0.16930000000000001         -1.9802340269088745     
  0.17040000000000000         -1.5444478988647461     
  0.17150000000000004         -1.5366201400756836     
  0.17260000000000003         -1.8886196613311768     
  0.17370000000000002         -2.1514251232147217     
  0.17480000000000001         -1.9689493179321289     
  0.17590000000000000         -1.4529219865798950     
  0.17700000000000005         -1.0672781467437744     
  0.17810000000000004         -1.1423068046569824     
  0.17920000000000003         -1.5320549011230469     
  0.18030000000000002         -1.7674752473831177     
  0.18140000000000001         -1.5474191904067993     
  0.18250000000000000         -1.0489368438720703     
  0.18360000000000004        -0.73649942874908447     
  0.18470000000000003        -0.87463879585266113     
  0.18580000000000002         -1.2541568279266357     
  0.18690000000000001         -1.4148664474487305     
  0.18800000000000000         -1.1275368928909302     
  0.18910000000000005        -0.63031888008117676     
  0.19020000000000004        -0.37453213334083557     
  0.19130000000000003        -0.55480432510375977     
  0.19240000000000002        -0.91078782081604004     
  0.19350000000000001         -1.0056526660919189     
  0.19460000000000005        -0.68176424503326416     
  0.19570000000000004        -0.21816918253898621     
  0.19680000000000003         -3.0040273442864418E-002
  0.19790000000000002        -0.23354326188564301     
  0.19900000000000001        -0.53014111518859863     
  0.20010000000000000        -0.52646684646606445     
  0.20120000000000005        -0.14845392107963562     
  0.20230000000000004         0.28326246142387390     
  0.20340000000000003         0.38977459073066711     
  0.20450000000000002         0.12531711161136627     
  0.20560000000000000        -0.18443214893341064     
  0.20670000000000005        -0.18984419107437134     
  0.20780000000000004         0.12019269168376923     
  0.20890000000000003         0.41381254792213440     
