 -0.12000000000000000          0.0000000000000000
 -0.11889999999999999          0.0000000000000000
 -0.11780000000000000          0.0000000000000000
 -0.11670000000000000          0.0000000000000000
 -0.11559999999999999          0.0000000000000000
 -0.11449999999999999          0.0000000000000000
 -0.11340000000000000          0.0000000000000000
 -0.11230000000000000          0.0000000000000000
 -0.11119999999999999          0.0000000000000000
 -0.11009999999999999          0.0000000000000000
 -0.10900000000000000          0.0000000000000000
 -0.10790000000000000          2.2713021464893379E-028
 -0.10679999999999999         -2.5310441328865807E-028
 -0.10569999999999999         -1.3096223473476096E-026
 -0.10460000000000000         -4.0224929677641054E-026
 -0.10349999999999999          1.5110073506494169E-025
 -0.10239999999999999          1.3002878117229117E-024
 -0.10130000000000000          2.7971441810240215E-024
 -0.10020000000000000         -4.5196247285872690E-024
  -9.9099999999999994E-002    -4.0948403282934880E-023
  -9.7999999999999990E-002    -9.2735408304808165E-023
  -9.6899999999999986E-002     1.0419483095438102E-023
  -9.5799999999999996E-002     6.1455950074866012E-022
  -9.4699999999999993E-002     1.6327483043256232E-021
  -9.3599999999999989E-002     1.1061074903033642E-021
  -9.2499999999999999E-002    -5.1194535267301496E-021
  -9.1399999999999995E-002    -1.7869944664501049E-020
  -9.0299999999999991E-002    -2.1710350378128689E-020
  -8.9200000000000002E-002     2.0531312659272319E-020
  -8.8099999999999984E-002     1.3142706983927943E-019
  -8.6999999999999994E-002     2.2635231360781886E-019
  -8.5899999999999990E-002     5.0812528881699016E-020
  -8.4799999999999986E-002    -6.4463291490326736E-019
  -8.3699999999999997E-002    -1.5689687855327921E-018
  -8.2599999999999993E-002    -1.3807079581872811E-018
  -8.1499999999999989E-002     1.7412764007894522E-018
  -8.0399999999999999E-002     7.5973801295168041E-018
  -7.9299999999999995E-002     1.0832732486576074E-017
  -7.8199999999999992E-002     1.6762459425723708E-018
  -7.7100000000000002E-002    -2.4745974909805778E-017
  -7.5999999999999984E-002    -5.3324932724614876E-017
  -7.4899999999999994E-002    -4.4175140553308565E-017
  -7.3799999999999991E-002     4.0709065189531717E-017
  -7.2699999999999987E-002     1.7956305711892096E-016
  -7.1599999999999997E-002     2.4876187696600406E-016
  -7.0499999999999993E-002     7.4948678016392299E-017
  -6.9399999999999989E-002    -3.8718371003872620E-016
  -6.8300000000000000E-002    -8.6081036165786516E-016
  -6.7199999999999996E-002    -7.7811850548436807E-016
  -6.6099999999999992E-002     2.8801417783515639E-016
  -6.5000000000000002E-002     1.9759734941896456E-015
  -6.3899999999999985E-002     2.8928345670661696E-015
  -6.2799999999999995E-002     1.4115141262711689E-015
  -6.1699999999999991E-002    -2.6351457569294932E-015
  -6.0599999999999994E-002    -6.7093195995975800E-015
  -5.9499999999999990E-002    -6.5628756498303104E-015
  -5.8399999999999994E-002     1.5596184723732937E-016
  -5.7299999999999990E-002     1.0160641317029373E-014
  -5.6199999999999986E-002     1.4898188070580978E-014
  -5.5099999999999996E-002     7.1103757240788615E-015
  -5.3999999999999992E-002    -1.0374505277749822E-014
  -5.2899999999999989E-002    -2.2613914525139965E-014
  -5.1799999999999985E-002    -1.3612040537975840E-014
  -5.0699999999999995E-002     1.5095163888399071E-014
  -4.9599999999999991E-002     3.6281971893016574E-014
  -4.8499999999999988E-002     1.5530967421959092E-014
  -4.7399999999999998E-002    -4.9635093940774561E-014
  -4.6299999999999994E-002    -1.0451416208173692E-013
  -4.5199999999999990E-002    -6.5116572615757373E-014
  -4.4099999999999986E-002     1.0010942812568868E-013
  -4.2999999999999997E-002     2.9603907216249614E-013
  -4.1899999999999993E-002     3.2325281774242542E-013
  -4.0799999999999989E-002     2.9608395813243704E-014
  -3.9699999999999985E-002    -4.9955748088539864E-013
  -3.8599999999999995E-002    -8.9254320080611738E-013
  -3.7499999999999992E-002    -7.0644141578202202E-013
  -3.6399999999999988E-002     1.8347286580636113E-013
  -3.5299999999999984E-002     1.3258207465921545E-012
  -3.4199999999999994E-002     1.8703549993503987E-012
  -3.3099999999999991E-002     1.1775563163451963E-012
  -3.1999999999999987E-002    -5.6090760291657715E-013
  -3.0899999999999997E-002    -2.2642066173361730E-012
  -2.9799999999999993E-002    -2.6812974583678706E-012
  -2.8699999999999989E-002    -1.4207324552928391E-012
  -2.7599999999999986E-002     5.9991952811727645E-013
  -2.6499999999999996E-002     1.8428771963313606E-012
  -2.5399999999999992E-002     1.5514703237407002E-012
  -2.4299999999999988E-002     6.0762018246757199E-013
  -2.3199999999999985E-002     8.0393287513191858E-013
  -2.2099999999999995E-002     2.8455191761894705E-012
  -2.0999999999999991E-002     4.8521200078643911E-012
  -1.9899999999999987E-002     3.2193954533493718E-012
  -1.8799999999999983E-002    -4.1086630625519760E-012
  -1.7699999999999994E-002    -1.4383215105051583E-011
  -1.6599999999999990E-002    -2.0123833155416548E-011
  -1.5499999999999986E-002    -1.3769436112143207E-011
  -1.4399999999999996E-002     5.7429954888887913E-012
  -1.3299999999999992E-002     2.9681913177315167E-011
  -1.2199999999999989E-002     4.3236358937548403E-011
  -1.1099999999999985E-002     3.4863653630701208E-011
  -9.9999999999999950E-003     4.9560633375023144E-012
  -8.8999999999999913E-003    -3.2899852980827760E-011
  -7.7999999999999875E-003    -5.9666223350962611E-011
  -6.6999999999999837E-003    -6.2259156163868568E-011
  -5.5999999999999939E-003    -4.0311802507186911E-011
  -4.4999999999999901E-003    -3.8280945253987841E-012
  -3.3999999999999864E-003     3.5097726808208662E-011
  -2.2999999999999826E-003     6.8536142039388182E-011
  -1.1999999999999927E-003     9.1589964779092981E-011
  -9.9999999999988987E-005     9.6458480092209697E-011
   1.0000000000000148E-003     7.0249799033472726E-011
   2.1000000000000185E-003     2.8439039317929016E-012
   3.2000000000000084E-003    -9.8472077714184536E-011
   4.3000000000000121E-003    -1.9975672505001540E-010
   5.4000000000000159E-003    -2.4832197409452306E-010
   6.5000000000000058E-003    -1.9849472066013618E-010
   7.6000000000000234E-003    -4.1906797476620739E-011
   8.7000000000000133E-003     1.7707171839909108E-010
   9.8000000000000032E-003     3.7299097144227744E-010
   1.0900000000000021E-002     4.5460124553642345E-010
   1.2000000000000011E-002     3.6668221237157184E-010
   1.3100000000000001E-002     1.1816531086950022E-010
   1.4200000000000018E-002    -2.1605657540835210E-010
   1.5300000000000008E-002    -5.1986237536993940E-010
   1.6400000000000026E-002    -6.7714683860131686E-010
   1.7500000000000016E-002    -6.1454080713119197E-010
   1.8600000000000005E-002    -3.3061076099016873E-010
   1.9700000000000023E-002     9.9191030389356172E-011
   2.0800000000000013E-002     5.4442561570056114E-010
   2.1900000000000003E-002     8.6086376915872620E-010
   2.3000000000000020E-002     9.3590368788198930E-010
   2.4100000000000010E-002     7.2304451315119422E-010
   2.5200000000000000E-002     2.5750065968388469E-010
   2.6300000000000018E-002    -3.4682953731213217E-010
   2.7400000000000008E-002    -9.1696028547971764E-010
   2.8500000000000025E-002    -1.2589091991088708E-009
   2.9600000000000015E-002    -1.2166635476873466E-009
   3.0700000000000005E-002    -7.4234440816667302E-010
   3.1800000000000023E-002     5.2425314089887820E-011
   3.2900000000000013E-002     9.0354701498540635E-010
   3.4000000000000002E-002     1.4799729219916458E-009
   3.5100000000000020E-002     1.5223451388379772E-009
   3.6200000000000010E-002     9.6747732047930413E-010
   3.7300000000000028E-002    -1.1277617728566725E-011
   3.8400000000000017E-002    -1.0716290077539270E-009
   3.9500000000000007E-002    -1.8371544285855634E-009
   4.0600000000000025E-002    -2.0243129394970083E-009
   4.1700000000000015E-002    -1.5087495697230224E-009
   4.2800000000000005E-002    -3.3432917545539453E-010
   4.3900000000000022E-002     1.2935127413626901E-009
   4.5000000000000012E-002     3.0038838083612518E-009
   4.6100000000000002E-002     4.2717127612945660E-009
   4.7200000000000020E-002     4.5020134287199198E-009
   4.8300000000000010E-002     3.2137770222817608E-009
   4.9400000000000027E-002     2.7008673075812339E-010
   5.0500000000000017E-002    -3.9622536363026484E-009
   5.1600000000000007E-002    -8.6254487996484386E-009
   5.2700000000000025E-002    -1.2564473017562250E-008
   5.3800000000000014E-002    -1.4604102815951592E-008
   5.4900000000000004E-002    -1.3769921203277136E-008
   5.6000000000000022E-002    -9.3637337883478722E-009
   5.7100000000000012E-002    -9.0069640634737880E-010
   5.8200000000000002E-002     1.2014373496072039E-008
   5.9300000000000019E-002     2.9793687517098988E-008
   6.0400000000000009E-002     5.2931675043055293E-008
   6.1500000000000027E-002     8.2060545025797182E-008
   6.2600000000000017E-002     1.1804807797943795E-007
   6.3700000000000007E-002     1.6216799281210115E-007
   6.4800000000000024E-002     2.1632918389968836E-007
   6.5900000000000014E-002     2.8330552481747873E-007
   6.7000000000000004E-002     3.6687882243313652E-007
   6.8100000000000022E-002     4.7181987383737578E-007
   6.9200000000000012E-002     6.0370280152710620E-007
   7.0300000000000029E-002     7.6866882636750233E-007
   7.1400000000000019E-002     9.7335419013688806E-007
   7.2500000000000009E-002     1.2251869065948995E-006
   7.3600000000000027E-002     1.5330892892961856E-006
   7.4700000000000016E-002     1.9083827282884158E-006
   7.5800000000000006E-002     2.3655447876080871E-006
   7.6900000000000024E-002     2.9225532216514694E-006
   7.8000000000000014E-002     3.6008495953865349E-006
   7.9100000000000004E-002     4.4252433326619212E-006
   8.0200000000000021E-002     5.4241613725025672E-006
   8.1300000000000011E-002     6.6304287429375108E-006
   8.2400000000000029E-002     8.0824065662454814E-006
   8.3500000000000019E-002     9.8251257441006601E-006
   8.4600000000000009E-002     1.1911144611076452E-005
   8.5700000000000026E-002     1.4401174667000305E-005
   8.6800000000000016E-002     1.7364734958391637E-005
   8.7900000000000006E-002     2.0881179807474837E-005
   8.9000000000000024E-002     2.5041088520083576E-005
   9.0100000000000013E-002     2.9947870643809438E-005
   9.1200000000000003E-002     3.5719240258913487E-005
   9.2300000000000021E-002     4.2488456529099494E-005
   9.3400000000000011E-002     5.0405331421643496E-005
   9.4500000000000028E-002     5.9637201047735289E-005
   9.5600000000000018E-002     7.0370027970056981E-005
   9.6700000000000008E-002     8.2809681771323085E-005
   9.7800000000000026E-002     9.7183357866015285E-005
   9.8900000000000016E-002     1.1374095629435033E-004
  0.10000000000000001          1.3275635137688369E-004
  0.10110000000000002          1.5452819934580475E-004
  0.10220000000000001          1.7938014934770763E-004
  0.10330000000000003          2.0766031229868531E-004
  0.10440000000000002          2.3974043142516166E-004
  0.10550000000000001          2.7601493638940156E-004
  0.10660000000000003          3.1689996831119061E-004
  0.10770000000000002          3.6283172084949911E-004
  0.10880000000000001          4.1426409734413028E-004
  0.10990000000000003          4.7166500007733703E-004
  0.11100000000000002          5.3551181918010116E-004
  0.11210000000000001          6.0628604842349887E-004
  0.11320000000000002          6.8446743534877896E-004
  0.11430000000000001          7.7052746200934052E-004
  0.11540000000000003          8.6492247646674514E-004
  0.11650000000000002          9.6808490343391895E-004
  0.11760000000000001          1.0804136982187629E-003
  0.11870000000000003          1.2022628216072917E-003
  0.11980000000000002          1.3339304132387042E-003
  0.12090000000000001          1.4756465097889304E-003
  0.12200000000000003          1.6275605885311961E-003
  0.12310000000000001          1.7897291108965874E-003
  0.12420000000000003          1.9621027167886496E-003
  0.12530000000000002          2.1445134188979864E-003
  0.12640000000000001          2.3366624955087900E-003
  0.12750000000000003          2.5381082668900490E-003
  0.12860000000000002          2.7482544537633657E-003
  0.12970000000000001          2.9663401655852795E-003
  0.13080000000000003          3.1914298888295889E-003
  0.13190000000000002          3.4224069677293301E-003
  0.13300000000000001          3.6579684820026159E-003
  0.13410000000000000          3.8966243155300617E-003
  0.13520000000000004          4.1366973891854286E-003
  0.13630000000000003          4.3763308785855770E-003
  0.13740000000000002          4.6134907752275467E-003
  0.13850000000000001          4.8459800891578197E-003
  0.13960000000000000          5.0714500248432159E-003
  0.14070000000000005          5.2874172106385231E-003
  0.14180000000000004          5.4912846535444260E-003
  0.14290000000000003          5.6803673505783081E-003
  0.14400000000000002          5.8519192971289158E-003
  0.14510000000000001          6.0031712055206299E-003
  0.14620000000000000          6.1313612386584282E-003
  0.14730000000000004          6.2337787821888924E-003
  0.14840000000000003          6.3077975064516068E-003
  0.14950000000000002          6.3509140163660049E-003
  0.15060000000000001          6.3607878983020782E-003
  0.15170000000000000          6.3352892175316811E-003
  0.15280000000000005          6.2725399620831013E-003
  0.15390000000000004          6.1709545552730560E-003
  0.15500000000000003          6.0292738489806652E-003
  0.15610000000000002          5.8465944603085518E-003
  0.15720000000000001          5.6224022991955280E-003
  0.15830000000000000          5.3565986454486847E-003
  0.15940000000000004          5.0495211035013199E-003
  0.16050000000000003          4.7019580379128456E-003
  0.16160000000000002          4.3151546269655228E-003
  0.16270000000000001          3.8908114656805992E-003
  0.16380000000000000          3.4310782793909311E-003
  0.16490000000000005          2.9385439120233059E-003
  0.16600000000000004          2.4162156041711569E-003
  0.16710000000000003          1.8674877937883139E-003
  0.16820000000000002          1.2961050961166620E-003
  0.16930000000000001          7.0611940464004874E-004
  0.17040000000000000          1.0184394341195002E-004
  0.17150000000000004         -5.1219528540968895E-004
  0.17260000000000003         -1.1313144350424409E-003
  0.17370000000000002         -1.7507326556369662E-003
  0.17480000000000001         -2.3656382691115141E-003
  0.17590000000000000         -2.9712526593357325E-003
  0.17700000000000005         -3.5628909245133400E-003
  0.17810000000000004         -4.1360198520123959E-003
  0.17920000000000003         -4.6863136813044548E-003
  0.18030000000000002         -5.2097137086093426E-003
  0.18140000000000001         -5.7024792768061161E-003
  0.18250000000000000         -6.1612343415617943E-003
  0.18360000000000004         -6.5830061212182045E-003
  0.18470000000000003         -6.9652544334530830E-003
  0.18580000000000002         -7.3058945126831532E-003
  0.18690000000000001         -7.6033179648220539E-003
  0.18800000000000000         -7.8564053401350975E-003
  0.18910000000000005         -8.0645224079489708E-003
  0.19020000000000004         -8.2275150343775749E-003
  0.19130000000000003         -8.3456886932253838E-003
  0.19240000000000002         -8.4197903051972389E-003
  0.19350000000000001         -8.4509784355759621E-003
  0.19460000000000005         -8.4407990798354149E-003
  0.19570000000000004         -8.3911428228020668E-003
  0.19680000000000003         -8.3042010664939880E-003
  0.19790000000000002         -8.1824241206049919E-003
  0.19900000000000001         -8.0284634605050087E-003
  0.20010000000000000         -7.8451344743371010E-003
  0.20120000000000005         -7.6353684999048710E-003
  0.20230000000000004         -7.4021639302372932E-003
  0.20340000000000003         -7.1485401131212711E-003
  0.20450000000000002         -6.8774903193116188E-003
  0.20560000000000000         -6.5919454209506512E-003
  0.20670000000000005         -6.2947394326329231E-003
  0.20780000000000004         -5.9885852970182896E-003
  0.20890000000000003         -5.6760474108159542E-003
