 -0.12000000000000000          0.0000000000000000
 -0.11889999999999999          0.0000000000000000
 -0.11780000000000000          0.0000000000000000
 -0.11670000000000000         -1.7426069268133837E-012
 -0.11559999999999999         -3.0767558639732684E-012
 -0.11449999999999999          1.7930163647220110E-012
 -0.11340000000000000         -2.3394313829888658E-012
 -0.11230000000000000         -6.2024871350097044E-011
 -0.11119999999999999         -1.8189411088442853E-010
 -0.11009999999999999         -2.1507795544550845E-010
 -0.10900000000000000          7.5649833619628737E-011
 -0.10790000000000000          6.7871758213655653E-010
 -0.10679999999999999          1.0274627815221038E-009
 -0.10569999999999999          2.9057023454015507E-010
 -0.10460000000000000         -1.6550151249461464E-009
 -0.10349999999999999         -3.4579301644299676E-009
 -0.10239999999999999         -2.9432802861606433E-009
 -0.10130000000000000          7.9153195109427088E-010
 -0.10020000000000000          5.6653073343682081E-009
  -9.9099999999999994E-002     7.5087420725594711E-009
  -9.7999999999999990E-002     3.5892222527422746E-009
  -9.6899999999999986E-002    -4.2618131246285884E-009
  -9.5799999999999996E-002    -1.0423996776864897E-008
  -9.4699999999999993E-002    -1.0226011148972702E-008
  -9.3599999999999989E-002    -4.3309462682827871E-009
  -9.2499999999999999E-002     1.9630881364918196E-009
  -9.1399999999999995E-002     4.3192849297213343E-009
  -9.0299999999999991E-002     4.0367043041555917E-009
  -8.9200000000000002E-002     6.1163287767840302E-009
  -8.8099999999999984E-002     1.1950317180264847E-008
  -8.6999999999999994E-002     1.4768383849173006E-008
  -8.5899999999999990E-002     4.6446309021064280E-009
  -8.4799999999999986E-002    -1.9937616002607683E-008
  -8.3699999999999997E-002    -4.5625395017623305E-008
  -8.2599999999999993E-002    -5.1769823983249807E-008
  -8.1499999999999989E-002    -2.7625048915069783E-008
  -8.0399999999999999E-002     1.6303390637517623E-008
  -7.9299999999999995E-002     5.4569952112615283E-008
  -7.8199999999999992E-002     6.6078072791242448E-008
  -7.7100000000000002E-002     4.8473072666865846E-008
  -7.5999999999999984E-002     1.4199884823540287E-008
  -7.4899999999999994E-002    -2.6570116773427799E-008
  -7.3799999999999991E-002    -7.7269866949336574E-008
  -7.2699999999999987E-002    -1.4819234195329045E-007
  -7.1599999999999997E-002    -2.4006942567211809E-007
  -7.0499999999999993E-002    -3.3880235150718363E-007
  -6.9399999999999989E-002    -4.3114397385579650E-007
  -6.8300000000000000E-002    -5.2681184570246842E-007
  -6.7199999999999996E-002    -6.6159100242657587E-007
  -6.6099999999999992E-002    -8.7315197561110836E-007
  -6.5000000000000002E-002    -1.1710174021573039E-006
  -6.3899999999999985E-002    -1.5324695823437651E-006
  -6.2799999999999995E-002    -1.9328695088915993E-006
  -6.1699999999999991E-002    -2.3832724309613695E-006
  -6.0599999999999994E-002    -2.9378024919424206E-006
  -5.9499999999999990E-002    -3.6619078400690341E-006
  -5.8399999999999994E-002    -4.5930778469482902E-006
  -5.7299999999999990E-002    -5.7352795010956470E-006
  -5.6199999999999986E-002    -7.0945293373370077E-006
  -5.5099999999999996E-002    -8.7191419879673049E-006
  -5.3999999999999992E-002    -1.0701216524466872E-005
  -5.2899999999999989E-002    -1.3136131201463286E-005
  -5.1799999999999985E-002    -1.6083718946902081E-005
  -5.0699999999999995E-002    -1.9577521015889943E-005
  -4.9599999999999991E-002    -2.3680415324633941E-005
  -4.8499999999999988E-002    -2.8534275770653039E-005
  -4.7399999999999998E-002    -3.4353044611634687E-005
  -4.6299999999999994E-002    -4.1364495700690895E-005
  -4.5199999999999990E-002    -4.9759895773604512E-005
  -4.4099999999999986E-002    -5.9705023886635900E-005
  -4.2999999999999997E-002    -7.1403279434889555E-005
  -4.1899999999999993E-002    -8.5146821220405400E-005
  -4.0799999999999989E-002    -1.0130353621207178E-004
  -3.9699999999999985E-002    -1.2025678734062240E-004
  -3.8599999999999995E-002    -1.4236840070225298E-004
  -3.7499999999999992E-002    -1.6801351739559323E-004
  -3.6399999999999988E-002    -1.9765910110436380E-004
  -3.5299999999999984E-002    -2.3190569481812418E-004
  -3.4199999999999994E-002    -2.7144502382725477E-004
  -3.3099999999999991E-002    -3.1697316444478929E-004
  -3.1999999999999987E-002    -3.6915071541443467E-004
  -3.0899999999999997E-002    -4.2865745490416884E-004
  -2.9799999999999993E-002    -4.9629184650257230E-004
  -2.8699999999999989E-002    -5.7301466586068273E-004
  -2.7599999999999986E-002    -6.5988948335871100E-004
  -2.6499999999999996E-002    -7.5797707540914416E-004
  -2.5399999999999992E-002    -8.6829066276550293E-004
  -2.4299999999999988E-002    -9.9185423459857702E-004
  -2.3199999999999985E-002    -1.1297981254756451E-003
  -2.2099999999999995E-002    -1.2833833461627364E-003
  -2.0999999999999991E-002    -1.4539170078933239E-003
  -1.9899999999999987E-002    -1.6426366055384278E-003
  -1.8799999999999983E-002    -1.8506773049011827E-003
  -1.7699999999999994E-002    -2.0791436545550823E-003
  -1.6599999999999990E-002    -2.3291965480893850E-003
  -1.5499999999999986E-002    -2.6020407676696777E-003
  -1.4399999999999996E-002    -2.8987964615225792E-003
  -1.3299999999999992E-002    -3.2203663140535355E-003
  -1.2199999999999989E-002    -3.5674136597663164E-003
  -1.1099999999999985E-002    -3.9404626004397869E-003
  -9.9999999999999950E-003    -4.3399850837886333E-003
  -8.8999999999999913E-003    -4.7663631848990917E-003
  -7.7999999999999875E-003    -5.2197282202541828E-003
  -6.6999999999999837E-003    -5.6998175568878651E-003
  -5.5999999999999939E-003    -6.2059769406914711E-003
  -4.4999999999999901E-003    -6.7372829653322697E-003
  -3.3999999999999864E-003    -7.2926408611238003E-003
  -2.2999999999999826E-003    -7.8707337379455566E-003
  -1.1999999999999927E-003    -8.4698554128408432E-003
  -9.9999999999988987E-005    -9.0877963230013847E-003
   1.0000000000000148E-003    -9.7219040617346764E-003
   2.1000000000000185E-003    -1.0369253344833851E-002
   3.2000000000000084E-003    -1.1026773601770401E-002
   4.3000000000000121E-003    -1.1691191233694553E-002
   5.4000000000000159E-003    -1.2358870357275009E-002
   6.5000000000000058E-003    -1.3025748543441296E-002
   7.6000000000000234E-003    -1.3687454164028168E-002
   8.7000000000000133E-003    -1.4339559711515903E-002
   9.8000000000000032E-003    -1.4977734535932541E-002
   1.0900000000000021E-002    -1.5597707591950893E-002
   1.2000000000000011E-002    -1.6195133328437805E-002
   1.3100000000000001E-002    -1.6765551641583443E-002
   1.4200000000000018E-002    -1.7304569482803345E-002
   1.5300000000000008E-002    -1.7808130010962486E-002
   1.6400000000000026E-002    -1.8272666260600090E-002
   1.7500000000000016E-002    -1.8695056438446045E-002
   1.8600000000000005E-002    -1.9072460010647774E-002
   1.9700000000000023E-002    -1.9402287900447845E-002
   2.0800000000000013E-002    -1.9682388752698898E-002
   2.1900000000000003E-002    -1.9911292940378189E-002
   2.3000000000000020E-002    -2.0088292658329010E-002
   2.4100000000000010E-002    -2.0213296636939049E-002
   2.5200000000000000E-002    -2.0286614075303078E-002
   2.6300000000000018E-002    -2.0308891311287880E-002
   2.7400000000000008E-002    -2.0281229168176651E-002
   2.8500000000000025E-002    -2.0205341279506683E-002
   2.9600000000000015E-002    -2.0083509385585785E-002
   3.0700000000000005E-002    -1.9918320700526237E-002
   3.1800000000000023E-002    -1.9712373614311218E-002
   3.2900000000000013E-002    -1.9468178972601891E-002
   3.4000000000000002E-002    -1.9188232719898224E-002
   3.5100000000000020E-002    -1.8875088542699814E-002
   3.6200000000000010E-002    -1.8531214445829391E-002
   3.7300000000000028E-002    -1.8158672377467155E-002
   3.8400000000000017E-002    -1.7758820205926895E-002
   3.9500000000000007E-002    -1.7332255840301514E-002
   4.0600000000000025E-002    -1.6878951340913773E-002
   4.1700000000000015E-002    -1.6398336738348007E-002
   4.2800000000000005E-002    -1.5889175236225128E-002
   4.3900000000000022E-002    -1.5349280089139938E-002
   4.5000000000000012E-002    -1.4775356277823448E-002
   4.6100000000000002E-002    -1.4163107611238956E-002
   4.7200000000000020E-002    -1.3507530093193054E-002
   4.8300000000000010E-002    -1.2803141959011555E-002
   4.9400000000000027E-002    -1.2043962255120277E-002
   5.0500000000000017E-002    -1.1223397217690945E-002
   5.1600000000000007E-002    -1.0334256105124950E-002
   5.2700000000000025E-002    -9.3690492212772369E-003
   5.3800000000000014E-002    -8.3204582333564758E-003
   5.4900000000000004E-002    -7.1816793642938137E-003
   5.6000000000000022E-002    -5.9465095400810242E-003
   5.7100000000000012E-002    -4.6093203127384186E-003
   5.8200000000000002E-002    -3.1651654280722141E-003
   5.9300000000000019E-002    -1.6101569635793567E-003
   6.0400000000000009E-002     5.8052613894687966E-005
   6.1500000000000027E-002     1.8399599939584732E-003
   6.2600000000000017E-002     3.7341914139688015E-003
   6.3700000000000007E-002     5.7376120239496231E-003
   6.4800000000000024E-002     7.8453188762068748E-003
   6.5900000000000014E-002     1.0050406679511070E-002
   6.7000000000000004E-002     1.2343701906502247E-002
   6.8100000000000022E-002     1.4713703654706478E-002
   6.9200000000000012E-002     1.7146801576018333E-002
   7.0300000000000029E-002     1.9627597182989120E-002
   7.1400000000000019E-002     2.2139115259051323E-002
   7.2500000000000009E-002     2.4662820622324944E-002
   7.3600000000000027E-002     2.7178665623068810E-002
   7.4700000000000016E-002     2.9665337875485420E-002
   7.5800000000000006E-002     3.2100718468427658E-002
   7.6900000000000024E-002     3.4462388604879379E-002
   7.8000000000000014E-002     3.6727953702211380E-002
   7.9100000000000004E-002     3.8875233381986618E-002
   8.0200000000000021E-002     4.0882457047700882E-002
   8.1300000000000011E-002     4.2728673666715622E-002
   8.2400000000000029E-002     4.4394258409738541E-002
   8.3500000000000019E-002     4.5861374586820602E-002
   8.4600000000000009E-002     4.7114185988903046E-002
   8.5700000000000026E-002     4.8138927668333054E-002
   8.6800000000000016E-002     4.8924036324024200E-002
   8.7900000000000006E-002     4.9460459500551224E-002
   8.9000000000000024E-002     4.9741983413696289E-002
   9.0100000000000013E-002     4.9765426665544510E-002
   9.1200000000000003E-002     4.9530550837516785E-002
   9.2300000000000021E-002     4.9039822071790695E-002
   9.3400000000000011E-002     4.8298280686140060E-002
   9.4500000000000028E-002     4.7313619405031204E-002
   9.5600000000000018E-002     4.6096261590719223E-002
   9.6700000000000008E-002     4.4659271836280823E-002
   9.7800000000000026E-002     4.3017927557229996E-002
   9.8900000000000016E-002     4.1189249604940414E-002
  0.10000000000000001          3.9191644638776779E-002
  0.10110000000000002          3.7044811993837357E-002
  0.10220000000000001          3.4769695252180099E-002
  0.10330000000000003          3.2388206571340561E-002
  0.10440000000000002          2.9922716319561005E-002
  0.10550000000000001          2.7395518496632576E-002
  0.10660000000000003          2.4828471243381500E-002
  0.10770000000000002          2.2242914885282516E-002
  0.10880000000000001          1.9659636542201042E-002
  0.10990000000000003          1.7098667100071907E-002
  0.11100000000000002          1.4578895643353462E-002
  0.11210000000000001          1.2117671780288219E-002
  0.11320000000000002          9.7306193783879280E-003
  0.11430000000000001          7.4316849932074547E-003
  0.11540000000000003          5.2332398481667042E-003
  0.11650000000000002          3.1460518948733807E-003
  0.11760000000000001          1.1791035067290068E-003
  0.11870000000000003         -6.6055840579792857E-004
  0.11980000000000002         -2.3677912540733814E-003
  0.12090000000000001         -3.9391601458191872E-003
  0.12200000000000003         -5.3727328777313232E-003
  0.12310000000000001         -6.6680102609097958E-003
  0.12420000000000003         -7.8259473666548729E-003
  0.12530000000000002         -8.8489167392253876E-003
  0.12640000000000001         -9.7405174747109413E-003
  0.12750000000000003         -1.0505304671823978E-002
  0.12860000000000002         -1.1148580349981785E-002
  0.12970000000000001         -1.1676338501274586E-002
  0.13080000000000003         -1.2095249257981777E-002
  0.13190000000000002         -1.2412551790475845E-002
  0.13300000000000001         -1.2635813094675541E-002
  0.13410000000000000         -1.2772664427757263E-002
  0.13520000000000004         -1.2830685824155807E-002
  0.13630000000000003         -1.2817436829209328E-002
  0.13740000000000002         -1.2740511447191238E-002
  0.13850000000000001         -1.2607445009052753E-002
  0.13960000000000000         -1.2425491586327553E-002
  0.14070000000000005         -1.2201426550745964E-002
  0.14180000000000004         -1.1941509321331978E-002
  0.14290000000000003         -1.1651620268821716E-002
  0.14400000000000002         -1.1337382718920708E-002
  0.14510000000000001         -1.1004123836755753E-002
  0.14620000000000000         -1.0656693950295448E-002
  0.14730000000000004         -1.0299321264028549E-002
  0.14840000000000003         -9.9356463178992271E-003
  0.14950000000000002         -9.5689045265316963E-003
  0.15060000000000001         -9.2020891606807709E-003
  0.15170000000000000         -8.8379560038447380E-003
  0.15280000000000005         -8.4788817912340164E-003
  0.15390000000000004         -8.1267589703202248E-003
  0.15500000000000003         -7.7830310910940170E-003
  0.15610000000000002         -7.4488562531769276E-003
  0.15720000000000001         -7.1252523921430111E-003
  0.15830000000000000         -6.8131084553897381E-003
  0.15940000000000004         -6.5130908042192459E-003
  0.16050000000000003         -6.2255770899355412E-003
  0.16160000000000002         -5.9506958350539207E-003
  0.16270000000000001         -5.6884409859776497E-003
  0.16380000000000000         -5.4387650452554226E-003
  0.16490000000000005         -5.2015725523233414E-003
  0.16600000000000004         -4.9766688607633114E-003
  0.16710000000000003         -4.7637298703193665E-003
  0.16820000000000002         -4.5623476617038250E-003
  0.16930000000000001         -4.3720891699194908E-003
  0.17040000000000000         -4.1925217956304550E-003
  0.17150000000000004         -4.0231822058558464E-003
  0.17260000000000003         -3.8635525852441788E-003
  0.17370000000000002         -3.7130853161215782E-003
  0.17480000000000001         -3.5712574608623981E-003
  0.17590000000000000         -3.4375996328890324E-003
  0.17700000000000005         -3.3116661943495274E-003
  0.17810000000000004         -3.1929803080856800E-003
  0.17920000000000003         -3.0810269527137280E-003
  0.18030000000000002         -2.9753104317933321E-003
  0.18140000000000001         -2.8754202648997307E-003
  0.18250000000000000         -2.7810374740511179E-003
  0.18360000000000004         -2.6918661314994097E-003
  0.18470000000000003         -2.6075618807226419E-003
  0.18580000000000002         -2.5277303066104650E-003
  0.18690000000000001         -2.4519949220120907E-003
  0.18800000000000000         -2.3800672497600317E-003
  0.18910000000000005         -2.3117400705814362E-003
  0.19020000000000004         -2.2468173410743475E-003
  0.19130000000000003         -2.1850513294339180E-003
  0.19240000000000002         -2.1261509973555803E-003
  0.19350000000000001         -2.0698504522442818E-003
  0.19460000000000005         -2.0159590058028698E-003
  0.19570000000000004         -1.9643451087176800E-003
  0.19680000000000003         -1.9148720894008875E-003
  0.19790000000000002         -1.8673546146601439E-003
  0.19900000000000001         -1.8215771997347474E-003
  0.20010000000000000         -1.7773457802832127E-003
  0.20120000000000005         -1.7345135565847158E-003
  0.20230000000000004         -1.6929558478295803E-003
  0.20340000000000003         -1.6525345854461193E-003
  0.20450000000000002         -1.6130984295159578E-003
  0.20560000000000000         -1.5745229320600629E-003
  0.20670000000000005         -1.5367418527603149E-003
  0.20780000000000004         -1.4997301623225212E-003
  0.20890000000000003         -1.4634554972872138E-003
