 -0.12000000000000000          0.0000000000000000
 -0.11889999999999999          0.0000000000000000
 -0.11780000000000000          0.0000000000000000
 -0.11670000000000000          0.0000000000000000
 -0.11559999999999999          0.0000000000000000
 -0.11449999999999999          0.0000000000000000
 -0.11340000000000000          0.0000000000000000
 -0.11230000000000000         -5.5724961781489257E-026
 -0.11119999999999999         -7.0051547932854824E-019
 -0.11009999999999999         -4.9563285048457517E-018
 -0.10900000000000000         -1.0801438589641968E-017
 -0.10790000000000000          1.9451028027092563E-017
 -0.10679999999999999          1.7707816685414227E-016
 -0.10569999999999999          4.5634371195402341E-016
 -0.10460000000000000          3.3751023047060621E-016
 -0.10349999999999999         -1.3943568386498226E-015
 -0.10239999999999999         -5.3090974813044950E-015
 -0.10130000000000000         -7.9867177053740551E-015
 -0.10020000000000000         -8.8193917501065006E-017
  -9.9099999999999994E-002     2.6687666968916793E-014
  -9.7999999999999990E-002     6.0792306789698297E-014
  -9.6899999999999986E-002     5.5600150677091731E-014
  -9.5799999999999996E-002    -4.8361136059313359E-014
  -9.4699999999999993E-002    -2.4531681482205248E-013
  -9.3599999999999989E-002    -3.8010347365273478E-013
  -9.2499999999999999E-002    -1.8131898977050143E-013
  -9.1399999999999995E-002     4.9725913491005524E-013
  -9.0299999999999991E-002     1.3401431657109053E-012
  -8.9200000000000002E-002     1.5009224332146465E-012
  -8.8099999999999984E-002     1.4474023108529410E-013
  -8.6999999999999994E-002    -2.5503345095490015E-012
  -8.5899999999999990E-002    -4.7917702791777650E-012
  -8.4799999999999986E-002    -3.9843688244556308E-012
  -8.3699999999999997E-002     1.0214275172198972E-012
  -8.2599999999999993E-002     7.8916517418092802E-012
  -8.1499999999999989E-002     1.1359403868926865E-011
  -8.0399999999999999E-002     7.0989212772043508E-012
  -7.9299999999999995E-002    -3.7091102758624039E-012
  -7.8199999999999992E-002    -1.3751971783548811E-011
  -7.7100000000000002E-002    -1.5120408397573115E-011
  -7.5999999999999984E-002    -7.1552343043623789E-012
  -7.4899999999999994E-002     1.4806818965373836E-012
  -7.3799999999999991E-002     1.1140693402522661E-012
  -7.2699999999999987E-002    -6.1668556546046194E-012
  -7.1599999999999997E-002    -3.3749782482606072E-012
  -7.0499999999999993E-002     2.5861516053660161E-011
  -6.9399999999999989E-002     7.2509186155311767E-011
  -6.8300000000000000E-002     9.3549758217736922E-011
  -6.7199999999999996E-002     3.9113417366065661E-011
  -6.6099999999999992E-002    -9.6215396760968019E-011
  -6.5000000000000002E-002    -2.4150045851989432E-010
  -6.3899999999999985E-002    -2.7892926857120415E-010
  -6.2799999999999995E-002    -1.3036149937306618E-010
  -6.1699999999999991E-002     1.6145117187615909E-010
  -6.0599999999999994E-002     4.3348361011830150E-010
  -5.9499999999999990E-002     5.0459525446910902E-010
  -5.8399999999999994E-002     3.0942504114506164E-010
  -5.7299999999999990E-002    -4.7209298970063429E-011
  -5.6199999999999986E-002    -3.6953412552165332E-010
  -5.5099999999999996E-002    -5.2052701038363125E-010
  -5.3999999999999992E-002    -5.0784754179744596E-010
  -5.2899999999999989E-002    -4.2501652197657336E-010
  -5.1799999999999985E-002    -3.0872687739602611E-010
  -5.0699999999999995E-002    -7.0017457109994297E-011
  -4.9599999999999991E-002     4.0067860140879930E-010
  -4.8499999999999988E-002     1.0331827615672751E-009
  -4.7399999999999998E-002     1.4922162394626071E-009
  -4.6299999999999994E-002     1.3520524699828229E-009
  -4.5199999999999990E-002     4.4153120049017502E-010
  -4.4099999999999986E-002    -9.2595903167236315E-010
  -4.2999999999999997E-002    -2.0745865025872945E-009
  -4.1899999999999993E-002    -2.3926145509278740E-009
  -4.0799999999999989E-002    -1.7383720019026327E-009
  -3.9699999999999985E-002    -4.9713866356881908E-010
  -3.8599999999999995E-002     7.4297418217739164E-010
  -3.7499999999999992E-002     1.5953252052725020E-009
  -3.6399999999999988E-002     2.0066683870112456E-009
  -3.5299999999999984E-002     2.0511443654669392E-009
  -3.4199999999999994E-002     1.6686387827036242E-009
  -3.3099999999999991E-002     6.8448602341675269E-010
  -3.1999999999999987E-002    -8.6376295005408110E-010
  -3.0899999999999997E-002    -2.4397706077650128E-009
  -2.9799999999999993E-002    -3.1495637209388860E-009
  -2.8699999999999989E-002    -2.3234147938921978E-009
  -2.7599999999999986E-002    -1.0311584919264760E-010
  -2.6499999999999996E-002     2.4769410966740679E-009
  -2.5399999999999992E-002     4.0275964785507767E-009
  -2.4299999999999988E-002     3.5633724859707172E-009
  -2.3199999999999985E-002     9.4160346186811239E-010
  -2.2099999999999995E-002    -3.2119764625804237E-009
  -2.0999999999999991E-002    -7.8200557140917226E-009
  -1.9899999999999987E-002    -1.1530486787592054E-008
  -1.8799999999999983E-002    -1.2693861961565744E-008
  -1.7699999999999994E-002    -9.4389127625049696E-009
  -1.6599999999999990E-002    -8.4815487966238834E-011
  -1.5499999999999986E-002     1.6322655227440919E-008
  -1.4399999999999996E-002     3.9899337167526028E-008
  -1.3299999999999992E-002     7.0540778551730909E-008
  -1.2199999999999989E-002     1.0889166901506542E-007
  -1.1099999999999985E-002     1.5684548770877882E-007
  -9.9999999999999950E-003     2.1709840325456753E-007
  -8.8999999999999913E-003     2.9219762609500322E-007
  -7.7999999999999875E-003     3.8414171399381303E-007
  -6.6999999999999837E-003     4.9522037670612917E-007
  -5.5999999999999939E-003     6.2965744973553228E-007
  -4.4999999999999901E-003     7.9478269299215754E-007
  -3.3999999999999864E-003     1.0007510127252317E-006
  -2.2999999999999826E-003     1.2590782034749282E-006
  -1.1999999999999927E-003     1.5813311620149761E-006
  -9.9999999999988987E-005     1.9792089460679563E-006
   1.0000000000000148E-003     2.4660739654791541E-006
   2.1000000000000185E-003     3.0588448680646252E-006
   3.2000000000000084E-003     3.7790860005770810E-006
   4.3000000000000121E-003     4.6530954023182858E-006
   5.4000000000000159E-003     5.7117849792120978E-006
   6.5000000000000058E-003     6.9911843638692517E-006
   7.6000000000000234E-003     8.5335823314380832E-006
   8.7000000000000133E-003     1.0388615919509903E-005
   9.8000000000000032E-003     1.2613798389793374E-005
   1.0900000000000021E-002     1.5274836187018082E-005
   1.2000000000000011E-002     1.8446577087161131E-005
   1.3100000000000001E-002     2.2215010176296346E-005
   1.4200000000000018E-002     2.6679710572352633E-005
   1.5300000000000008E-002     3.1955634767655283E-005
   1.6400000000000026E-002     3.8173919165274128E-005
   1.7500000000000016E-002     4.5482374844141304E-005
   1.8600000000000005E-002     5.4046788136474788E-005
   1.9700000000000023E-002     6.4053310779854655E-005
   2.0800000000000013E-002     7.5710922828875482E-005
   2.1900000000000003E-002     8.9252906036563218E-005
   2.3000000000000020E-002     1.0493723675608635E-004
   2.4100000000000010E-002     1.2304702249821275E-004
   2.5200000000000000E-002     1.4389224816113710E-004
   2.6300000000000018E-002     1.6781274462118745E-004
   2.7400000000000008E-002     1.9518053159117699E-004
   2.8500000000000025E-002     2.2640009410679340E-004
   2.9600000000000015E-002     2.6190641801804304E-004
   3.0700000000000005E-002     3.0216251616366208E-004
   3.1800000000000023E-002     3.4765776945278049E-004
   3.2900000000000013E-002     3.9890807238407433E-004
   3.4000000000000002E-002     4.5645551290363073E-004
   3.5100000000000020E-002     5.2086636424064636E-004
   3.6200000000000010E-002     5.9272628277540207E-004
   3.7300000000000028E-002     6.7263393430039287E-004
   3.8400000000000017E-002     7.6119427103549242E-004
   3.9500000000000007E-002     8.5901113925501704E-004
   4.0600000000000025E-002     9.6667977049946785E-004
   4.1700000000000015E-002     1.0847770608961582E-003
   4.2800000000000005E-002     1.2138513848185539E-003
   4.3900000000000022E-002     1.3544107787311077E-003
   4.5000000000000012E-002     1.5069111250340939E-003
   4.6100000000000002E-002     1.6717443941161036E-003
   4.7200000000000020E-002     1.8492242088541389E-003
   4.8300000000000010E-002     2.0395689643919468E-003
   4.9400000000000027E-002     2.2428857628256083E-003
   5.0500000000000017E-002     2.4591535329818726E-003
   5.1600000000000007E-002     2.6882111560553312E-003
   5.2700000000000025E-002     2.9297424480319023E-003
   5.3800000000000014E-002     3.1832619570195675E-003
   5.4900000000000004E-002     3.4480979666113853E-003
   5.6000000000000022E-002     3.7233785260468721E-003
   5.7100000000000012E-002     4.0080226026475430E-003
   5.8200000000000002E-002     4.3007307685911655E-003
   5.9300000000000019E-002     4.5999852009117603E-003
   6.0400000000000009E-002     4.9040410667657852E-003
   6.1500000000000027E-002     5.2109295502305031E-003
   6.2600000000000017E-002     5.5184592492878437E-003
   6.3700000000000007E-002     5.8242268860340118E-003
   6.4800000000000024E-002     6.1256280168890953E-003
   6.5900000000000014E-002     6.4198747277259827E-003
   6.7000000000000004E-002     6.7040100693702698E-003
   6.8100000000000022E-002     6.9749346002936363E-003
   6.9200000000000012E-002     7.2294343262910843E-003
   7.0300000000000029E-002     7.4642198160290718E-003
   7.1400000000000019E-002     7.6759629882872105E-003
   7.2500000000000009E-002     7.8613385558128357E-003
   7.3600000000000027E-002     8.0170650035142899E-003
   7.4700000000000016E-002     8.1399455666542053E-003
   7.5800000000000006E-002     8.2269171252846718E-003
   7.6900000000000024E-002     8.2751074805855751E-003
   7.8000000000000014E-002     8.2818856462836266E-003
   7.9100000000000004E-002     8.2449065521359444E-003
   8.0200000000000021E-002     8.1621473655104637E-003
   8.1300000000000011E-002     8.0319512635469437E-003
   8.2400000000000029E-002     7.8530721366405487E-003
   8.3500000000000019E-002     7.6247146353125572E-003
   8.4600000000000009E-002     7.3465709574520588E-003
   8.5700000000000026E-002     7.0188390091061592E-003
   8.6800000000000016E-002     6.6422303207218647E-003
   8.7900000000000006E-002     6.2179700471460819E-003
   8.9000000000000024E-002     5.7478072121739388E-003
   9.0100000000000013E-002     5.2340142428874969E-003
   9.1200000000000003E-002     4.6793716028332710E-003
   9.2300000000000021E-002     4.0871319361031055E-003
   9.3400000000000011E-002     3.4609783906489611E-003
   9.4500000000000028E-002     2.8049799147993326E-003
   9.5600000000000018E-002     2.1235500462353230E-003
   9.6700000000000008E-002     1.4213966205716133E-003
   9.7800000000000026E-002     7.0345931453630328E-004
   9.8900000000000016E-002    -2.5169916625600308E-005
  0.10000000000000001         -7.5933191692456603E-004
  0.10110000000000002         -1.4938771491870284E-003
  0.10220000000000001         -2.2237335797399282E-003
  0.10330000000000003         -2.9439714271575212E-003
  0.10440000000000002         -3.6498785484582186E-003
  0.10550000000000001         -4.3370448984205723E-003
  0.10660000000000003         -5.0014383159577847E-003
  0.10770000000000002         -5.6394706480205059E-003
  0.10880000000000001         -6.2480396591126919E-003
  0.10990000000000003         -6.8245618604123592E-003
  0.11100000000000002         -7.3670125566422939E-003
  0.11210000000000001         -7.8739644959568977E-003
  0.11320000000000002         -8.3446195349097252E-003
  0.11430000000000001         -8.7788095697760582E-003
  0.11540000000000003         -9.1769732534885406E-003
  0.11650000000000002         -9.5401303842663765E-003
  0.11760000000000001         -9.8698418587446213E-003
  0.11870000000000003         -1.0168191976845264E-002
  0.11980000000000002         -1.0437743738293648E-002
  0.12090000000000001         -1.0681482963263988E-002
  0.12200000000000003         -1.0902726091444492E-002
  0.12310000000000001         -1.1105039156973362E-002
  0.12420000000000003         -1.1292145587503910E-002
  0.12530000000000002         -1.1467856355011463E-002
  0.12640000000000001         -1.1635989882051945E-002
  0.12750000000000003         -1.1800284497439861E-002
  0.12860000000000002         -1.1964281089603901E-002
  0.12970000000000001         -1.2131223455071449E-002
  0.13080000000000003         -1.2303967960178852E-002
  0.13190000000000002         -1.2484919279813766E-002
  0.13300000000000001         -1.2675973586738110E-002
  0.13410000000000000         -1.2878447771072388E-002
  0.13520000000000004         -1.3092998415231705E-002
  0.13630000000000003         -1.3319565914571285E-002
  0.13740000000000002         -1.3557341881096363E-002
  0.13850000000000001         -1.3804771937429905E-002
  0.13960000000000000         -1.4059560373425484E-002
  0.14070000000000005         -1.4318676665425301E-002
  0.14180000000000004         -1.4578359201550484E-002
  0.14290000000000003         -1.4834128320217133E-002
  0.14400000000000002         -1.5080846846103668E-002
  0.14510000000000001         -1.5312808565795422E-002
  0.14620000000000000         -1.5523832291364670E-002
  0.14730000000000004         -1.5707349404692650E-002
  0.14840000000000003         -1.5856487676501274E-002
  0.14950000000000002         -1.5964167192578316E-002
  0.15060000000000001         -1.6023231670260429E-002
  0.15170000000000000         -1.6026593744754791E-002
  0.15280000000000005         -1.5967382118105888E-002
  0.15390000000000004         -1.5839060768485069E-002
  0.15500000000000003         -1.5635555610060692E-002
  0.15610000000000002         -1.5351357869803905E-002
  0.15720000000000001         -1.4981660060584545E-002
  0.15830000000000000         -1.4522494748234749E-002
  0.15940000000000004         -1.3970848172903061E-002
  0.16050000000000003         -1.3324753381311893E-002
  0.16160000000000002         -1.2583352625370026E-002
  0.16270000000000001         -1.1746954172849655E-002
  0.16380000000000000         -1.0817072354257107E-002
  0.16490000000000005         -9.7964769229292870E-003
  0.16600000000000004         -8.6892070248723030E-003
  0.16710000000000003         -7.5005502440035343E-003
  0.16820000000000002         -6.2369899824261665E-003
  0.16930000000000001         -4.9061425961554050E-003
  0.17040000000000000         -3.5166840534657240E-003
  0.17150000000000004         -2.0782712381333113E-003
  0.17260000000000003         -6.0143158771097660E-004
  0.17370000000000002          9.0257218107581139E-004
  0.17480000000000001          2.4219008628278971E-003
  0.17590000000000000          3.9442987181246281E-003
  0.17700000000000005          5.4572490043938160E-003
  0.17810000000000004          6.9481353275477886E-003
  0.17920000000000003          8.4044151008129120E-003
  0.18030000000000002          9.8137976601719856E-003
  0.18140000000000001          1.1164424940943718E-002
  0.18250000000000000          1.2445029802620411E-002
  0.18360000000000004          1.3645083643496037E-002
  0.18470000000000003          1.4754931442439556E-002
  0.18580000000000002          1.5765920281410217E-002
  0.18690000000000001          1.6670523211359978E-002
  0.18800000000000000          1.7462421208620071E-002
  0.18910000000000005          1.8136585131287575E-002
  0.19020000000000004          1.8689312040805817E-002
  0.19130000000000003          1.9118251278996468E-002
  0.19240000000000002          1.9422419369220734E-002
  0.19350000000000001          1.9602188840508461E-002
  0.19460000000000005          1.9659258425235748E-002
  0.19570000000000004          1.9596584141254425E-002
  0.19680000000000003          1.9418315961956978E-002
  0.19790000000000002          1.9129693508148193E-002
  0.19900000000000001          1.8736956641077995E-002
  0.20010000000000000          1.8247233703732491E-002
  0.20120000000000005          1.7668424174189568E-002
  0.20230000000000004          1.7009047791361809E-002
  0.20340000000000003          1.6278112307190895E-002
  0.20450000000000002          1.5484980307519436E-002
  0.20560000000000000          1.4639239758253098E-002
  0.20670000000000005          1.3750567100942135E-002
  0.20780000000000004          1.2828593142330647E-002
  0.20890000000000003          1.1882772669196129E-002
