 -0.12000000000000000          0.0000000000000000     
 -0.11889999999999999          0.0000000000000000     
 -0.11780000000000000          0.0000000000000000     
 -0.11670000000000000          0.0000000000000000     
 -0.11559999999999999          0.0000000000000000     
 -0.11449999999999999          0.0000000000000000     
 -0.11340000000000000          0.0000000000000000     
 -0.11230000000000000          0.0000000000000000     
 -0.11119999999999999          0.0000000000000000     
 -0.11009999999999999          0.0000000000000000     
 -0.10900000000000000          0.0000000000000000     
 -0.10790000000000000          2.2611158068171363E-016
 -0.10679999999999999          2.7311355539188500E-015
 -0.10569999999999999          1.2513465910441324E-014
 -0.10460000000000000          1.4490804186467234E-014
 -0.10349999999999999         -1.1129456595681750E-013
 -0.10239999999999999         -6.0279862698631170E-013
 -0.10130000000000000         -1.1653189264243524E-012
 -0.10020000000000000          7.2401324302182046E-013
  -9.9099999999999994E-002     9.8707075499304686E-012
  -9.7999999999999990E-002     2.4362839870506470E-011
  -9.6899999999999986E-002     1.5775993358890794E-011
  -9.5799999999999996E-002    -7.2356891311908811E-011
  -9.4699999999999993E-002    -2.4652993535489998E-010
  -9.3599999999999989E-002    -3.0360111646920984E-010
  -9.2499999999999999E-002     1.9664898875948467E-010
  -9.1399999999999995E-002     1.4447993912369839E-009
  -9.0299999999999991E-002     2.4075499371889464E-009
  -8.9200000000000002E-002     5.7960214405738952E-010
  -8.8099999999999984E-002    -5.5939590737352773E-009
  -8.6999999999999994E-002    -1.1874797145594584E-008
  -8.5899999999999990E-002    -6.7301879624892536E-009
  -8.4799999999999986E-002     1.8212141128515213E-008
  -8.3699999999999997E-002     4.7044039774846169E-008
  -8.2599999999999993E-002     3.1896473018377947E-008
  -8.1499999999999989E-002    -6.6261129916256323E-008
  -8.0399999999999999E-002    -1.9209957713428594E-007
  -7.9299999999999995E-002    -1.5630521943421627E-007
  -7.8199999999999992E-002     2.2335701999054436E-007
  -7.7100000000000002E-002     7.9746160963622970E-007
  -7.5999999999999984E-002     8.8035551470966311E-007
  -7.4899999999999994E-002    -3.4649272606657178E-007
  -7.3799999999999991E-002    -2.7172466161573539E-006
  -7.2699999999999987E-002    -4.1346484067616984E-006
  -7.1599999999999997E-002    -1.4127685972198378E-006
  -7.0499999999999993E-002     6.3740462792338803E-006
  -6.9399999999999989E-002     1.4204460967448540E-005
  -6.8300000000000000E-002     1.1897837794094812E-005
  -6.7199999999999996E-002    -7.3937499109888449E-006
  -6.6099999999999992E-002    -3.5244574974058196E-005
  -6.5000000000000002E-002    -4.5197215513326228E-005
  -6.3899999999999985E-002    -1.0577965440461412E-005
  -6.2799999999999995E-002     6.2886807427275926E-005
  -6.1699999999999991E-002     1.1883766273967922E-004
  -6.0599999999999994E-002     7.9981349699664861E-005
  -5.9499999999999990E-002    -7.5218784331809729E-005
  -5.8399999999999994E-002    -2.4808489251881838E-004
  -5.7299999999999990E-002    -2.5327416369691491E-004
  -5.6199999999999986E-002     2.3356389647233300E-005
  -5.5099999999999996E-002     4.4679798884317279E-004
  -5.3999999999999992E-002     6.2981800874695182E-004
  -5.2899999999999989E-002     2.1763388940598816E-004
  -5.1799999999999985E-002    -6.9102365523576736E-004
  -5.0699999999999995E-002    -1.3845382491126657E-003
  -4.9599999999999991E-002    -9.7253196872770786E-004
  -4.8499999999999988E-002     7.3548807995393872E-004
  -4.7399999999999998E-002     2.6342570781707764E-003
  -4.6299999999999994E-002     2.8147958219051361E-003
  -4.5199999999999990E-002     1.7841240332927555E-004
  -4.4099999999999986E-002    -3.9933542720973492E-003
  -4.2999999999999997E-002    -6.2061110511422157E-003
  -4.1899999999999993E-002    -3.3094866666942835E-003
  -4.0799999999999989E-002     4.1252416558563709E-003
  -3.9699999999999985E-002     1.0740069672465324E-002
  -3.8599999999999995E-002     9.7334124147891998E-003
  -3.7499999999999992E-002    -9.5302908448502421E-004
  -3.6399999999999988E-002    -1.4717987738549709E-002
  -3.5299999999999984E-002    -1.9485965371131897E-002
  -3.4199999999999994E-002    -7.5051025487482548E-003
  -3.3099999999999991E-002     1.5552965924143791E-002
  -3.1999999999999987E-002     3.1441248953342438E-002
  -3.0899999999999997E-002     2.2740453481674194E-002
  -2.9799999999999993E-002    -1.0094750672578812E-002
  -2.8699999999999989E-002    -4.3476764112710953E-002
  -2.7599999999999986E-002    -4.6052213758230209E-002
  -2.6499999999999996E-002    -6.2035648152232170E-003
  -2.5399999999999992E-002     5.1121689379215240E-002
  -2.4299999999999988E-002     7.7452972531318665E-002
  -2.3199999999999985E-002     3.9716694504022598E-002
  -2.2099999999999995E-002    -4.4741444289684296E-002
  -2.0999999999999991E-002   -0.11103551089763641     
  -1.9899999999999987E-002    -9.4499878585338593E-002
  -1.8799999999999983E-002     1.0083451867103577E-002
  -1.7699999999999994E-002    0.12989744544029236     
  -1.6599999999999990E-002    0.16248527169227600     
  -1.5499999999999986E-002     6.1408087611198425E-002
  -1.4399999999999996E-002   -0.11107582598924637     
  -1.3299999999999992E-002   -0.21858131885528564     
  -1.2199999999999989E-002   -0.15773552656173706     
  -1.1099999999999985E-002     4.5259684324264526E-002
  -9.9999999999999950E-003    0.23680797219276428     
  -8.8999999999999913E-003    0.25094398856163025     
  -7.7999999999999875E-003     5.2485391497612000E-002
  -6.6999999999999837E-003   -0.21426114439964294     
  -5.5999999999999939E-003   -0.32737484574317932     
  -4.4999999999999901E-003   -0.17016333341598511     
  -3.3999999999999864E-003    0.15496949851512909     
  -2.2999999999999826E-003    0.38910254836082458     
  -1.1999999999999927E-003    0.32125148177146912     
  -9.9999999999988987E-005    -2.6879673823714256E-002
   1.0000000000000148E-003   -0.39616510272026062     
   2.1000000000000185E-003   -0.48531264066696167     
   3.2000000000000084E-003   -0.19703795015811920     
   4.3000000000000121E-003    0.26763084530830383     
   5.4000000000000159E-003    0.55445176362991333     
   6.5000000000000058E-003    0.43286079168319702     
   7.6000000000000234E-003    -1.6190076246857643E-002
   8.7000000000000133E-003   -0.45572900772094727     
   9.8000000000000032E-003   -0.55123436450958252     
   1.0900000000000021E-002   -0.22873674333095551     
   1.2000000000000011E-002    0.26896026730537415     
   1.3100000000000001E-002    0.56754034757614136     
   1.4200000000000018E-002    0.44046723842620850     
   1.5300000000000008E-002    -2.8815135359764099E-002
   1.6400000000000026E-002   -0.51286476850509644     
   1.7500000000000016E-002   -0.67273032665252686     
   1.8600000000000005E-002   -0.38570132851600647     
   1.9700000000000023E-002    0.18033353984355927     
   2.0800000000000013E-002    0.67850542068481445     
   2.1900000000000003E-002    0.79779732227325439     
   2.3000000000000020E-002    0.45126640796661377     
   2.4100000000000010E-002   -0.16571187973022461     
   2.5200000000000000E-002   -0.68179756402969360     
   2.6300000000000018E-002   -0.77310210466384888     
   2.7400000000000008E-002   -0.38318470120429993     
   2.8500000000000025E-002    0.20787301659584045     
   2.9600000000000015E-002    0.54924774169921875     
   3.0700000000000005E-002    0.34966757893562317     
   3.1800000000000023E-002   -0.25359788537025452     
   3.2900000000000013E-002   -0.72826373577117920     
   3.4000000000000002E-002   -0.53063976764678955     
   3.5100000000000020E-002    0.40826770663261414     
   3.6200000000000010E-002     1.4961055517196655     
   3.7300000000000028E-002     1.8259621858596802     
   3.8400000000000017E-002    0.87355899810791016     
   3.9500000000000007E-002   -0.98181879520416260     
   4.0600000000000025E-002    -2.5858721733093262     
   4.1700000000000015E-002    -2.7859530448913574     
   4.2800000000000005E-002    -1.3092694282531738     
   4.3900000000000022E-002    0.95503622293472290     
   4.5000000000000012E-002     2.5476582050323486     
   4.6100000000000002E-002     2.4933538436889648     
   4.7200000000000020E-002     1.0092105865478516     
   4.8300000000000010E-002   -0.69471824169158936     
   4.9400000000000027E-002    -1.3701109886169434     
   5.0500000000000017E-002   -0.68485051393508911     
   5.1600000000000007E-002    0.57260096073150635     
   5.2700000000000025E-002     1.1791437864303589     
   5.3800000000000014E-002    0.48387667536735535     
   5.4900000000000004E-002    -1.0666306018829346     
   5.6000000000000022E-002    -2.2774603366851807     
   5.7100000000000012E-002    -2.1268548965454102     
   5.8200000000000002E-002   -0.54070740938186646     
   5.9300000000000019E-002     1.5440433025360107     
   6.0400000000000009E-002     2.8362710475921631     
   6.1500000000000027E-002     2.5720443725585938     
   6.2600000000000017E-002     1.0168547630310059     
   6.3700000000000007E-002   -0.72082388401031494     
   6.4800000000000024E-002    -1.4209020137786865     
   6.5900000000000014E-002   -0.57009327411651611     
   6.7000000000000004E-002     1.2424250841140747     
   6.8100000000000022E-002     2.6292011737823486     
   6.9200000000000012E-002     2.3061289787292480     
   7.0300000000000029E-002     6.5665848553180695E-002
   7.1400000000000019E-002    -2.8433353900909424     
   7.2500000000000009E-002    -4.3407011032104492     
   7.3600000000000027E-002    -2.8875398635864258     
   7.4700000000000016E-002     1.2779756784439087     
   7.5800000000000006E-002     6.0376448631286621     
   7.6900000000000024E-002     8.6749410629272461     
   7.8000000000000014E-002     7.7683639526367188     
   7.9100000000000004E-002     4.2551221847534180     
   8.0200000000000021E-002    0.77879279851913452     
   8.1300000000000011E-002   -0.32188314199447632     
   8.2400000000000029E-002     1.2484564781188965     
   8.3500000000000019E-002     3.6334812641143799     
   8.4600000000000009E-002     4.5475959777832031     
   8.5700000000000026E-002     3.3850204944610596     
   8.6800000000000016E-002     1.8108558654785156     
   8.7900000000000006E-002     2.4781751632690430     
   8.9000000000000024E-002     6.6255474090576172     
   9.0100000000000013E-002     12.806442260742188     
   9.1200000000000003E-002     17.768455505371094     
   9.2300000000000021E-002     18.841426849365234     
   9.3400000000000011E-002     15.990446090698242     
   9.4500000000000028E-002     11.678315162658691     
   9.5600000000000018E-002     9.0457782745361328     
   9.6700000000000008E-002     9.8305034637451172     
   9.7800000000000026E-002     13.435011863708496     
   9.8900000000000016E-002     17.766492843627930     
  0.10000000000000001          21.002643585205078     
  0.10110000000000002          22.568292617797852     
  0.10220000000000001          23.237943649291992     
  0.10330000000000003          24.070123672485352     
  0.10440000000000002          25.849077224731445     
  0.10550000000000001          28.330499649047852     
  0.10660000000000003          31.200170516967773     
  0.10770000000000002          33.344135284423828     
  0.10880000000000001          33.917591094970703     
  0.10990000000000003          32.483081817626953     
  0.11100000000000002          30.184789657592773     
  0.11210000000000001          29.553590774536133     
  0.11320000000000002          31.361423492431641     
  0.11430000000000001          35.540046691894531     
  0.11540000000000003          39.103694915771484     
  0.11650000000000002          39.404571533203125     
  0.11760000000000001          35.009231567382812     
  0.11870000000000003          28.462041854858398     
  0.11980000000000002          23.599050521850586     
  0.12090000000000001          22.843528747558594     
  0.12200000000000003          24.929929733276367     
  0.12310000000000001          25.941839218139648     
  0.12420000000000003          21.907756805419922     
  0.12530000000000002          13.237277984619141     
  0.12640000000000001          5.6541185379028320     
  0.12750000000000003          1.6008081436157227     
  0.12860000000000002          2.7264635562896729     
  0.12970000000000001          5.7052087783813477     
  0.13080000000000003          3.9803321361541748     
  0.13190000000000002         -4.5974087715148926     
  0.13300000000000001         -17.942314147949219     
  0.13410000000000000         -31.656427383422852     
  0.13520000000000004         -40.408218383789062     
  0.13630000000000003         -46.804061889648438     
  0.13740000000000002         -49.541824340820312     
  0.13850000000000001         -53.527000427246094     
  0.13960000000000000         -59.613418579101562     
  0.14070000000000005         -59.270954132080078     
  0.14180000000000004         -58.734687805175781     
  0.14290000000000003         -59.449645996093750     
  0.14400000000000002         -62.977451324462891     
  0.14510000000000001         -69.009086608886719     
  0.14620000000000000         -75.723342895507812     
  0.14730000000000004         -78.172592163085938     
  0.14840000000000003         -75.666168212890625     
  0.14950000000000002         -72.698570251464844     
  0.15060000000000001         -74.436424255371094     
  0.15170000000000000         -77.124496459960938     
  0.15280000000000005         -82.704055786132812     
  0.15390000000000004         -81.456344604492188     
  0.15500000000000003         -74.201843261718750     
  0.15610000000000002         -60.618766784667969     
  0.15720000000000001         -47.901515960693359     
  0.15830000000000000         -41.229583740234375     
  0.15940000000000004         -35.381774902343750     
  0.16050000000000003         -25.063222885131836     
  0.16160000000000002         -15.568046569824219     
  0.16270000000000001         -8.0985050201416016     
  0.16380000000000000         -7.8659224510192871     
  0.16490000000000005         -10.882944107055664     
  0.16600000000000004         -9.3621101379394531     
  0.16710000000000003          4.3715553283691406     
  0.16820000000000002          25.507007598876953     
  0.16930000000000001          42.864952087402344     
  0.17040000000000000          48.491340637207031     
  0.17150000000000004          42.334224700927734     
  0.17260000000000003          34.282169342041016     
  0.17370000000000002          31.457052230834961     
  0.17480000000000001          40.117782592773438     
  0.17590000000000000          52.459598541259766     
  0.17700000000000005          60.764366149902344     
  0.17810000000000004          63.534702301025391     
  0.17920000000000003          64.400001525878906     
  0.18030000000000002          68.193664550781250     
  0.18140000000000001          75.608665466308594     
  0.18250000000000000          80.621170043945312     
  0.18360000000000004          74.001274108886719     
  0.18470000000000003          53.699024200439453     
  0.18580000000000002          28.968929290771484     
  0.18690000000000001          11.463611602783203     
  0.18800000000000000          8.4697561264038086     
  0.18910000000000005          15.885704040527344     
  0.19020000000000004          23.190299987792969     
  0.19130000000000003          23.638139724731445     
  0.19240000000000002          18.024639129638672     
  0.19350000000000001          11.509855270385742     
  0.19460000000000005          7.4148025512695312     
  0.19570000000000004          2.9773819446563721     
  0.19680000000000003         -6.5869016647338867     
  0.19790000000000002         -22.365690231323242     
  0.19900000000000001         -38.085048675537109     
  0.20010000000000000         -47.434467315673828     
  0.20120000000000005         -48.284381866455078     
  0.20230000000000004         -49.189517974853516     
  0.20340000000000003         -57.999259948730469     
  0.20450000000000002         -75.207893371582031     
  0.20560000000000000         -93.351829528808594     
  0.20670000000000005         -105.41102600097656     
  0.20780000000000004         -108.62080383300781     
  0.20890000000000003         -110.45576477050781     
