 -0.12000000000000000          0.0000000000000000
 -0.11889999999999999          0.0000000000000000
 -0.11780000000000000          0.0000000000000000
 -0.11670000000000000          0.0000000000000000
 -0.11559999999999999          0.0000000000000000
 -0.11449999999999999          0.0000000000000000
 -0.11340000000000000          0.0000000000000000
 -0.11230000000000000         -4.4571100872913292E-022
 -0.11119999999999999          3.8125164323910477E-021
 -0.11009999999999999          3.3065273704129728E-020
 -0.10900000000000000          5.3413834349351357E-020
 -0.10790000000000000         -2.0179348874922896E-019
 -0.10679999999999999         -9.7639120627607151E-019
 -0.10569999999999999         -9.7070859680210877E-019
 -0.10460000000000000          3.7327430033343425E-018
 -0.10349999999999999          1.4011679451994314E-017
 -0.10239999999999999          1.3217502023660880E-017
 -0.10130000000000000         -3.4942183277794674E-017
 -0.10020000000000000         -1.3553339765042321E-016
  -9.9099999999999994E-002    -1.6573857027650316E-016
  -9.7999999999999990E-002     1.2726668093665607E-016
  -9.6899999999999986E-002     8.3010506221754214E-016
  -9.5799999999999996E-002     1.3400243905491502E-015
  -9.4699999999999993E-002     2.8379074982244268E-016
  -9.3599999999999989E-002    -3.2264919618219186E-015
  -9.2499999999999999E-002    -7.2253963322167481E-015
  -9.1399999999999995E-002    -5.9218626118148825E-015
  -9.0299999999999991E-002     6.3690303553490386E-015
  -8.9200000000000002E-002     2.6367623741315720E-014
  -8.8099999999999984E-002     3.5575807135147678E-014
  -8.6999999999999994E-002     8.6370261379515670E-015
  -8.5899999999999990E-002    -5.9946447133000082E-014
  -8.4799999999999986E-002    -1.2843634557009774E-013
  -8.3699999999999997E-002    -1.1465619055781749E-013
  -8.2599999999999993E-002     4.1632620557313345E-014
  -8.1499999999999989E-002     2.9045350256165051E-013
  -8.0399999999999999E-002     4.4057400547778116E-013
  -7.9299999999999995E-002     2.6198535555745229E-013
  -7.8199999999999992E-002    -3.0054489052820800E-013
  -7.7100000000000002E-002    -9.5992461311883616E-013
  -7.5999999999999984E-002    -1.1642691507899659E-012
  -7.4899999999999994E-002    -4.7343322953328598E-013
  -7.3799999999999991E-002     9.8307619962548622E-013
  -7.2699999999999987E-002     2.3608351103503828E-012
  -7.1599999999999997E-002     2.5270784074003730E-012
  -7.0499999999999993E-002     8.8773962995501180E-013
  -6.9399999999999989E-002    -1.9695277488811561E-012
  -6.8300000000000000E-002    -4.4034598939069951E-012
  -6.7199999999999996E-002    -4.6886884277046013E-012
  -6.6099999999999992E-002    -2.2129582552121633E-012
  -6.5000000000000002E-002     1.9842091938121761E-012
  -6.3899999999999985E-002     5.7802311482144581E-012
  -6.2799999999999995E-002     7.2516143798090275E-012
  -6.1699999999999991E-002     5.7284079001195949E-012
  -6.0599999999999994E-002     1.9108331799310967E-012
  -5.9499999999999990E-002    -2.8529629161318682E-012
  -5.8399999999999994E-002    -7.3686411624338173E-012
  -5.7299999999999990E-002    -1.0789623190665307E-011
  -5.6199999999999986E-002    -1.2212306069304961E-011
  -5.5099999999999996E-002    -1.0320624630997180E-011
  -5.3999999999999992E-002    -3.7269469590760590E-012
  -5.2899999999999989E-002     7.9332359054096795E-012
  -5.1799999999999985E-002     2.2724761584309569E-011
  -5.0699999999999995E-002     3.5758165422198311E-011
  -4.9599999999999991E-002     3.9824791750650106E-011
  -4.8499999999999988E-002     2.7700572642067788E-011
  -4.7399999999999998E-002    -4.0187858129434311E-012
  -4.6299999999999994E-002    -5.0695295205555857E-011
  -4.5199999999999990E-002    -9.7422475902464606E-011
  -4.4099999999999986E-002    -1.2151095074309276E-010
  -4.2999999999999997E-002    -1.0066090854924754E-010
  -4.1899999999999993E-002    -2.4356719081488787E-011
  -4.0799999999999989E-002     9.6786216400637869E-011
  -3.9699999999999985E-002     2.2868138087797522E-010
  -3.8599999999999995E-002     3.2003237954280113E-010
  -3.7499999999999992E-002     3.1546120095917541E-010
  -3.6399999999999988E-002     1.7342889042243339E-010
  -3.5299999999999984E-002    -1.1170412109727851E-010
  -3.4199999999999994E-002    -4.8621459055994275E-010
  -3.3099999999999991E-002    -8.2363034884272664E-010
  -3.1999999999999987E-002    -9.4239520002333362E-010
  -3.0899999999999997E-002    -6.7187706920564454E-010
  -2.9799999999999993E-002     4.2525212152366161E-011
  -2.8699999999999989E-002     1.0444746392374571E-009
  -2.7599999999999986E-002     1.9549519729627261E-009
  -2.6499999999999996E-002     2.2929767124421437E-009
  -2.5399999999999992E-002     1.7045232717406665E-009
  -2.4299999999999988E-002     1.9150064245604210E-010
  -2.3199999999999985E-002    -1.7997714462270248E-009
  -2.2099999999999995E-002    -3.5138969082244553E-009
  -2.0999999999999991E-002    -4.2038869732663799E-009
  -1.9899999999999987E-002    -3.4732571468581620E-009
  -1.8799999999999983E-002    -1.4593831962594295E-009
  -1.7699999999999994E-002     1.2364302748348558E-009
  -1.6599999999999990E-002     3.8179887052362671E-009
  -1.5499999999999986E-002     5.5980671163740781E-009
  -1.4399999999999996E-002     6.1740168308573209E-009
  -1.3299999999999992E-002     5.4196832269808662E-009
  -1.2199999999999989E-002     3.3736088226461992E-009
  -1.1099999999999985E-002     1.6955179523276276E-010
  -9.9999999999999950E-003    -3.8966760176411562E-009
  -8.8999999999999913E-003    -8.2072187819871551E-009
  -7.7999999999999875E-003    -1.1738449144535773E-008
  -6.6999999999999837E-003    -1.3236609057079918E-008
  -5.5999999999999939E-003    -1.1694918981384757E-008
  -4.4999999999999901E-003    -6.9353363943491903E-009
  -3.3999999999999864E-003     9.4495110012599581E-011
  -2.2999999999999826E-003     7.6839704839674729E-009
  -1.1999999999999927E-003     1.4464219882271281E-008
  -9.9999999999988987E-005     2.0870191060154029E-008
   1.0000000000000148E-003     3.0200423394369459E-008
   2.1000000000000185E-003     4.8521346144887830E-008
   3.2000000000000084E-003     8.3161861480216845E-008
   4.3000000000000121E-003     1.4033435209760384E-007
   5.4000000000000159E-003     2.2305209363872793E-007
   6.5000000000000058E-003     3.3055658501570470E-007
   7.6000000000000234E-003     4.5980076407820639E-007
   8.7000000000000133E-003     6.0847927941612493E-007
   9.8000000000000032E-003     7.7825038387703002E-007
   1.0900000000000021E-002     9.7666860119347908E-007
   1.2000000000000011E-002     1.2170335093067007E-006
   1.3100000000000001E-002     1.5164740742416737E-006
   1.4200000000000018E-002     1.8935013836118382E-006
   1.5300000000000008E-002     2.3664794186740500E-006
   1.6400000000000026E-002     2.9538973993924217E-006
   1.7500000000000016E-002     3.6763190540606231E-006
   1.8600000000000005E-002     4.5590042895477733E-006
   1.9700000000000023E-002     5.6339236220887037E-006
   2.0800000000000013E-002     6.9403605399905209E-006
   2.1900000000000003E-002     8.5242741894962098E-006
   2.3000000000000020E-002     1.0437498497668195E-005
   2.4100000000000010E-002     1.2738147797637987E-005
   2.5200000000000000E-002     1.5492996748858083E-005
   2.6300000000000018E-002     1.8781436100772632E-005
   2.7400000000000008E-002     2.2699556207371113E-005
   2.8500000000000025E-002     2.7362690828914249E-005
   2.9600000000000015E-002     3.2905639370503323E-005
   3.0700000000000005E-002     3.9481222311832311E-005
   3.1800000000000023E-002     4.7259003568904933E-005
   3.2900000000000013E-002     5.6426013353521622E-005
   3.4000000000000002E-002     6.7190227761624501E-005
   3.5100000000000020E-002     7.9785938399060276E-005
   3.6200000000000010E-002     9.4479111271548197E-005
   3.7300000000000028E-002     1.1157108274694239E-004
   3.8400000000000017E-002     1.3139984555507367E-004
   3.9500000000000007E-002     1.5433986200192736E-004
   4.0600000000000025E-002     1.8080162068139042E-004
   4.1700000000000015E-002     2.1123248096936362E-004
   4.2800000000000005E-002     2.4611870512158897E-004
   4.3900000000000022E-002     2.8598831689086786E-004
   4.5000000000000012E-002     3.3141318137142305E-004
   4.6100000000000002E-002     3.8300935117672249E-004
   4.7200000000000020E-002     4.4143507054058277E-004
   4.8300000000000010E-002     5.0738733622612386E-004
   4.9400000000000027E-002     5.8159784227638351E-004
   5.0500000000000017E-002     6.6482926161588599E-004
   5.1600000000000007E-002     7.5787204257912906E-004
   5.2700000000000025E-002     8.6153989090455253E-004
   5.3800000000000014E-002     9.7666310157281571E-004
   5.4900000000000004E-002     1.1040784035073487E-003
   5.6000000000000022E-002     1.2446155837370293E-003
   5.7100000000000012E-002     1.3990828074274483E-003
   5.8200000000000002E-002     1.5682529523612400E-003
   5.9300000000000019E-002     1.7528504799721339E-003
   6.0400000000000009E-002     1.9535375553501413E-003
   6.1500000000000027E-002     2.1708997105107501E-003
   6.2600000000000017E-002     2.4054261829015563E-003
   6.3700000000000007E-002     2.6574878364444068E-003
   6.4800000000000024E-002     2.9273122913106757E-003
   6.5900000000000014E-002     3.2149613946938576E-003
   6.7000000000000004E-002     3.5203082313410932E-003
   6.8100000000000022E-002     3.8430170176852914E-003
   6.9200000000000012E-002     4.1825246229332405E-003
   7.0300000000000029E-002     4.5380205208253449E-003
   7.1400000000000019E-002     4.9084282367973450E-003
   7.2500000000000009E-002     5.2923884847453518E-003
   7.3600000000000027E-002     5.6882424316858898E-003
   7.4700000000000016E-002     6.0940230170037444E-003
   7.5800000000000006E-002     6.5074495777573882E-003
   7.6900000000000024E-002     6.9259278102574741E-003
   7.8000000000000014E-002     7.3465526362373277E-003
   7.9100000000000004E-002     7.7661178603971367E-003
   8.0200000000000021E-002     8.1811252302274665E-003
   8.1300000000000011E-002     8.5878018579814436E-003
   8.2400000000000029E-002     8.9821240941725423E-003
   8.3500000000000019E-002     9.3598473241505893E-003
   8.4600000000000009E-002     9.7165486255930446E-003
   8.5700000000000026E-002     1.0047675065239195E-002
   8.6800000000000016E-002     1.0348595720986752E-002
   8.7900000000000006E-002     1.0614659235121735E-002
   8.9000000000000024E-002     1.0841246224073911E-002
   9.0100000000000013E-002     1.1023833866290437E-002
   9.1200000000000003E-002     1.1158054277955024E-002
   9.2300000000000021E-002     1.1239765357778899E-002
   9.3400000000000011E-002     1.1265125246360638E-002
   9.4500000000000028E-002     1.1230659340752094E-002
   9.5600000000000018E-002     1.1133334806628467E-002
   9.6700000000000008E-002     1.0970620408081631E-002
   9.7800000000000026E-002     1.0740547593856519E-002
   9.8900000000000016E-002     1.0441767534188472E-002
  0.10000000000000001          1.0073592639994595E-002
  0.10110000000000002          9.6360377162330087E-003
  0.10220000000000001          9.1298514371947956E-003
  0.10330000000000003          8.5565381747332702E-003
  0.10440000000000002          7.9183654243936853E-003
  0.10550000000000001          7.2183623585956452E-003
  0.10660000000000003          6.4603047574573452E-003
  0.10770000000000002          5.6486829869070885E-003
  0.10880000000000001          4.7886641249054087E-003
  0.10990000000000003          3.8860398046753463E-003
  0.11100000000000002          2.9471636183102581E-003
  0.11210000000000001          1.9788787967555685E-003
  0.11320000000000002          9.8843353887396535E-004
  0.11430000000000001         -1.6612614699718640E-005
  0.11540000000000003         -1.0284888685384882E-003
  0.11650000000000002         -2.0393175250660030E-003
  0.11760000000000001         -3.0412191121135419E-003
  0.11870000000000003         -4.0264213420234535E-003
  0.11980000000000002         -4.9873662255801371E-003
  0.12090000000000001         -5.9168199253958409E-003
  0.12200000000000003         -6.8079768344596120E-003
  0.12310000000000001         -7.6545576896111835E-003
  0.12420000000000003         -8.4508984832049380E-003
  0.12530000000000002         -9.1920311275725600E-003
  0.12640000000000001         -9.8737510322717634E-003
  0.12750000000000003         -1.0492675068578197E-002
  0.12860000000000002         -1.1046289768911461E-002
  0.12970000000000001         -1.1532980488965937E-002
  0.13080000000000003         -1.1952050341383769E-002
  0.13190000000000002         -1.2303724004891426E-002
  0.13300000000000001         -1.2589144062979188E-002
  0.13410000000000000         -1.2810345783205624E-002
  0.13520000000000004         -1.2970222245707774E-002
  0.13630000000000003         -1.3072469945339154E-002
  0.13740000000000002         -1.3121528933907872E-002
  0.13850000000000001         -1.3122507630203232E-002
  0.13960000000000000         -1.3081108460516569E-002
  0.14070000000000005         -1.3003540484741689E-002
  0.14180000000000004         -1.2896430011233069E-002
  0.14290000000000003         -1.2766717624801974E-002
  0.14400000000000002         -1.2621553291226464E-002
  0.14510000000000001         -1.2468186912343653E-002
  0.14620000000000000         -1.2313862238263527E-002
  0.14730000000000004         -1.2165707592986408E-002
  0.14840000000000003         -1.2030631855456534E-002
  0.14950000000000002         -1.1915224748575272E-002
  0.15060000000000001         -1.1825656248808649E-002
  0.15170000000000000         -1.1767585802410135E-002
  0.15280000000000005         -1.1746068568971863E-002
  0.15390000000000004         -1.1765481472048265E-002
  0.15500000000000003         -1.1829442709532957E-002
  0.15610000000000002         -1.1940750470193240E-002
  0.15720000000000001         -1.2101317017653818E-002
  0.15830000000000000         -1.2312123493006092E-002
  0.15940000000000004         -1.2573180442173013E-002
  0.16050000000000003         -1.2883497868765083E-002
  0.16160000000000002         -1.3241068798107231E-002
  0.16270000000000001         -1.3642864615308285E-002
  0.16380000000000000         -1.4084839418152292E-002
  0.16490000000000005         -1.4561951672236404E-002
  0.16600000000000004         -1.5068191508222063E-002
  0.16710000000000003         -1.5596622167209702E-002
  0.16820000000000002         -1.6139435978932463E-002
  0.16930000000000001         -1.6688022956543182E-002
  0.17040000000000000         -1.7233048802331667E-002
  0.17150000000000004         -1.7764557070527501E-002
  0.17260000000000003         -1.8272074097722996E-002
  0.17370000000000002         -1.8744731435818875E-002
  0.17480000000000001         -1.9171391130964926E-002
  0.17590000000000000         -1.9540787035383943E-002
  0.17700000000000005         -1.9841664303468624E-002
  0.17810000000000004         -2.0062943718631640E-002
  0.17920000000000003         -2.0193875675363439E-002
  0.18030000000000002         -2.0224208542569913E-002
  0.18140000000000001         -2.0144356464204653E-002
  0.18250000000000000         -1.9945558251140763E-002
  0.18360000000000004         -1.9620039194423722E-002
  0.18470000000000003         -1.9161154401990524E-002
  0.18580000000000002         -1.8563533249140389E-002
  0.18690000000000001         -1.7823205719081921E-002
  0.18800000000000000         -1.6937711767374700E-002
  0.18910000000000005         -1.5906195271813424E-002
  0.19020000000000004         -1.4729489738778278E-002
  0.19130000000000003         -1.3410166262302226E-002
  0.19240000000000002         -1.1952568241839222E-002
  0.19350000000000001         -1.0362807918777837E-002
  0.19460000000000005         -8.6487422595471503E-003
  0.19570000000000004         -6.8199138771776503E-003
  0.19680000000000003         -4.8874718590399728E-003
  0.19790000000000002         -2.8640721403098484E-003
  0.19900000000000001         -7.6374793021751885E-004
  0.20010000000000000          1.3982506803835882E-003
  0.20120000000000005          3.6056282835382775E-003
  0.20230000000000004          5.8412404148815624E-003
  0.20340000000000003          8.0873027644796439E-003
  0.20450000000000002          1.0325609741489616E-002
  0.20560000000000000          1.2537769536933288E-002
  0.20670000000000005          1.4705441644468156E-002
  0.20780000000000004          1.6810582036348158E-002
  0.20890000000000003          1.8835671763520738E-002
