 -0.12000000000000000          0.0000000000000000
 -0.11889999999999999          0.0000000000000000
 -0.11780000000000000          0.0000000000000000
 -0.11670000000000000          0.0000000000000000
 -0.11559999999999999          1.7095492266504908E-017
 -0.11449999999999999          5.9834222105586564E-017
 -0.11340000000000000          5.1286478453875948E-017
 -0.11230000000000000          4.2738728184720431E-017
 -0.11119999999999999         -3.4190991150454716E-017
 -0.11009999999999999         -4.2738744728332682E-017
 -0.10900000000000000          4.2738730831698392E-016
 -0.10790000000000000          7.6074945962620820E-016
 -0.10679999999999999         -2.7352787626407852E-016
 -0.10569999999999999         -1.8548611235011999E-015
 -0.10460000000000000         -2.6156108478252041E-015
 -0.10349999999999999         -6.4108165068974552E-016
 -0.10239999999999999          7.8639174097799684E-016
 -0.10130000000000000          2.5642016653992621E-017
 -0.10020000000000000          6.3253175305971981E-016
  -9.9099999999999994E-002     6.7099790147470174E-015
  -9.7999999999999990E-002     1.4975649233607384E-014
  -9.6899999999999986E-002     1.4488427412017238E-014
  -9.5799999999999996E-002     2.2395064081459030E-015
  -9.4699999999999993E-002    -2.2591695156867590E-014
  -9.3599999999999989E-002    -3.8670005104947044E-014
  -9.2499999999999999E-002    -1.4266189683580233E-014
  -9.1399999999999995E-002     5.4996195856908681E-014
  -9.0299999999999991E-002     1.1167628643669533E-013
  -8.9200000000000002E-002     9.1768593050121916E-014
  -8.8099999999999984E-002     6.7612507660772675E-015
  -8.6999999999999994E-002    -1.0012832034854424E-013
  -8.5899999999999990E-002    -2.3683244493137579E-013
  -8.4799999999999986E-002    -3.7846006710473556E-013
  -8.3699999999999997E-002    -3.2369468433782189E-013
  -8.2599999999999993E-002    -5.1201095229921889E-014
  -8.1499999999999989E-002     2.6013346750113076E-013
  -8.0399999999999999E-002     1.4421749656035737E-013
  -7.9299999999999995E-002    -2.0146193469971346E-013
  -7.8199999999999992E-002    -3.0424865101255638E-013
  -7.7100000000000002E-002    -2.0571882413701614E-013
  -7.5999999999999984E-002     3.5045500301669058E-014
  -7.4899999999999994E-002     8.6225357366284672E-013
  -7.3799999999999991E-002     2.0341068239504434E-012
  -7.2699999999999987E-002     1.4772638407684058E-012
  -7.1599999999999997E-002    -8.1785381418619796E-014
  -7.0499999999999993E-002    -2.6299114795624856E-012
  -6.9399999999999989E-002    -4.0226559062939149E-012
  -6.8300000000000000E-002    -3.2621886962569402E-012
  -6.7199999999999996E-002     1.5915773473457184E-013
  -6.6099999999999992E-002     4.0706661132150490E-012
  -6.5000000000000002E-002     6.8442985654004751E-012
  -6.3899999999999985E-002     4.7863345231657917E-012
  -6.2799999999999995E-002    -1.3679834175162053E-012
  -6.1699999999999991E-002    -9.4829491481540629E-012
  -6.0599999999999994E-002    -1.1575925114304386E-011
  -5.9499999999999990E-002    -3.3754999663460072E-012
  -5.8399999999999994E-002     2.4221335007124090E-011
  -5.7299999999999990E-002     4.4955900113663461E-011
  -5.6199999999999986E-002     4.1182366544711968E-011
  -5.5099999999999996E-002     1.6261846036424998E-011
  -5.3999999999999992E-002    -2.0002421594056408E-011
  -5.2899999999999989E-002    -6.2568769609860908E-011
  -5.1799999999999985E-002    -1.0989669591010554E-010
  -5.0699999999999995E-002    -1.4153944682959718E-010
  -4.9599999999999991E-002    -8.0471553032257503E-011
  -4.8499999999999988E-002     3.2693563134511550E-011
  -4.7399999999999998E-002     9.8803118464552142E-011
  -4.6299999999999994E-002     1.0497287761257468E-010
  -4.5199999999999990E-002     8.4813933654004359E-011
  -4.4099999999999986E-002     1.1451145587315636E-010
  -4.2999999999999997E-002     1.6941731351138856E-010
  -4.1899999999999993E-002     7.0272281049721386E-011
  -4.0799999999999989E-002    -1.7788198691803814E-010
  -3.9699999999999985E-002    -3.1511959708296899E-010
  -3.8599999999999995E-002    -2.1819984707960316E-010
  -3.7499999999999992E-002     5.7979156198317838E-011
  -3.6399999999999988E-002     1.4705631157241328E-010
  -3.5299999999999984E-002    -1.3709061663647049E-011
  -3.4199999999999994E-002    -2.9995589345688245E-010
  -3.3099999999999991E-002    -4.4727682668721513E-010
  -3.1999999999999987E-002    -1.5989408408412231E-010
  -3.0899999999999997E-002     4.9048859418476809E-010
  -2.9799999999999993E-002     6.3894545210274600E-010
  -2.8699999999999989E-002    -7.0801309259849177E-011
  -2.7599999999999986E-002    -1.1525109755439189E-009
  -2.6499999999999996E-002    -1.4880541243655898E-009
  -2.5399999999999992E-002    -1.7553258846447761E-010
  -2.4299999999999988E-002     1.9683037422169036E-009
  -2.3199999999999985E-002     3.1665476907249968E-009
  -2.2099999999999995E-002     2.1374959580100494E-009
  -2.0999999999999991E-002    -2.3039820051806714E-010
  -1.9899999999999987E-002    -1.5972416722576099E-009
  -1.8799999999999983E-002    -5.2686000007184930E-010
  -1.7699999999999994E-002     1.5580168266637884E-009
  -1.6599999999999990E-002     1.7393848583679983E-009
  -1.5499999999999986E-002    -8.1855222600069055E-010
  -1.4399999999999996E-002    -3.9926932871026111E-009
  -1.3299999999999992E-002    -5.3518345310976656E-009
  -1.2199999999999989E-002    -3.8204204244607354E-009
  -1.1099999999999985E-002     9.5110408437903970E-010
  -9.9999999999999950E-003     4.3288879147951320E-009
  -8.8999999999999913E-003     3.5837095513358008E-009
  -7.7999999999999875E-003    -5.4050552922291217E-010
  -6.6999999999999837E-003    -4.2703502955987460E-009
  -5.5999999999999939E-003    -3.9130849671664691E-009
  -4.4999999999999901E-003     7.1055072936587749E-010
  -3.3999999999999864E-003     4.6530015396228919E-009
  -2.2999999999999826E-003     4.6876005299623102E-009
  -1.1999999999999927E-003     2.3380519742488559E-009
  -9.9999999999988987E-005    -4.7757048315943962E-010
   1.0000000000000148E-003    -1.5615664317181199E-010
   2.1000000000000185E-003     1.0436275177383436E-009
   3.2000000000000084E-003     1.2037082441906932E-009
   4.3000000000000121E-003    -1.6477662567737639E-009
   5.4000000000000159E-003    -5.7540554543322742E-009
   6.5000000000000058E-003    -5.6298263828580275E-009
   7.6000000000000234E-003     4.4580894531520698E-010
   8.7000000000000133E-003     6.6648517815792729E-009
   9.8000000000000032E-003     8.0797484258710028E-009
   1.0900000000000021E-002     5.1207189599722369E-009
   1.2000000000000011E-002     6.9176370187662428E-010
   1.3100000000000001E-002    -3.2352658330125905E-009
   1.4200000000000018E-002    -5.2621476065439765E-009
   1.5300000000000008E-002    -6.2851777116179619E-009
   1.6400000000000026E-002    -6.1968008502333305E-009
   1.7500000000000016E-002    -5.6782014645762047E-009
   1.8600000000000005E-002    -4.1557504104616783E-009
   1.9700000000000023E-002     6.6507055418441041E-010
   2.0800000000000013E-002     7.7087065619707573E-009
   2.1900000000000003E-002     1.3121083775047282E-008
   2.3000000000000020E-002     1.2214572464586126E-008
   2.4100000000000010E-002     3.3848035485561923E-009
   2.5200000000000000E-002    -7.9097794980498293E-009
   2.6300000000000018E-002    -1.3521845865227533E-008
   2.7400000000000008E-002    -9.1043581562644249E-009
   2.8500000000000025E-002     8.8809115617038970E-010
   2.9600000000000015E-002     8.6039477764643379E-009
   3.0700000000000005E-002     9.7051380265611442E-009
   3.1800000000000023E-002     8.6910700858311429E-009
   3.2900000000000013E-002     7.2467796208286472E-009
   3.4000000000000002E-002     6.2327116800986460E-009
   3.5100000000000020E-002     2.4939033060888960E-009
   3.6200000000000010E-002    -3.7545340170197505E-009
   3.7300000000000028E-002    -7.4933419469402907E-009
   3.8400000000000017E-002    -6.5714109709347213E-009
   3.9500000000000007E-002    -2.2794053311514517E-009
   4.0600000000000025E-002     2.3711186347696867E-009
   4.1700000000000015E-002     3.2213465228636551E-009
   4.2800000000000005E-002     2.1355746060436331E-009
   4.3900000000000022E-002     4.4915799968237025E-009
   4.5000000000000012E-002     1.0862992283477979E-008
   4.6100000000000002E-002     1.7090997062041424E-008
   4.7200000000000020E-002     1.4929669944763191E-008
   4.8300000000000010E-002     1.8693806502767529E-009
   4.9400000000000027E-002    -1.3342019045126108E-008
   5.0500000000000017E-002    -1.6507197386772532E-008
   5.1600000000000007E-002    -4.9731205820080504E-009
   5.2700000000000025E-002     1.2153843265139130E-008
   5.3800000000000014E-002     2.1178289344447876E-008
   5.4900000000000004E-002     1.2707035423886737E-008
   5.6000000000000022E-002    -3.6516256685104054E-009
   5.7100000000000012E-002    -1.1190731896704165E-008
   5.8200000000000002E-002    -1.0190248644903477E-009
   5.9300000000000019E-002     1.6251348711193714E-008
   6.0400000000000009E-002     2.1188686361028886E-008
   6.1500000000000027E-002     8.2359514763652442E-009
   6.2600000000000017E-002    -1.1241819919405316E-008
   6.3700000000000007E-002    -2.2249590614364934E-008
   6.4800000000000024E-002    -1.4851920582259481E-008
   6.5900000000000014E-002     2.2364643470496048E-010
   6.7000000000000004E-002     4.4809183030736222E-009
   6.8100000000000022E-002    -8.0494366727634770E-009
   6.9200000000000012E-002    -2.5545272563931576E-008
   7.0300000000000029E-002    -2.8019183417882232E-008
   7.1400000000000019E-002    -8.1573956478564469E-009
   7.2500000000000009E-002     1.9842760323740549E-008
   7.3600000000000027E-002     3.4183361918849187E-008
   7.4700000000000016E-002     2.4682487165250677E-008
   7.5800000000000006E-002     1.5937606789862002E-009
   7.6900000000000024E-002    -1.4109485135804789E-008
   7.8000000000000014E-002    -1.2818958339266828E-008
   7.9100000000000004E-002    -2.7088762344362749E-009
   8.0200000000000021E-002     1.8441705940119846E-009
   8.1300000000000011E-002    -4.6810040288391974E-009
   8.2400000000000029E-002    -1.3859215997058527E-008
   8.3500000000000019E-002    -1.3644243068711148E-008
   8.4600000000000009E-002    -5.2260551441918324E-010
   8.5700000000000026E-002     1.5610586601155774E-008
   8.6800000000000016E-002     2.1920373072248367E-008
   8.7900000000000006E-002     1.3996976022667695E-008
   8.9000000000000024E-002     2.2972868052306694E-010
   9.0100000000000013E-002    -9.3428527137007222E-009
   9.1200000000000003E-002    -1.2246990976905181E-008
   9.2300000000000021E-002    -1.3860462111381366E-008
   9.3400000000000011E-002    -1.6872155228497832E-008
   9.4500000000000028E-002    -1.7929924212012338E-008
   9.5600000000000018E-002    -1.0562509089595551E-008
   9.6700000000000008E-002     5.0866835188401183E-009
   9.7800000000000026E-002     1.7975283483906423E-008
   9.8900000000000016E-002     1.7777960437115325E-008
  0.10000000000000001          4.1541219353291581E-009
  0.10110000000000002         -1.0079199697088370E-008
  0.10220000000000001         -1.0894966706587184E-008
  0.10330000000000003          2.6837825295444873E-009
  0.10440000000000002          1.5796457475403258E-008
  0.10550000000000001          1.3188098613170496E-008
  0.10660000000000003         -5.9210742975324138E-009
  0.10770000000000002         -2.3885231570375254E-008
  0.10880000000000001         -2.2168965330138235E-008
  0.10990000000000003          4.8142023700847858E-010
  0.11100000000000002          2.6744087833208141E-008
  0.11210000000000001          3.4718397046162863E-008
  0.11320000000000002          1.9417011998257294E-008
  0.11430000000000001         -4.8943893382613624E-009
  0.11540000000000003         -1.7401569962771646E-008
  0.11650000000000002         -1.0365013736191031E-008
  0.11760000000000001          4.0816701130097499E-009
  0.11870000000000003          8.4943199141207515E-009
  0.11980000000000002         -2.5810296122585896E-009
  0.12090000000000001         -1.7716601519168762E-008
  0.12200000000000003         -2.1859099419430095E-008
  0.12310000000000001         -8.8285645460928208E-009
  0.12420000000000003          1.1556080536934132E-008
  0.12530000000000002          2.3959206174595238E-008
  0.12640000000000001          2.1568965280494012E-008
  0.12750000000000003          9.9558370436625410E-009
  0.12860000000000002          7.2559569463948037E-011
  0.12970000000000001         -2.4073105731048372E-009
  0.13080000000000003         -5.9168137056531123E-010
  0.13190000000000002          1.8200368989695903E-010
  0.13300000000000001         -6.3971844488364127E-010
  0.13410000000000000          9.6752195144489406E-010
  0.13520000000000004          7.2668724371283133E-009
  0.13630000000000003          1.4493890532207843E-008
  0.13740000000000002          1.5973409261960114E-008
  0.13850000000000001          9.9285211163646636E-009
  0.13960000000000000          1.5689487486980624E-009
  0.14070000000000005         -2.4323840719375767E-009
  0.14180000000000004         -1.5623469185044314E-009
  0.14290000000000003         -2.3997537290654236E-009
  0.14400000000000002         -1.0528530047793083E-008
  0.14510000000000001         -2.2586444714534082E-008
  0.14620000000000000         -2.7668935587144006E-008
  0.14730000000000004         -1.7825854570219235E-008
  0.14840000000000003          2.4568360679211310E-009
  0.14950000000000002          1.8782380095672124E-008
  0.15060000000000001          1.9475397294854702E-008
  0.15170000000000000          6.5973710938749264E-009
  0.15280000000000005         -6.1260454486955496E-009
  0.15390000000000004         -6.5814078631376560E-009
  0.15500000000000003          4.2677648082189990E-009
  0.15610000000000002          1.3788177710694072E-008
  0.15720000000000001          1.0875282896449789E-008
  0.15830000000000000         -2.5080328924786954E-009
  0.15940000000000004         -1.3112831709349848E-008
  0.16050000000000003         -9.6116092862530422E-009
  0.16160000000000002          5.9257492246445054E-009
  0.16270000000000001          1.9751182023242109E-008
  0.16380000000000000          1.9412892626746725E-008
  0.16490000000000005          5.2178656950729874E-009
  0.16600000000000004         -1.0780398795873225E-008
  0.16710000000000003         -1.6592817786431624E-008
  0.16820000000000002         -1.0643029568768725E-008
  0.16930000000000001         -1.4581723606355013E-009
  0.17040000000000000          2.2200647986636568E-009
  0.17150000000000004         -4.0210013096952935E-010
  0.17260000000000003         -3.0856055488470702E-009
  0.17370000000000002         -2.5436874828699274E-010
  0.17480000000000001          6.8353949167487826E-009
  0.17590000000000000          1.2078788635960791E-008
  0.17700000000000005          1.0949516848768326E-008
  0.17810000000000004          4.6278891829842905E-009
  0.17920000000000003         -2.2917359121521486E-009
  0.18030000000000002         -6.6420726696492238E-009
  0.18140000000000001         -8.5219928891433483E-009
  0.18250000000000000         -8.6611384730872487E-009
  0.18360000000000004         -5.8240203770765220E-009
  0.18470000000000003          2.0530834810017495E-009
  0.18580000000000002          1.3447869484650710E-008
  0.18690000000000001          2.1779705150493101E-008
  0.18800000000000000          1.9711981380510224E-008
  0.18910000000000005          6.3293601471059446E-009
  0.19020000000000004         -1.0705948128020282E-008
  0.19130000000000003         -2.0874509232271521E-008
  0.19240000000000002         -1.9370213877323295E-008
  0.19350000000000001         -1.0676501460693544E-008
  0.19460000000000005         -3.4980893737213137E-009
  0.19570000000000004         -1.9711043908188230E-009
  0.19680000000000003         -2.3725568176757861E-009
  0.19790000000000002          1.6312862172185305E-009
  0.19900000000000001          1.0852973630903762E-008
  0.20010000000000000          1.8472251284151753E-008
  0.20120000000000005          1.6315318873694196E-008
  0.20230000000000004          3.7962930576895815E-009
  0.20340000000000003         -1.0281097750919344E-008
  0.20450000000000002         -1.5073071679694294E-008
  0.20560000000000000         -7.5353021600221837E-009
  0.20670000000000005          4.9231343446365372E-009
  0.20780000000000004          1.1519235343371292E-008
  0.20890000000000003          7.9927211515951058E-009
