 -0.12000000000000000          0.0000000000000000
 -0.11889999999999999          0.0000000000000000
 -0.11780000000000000          0.0000000000000000
 -0.11670000000000000          0.0000000000000000
 -0.11559999999999999          0.0000000000000000
 -0.11449999999999999          0.0000000000000000
 -0.11340000000000000          0.0000000000000000
 -0.11230000000000000          1.9851719485692078E-019
 -0.11119999999999999         -2.6800147783532322E-020
 -0.11009999999999999         -6.7430253930704907E-018
 -0.10900000000000000         -2.6058793259988689E-017
 -0.10790000000000000         -1.4966426977105696E-017
 -0.10679999999999999          1.6841296686417157E-016
 -0.10569999999999999          5.6684556561001050E-016
 -0.10460000000000000          5.0101024742202523E-016
 -0.10349999999999999         -1.6920250745013098E-015
 -0.10239999999999999         -6.5785034077071522E-015
 -0.10130000000000000         -8.7684173073407368E-015
 -0.10020000000000000          4.8206368740289895E-015
  -9.9099999999999994E-002     4.2386985577274466E-014
  -9.7999999999999990E-002     7.9162364326462037E-014
  -9.6899999999999986E-002     4.3023500343949972E-014
  -9.5799999999999996E-002    -1.3500054481425938E-013
  -9.4699999999999993E-002    -3.9531632091069357E-013
  -9.3599999999999989E-002    -4.5676510533956827E-013
  -9.2499999999999999E-002     4.8225664997861295E-014
  -9.1399999999999995E-002     1.1372336449280707E-012
  -9.0299999999999991E-002     2.0445192847745597E-012
  -8.9200000000000002E-002     1.4175650670661399E-012
  -8.8099999999999984E-002    -1.4972919822400788E-012
  -8.6999999999999994E-002    -5.3474316988322279E-012
  -8.5899999999999990E-002    -6.5302442273096339E-012
  -8.4799999999999986E-002    -1.7096107515768288E-012
  -8.3699999999999997E-002     8.0996008511302620E-012
  -8.2599999999999993E-002     1.5730063085417356E-011
  -8.1499999999999989E-002     1.2043056656085849E-011
  -8.0399999999999999E-002    -5.0440775688220807E-012
  -7.9299999999999995E-002    -2.4333490084016418E-011
  -7.8199999999999992E-002    -2.6789369333979351E-011
  -7.7100000000000002E-002    -2.8186819198139368E-012
  -7.5999999999999984E-002     3.2212905953787896E-011
  -7.4899999999999994E-002     4.3061422483336997E-011
  -7.3799999999999991E-002     5.0867469958415512E-012
  -7.2699999999999987E-002    -6.1833829723134670E-011
  -7.1599999999999997E-002    -9.2813645657940924E-011
  -7.0499999999999993E-002    -2.7960578297125949E-011
  -6.9399999999999989E-002     1.1823829415558151E-010
  -6.8300000000000000E-002     2.3475579813414527E-010
  -6.7199999999999996E-002     1.8389004208252402E-010
  -6.6099999999999992E-002    -7.0954853104154836E-011
  -6.5000000000000002E-002    -3.8734754292946150E-010
  -6.3899999999999985E-002    -5.1203791207043992E-010
  -6.2799999999999995E-002    -2.7728108697999687E-010
  -6.1699999999999991E-002     2.2523052867207127E-010
  -6.0599999999999994E-002     6.6402500165096967E-010
  -5.9499999999999990E-002     7.0841232879814697E-010
  -5.8399999999999994E-002     3.1041541559417851E-010
  -5.7299999999999990E-002    -2.2884345807216988E-010
  -5.6199999999999986E-002    -5.0539417095762929E-010
  -5.5099999999999996E-002    -3.8000430579998579E-010
  -5.3999999999999992E-002    -1.2248660419267310E-010
  -5.2899999999999989E-002    -1.5238124650984730E-010
  -5.1799999999999985E-002    -5.7404425657381353E-010
  -5.0699999999999995E-002    -9.5406771372097410E-010
  -4.9599999999999991E-002    -6.3128091642994377E-010
  -4.8499999999999988E-002     6.3395011462574757E-010
  -4.7399999999999998E-002     2.2472870231382558E-009
  -4.6299999999999994E-002     3.0627012037598433E-009
  -4.5199999999999990E-002     2.2313522141104158E-009
  -4.4099999999999986E-002    -6.2325589134104575E-011
  -4.2999999999999997E-002    -2.6350908122196870E-009
  -4.1899999999999993E-002    -4.1289918151221627E-009
  -4.0799999999999989E-002    -3.9414014274541387E-009
  -3.9699999999999985E-002    -2.4769712947403377E-009
  -3.8599999999999995E-002    -5.6951654503478721E-010
  -3.7499999999999992E-002     1.2964319617836395E-009
  -3.6399999999999988E-002     3.1704012748434707E-009
  -3.5299999999999984E-002     5.0756545633134920E-009
  -3.4199999999999994E-002     6.3765885904842889E-009
  -3.3099999999999991E-002     5.8959637172506518E-009
  -3.1999999999999987E-002     2.8640252391909371E-009
  -3.0899999999999997E-002    -2.1400619054645631E-009
  -2.9799999999999993E-002    -7.2312973387056445E-009
  -2.8699999999999989E-002    -1.0349434198531071E-008
  -2.7599999999999986E-002    -1.0517060111681076E-008
  -2.6499999999999996E-002    -8.1096525050838864E-009
  -2.5399999999999992E-002    -4.0050354144227640E-009
  -2.4299999999999988E-002     1.3607228677159355E-009
  -2.3199999999999985E-002     7.9038464662062324E-009
  -2.2099999999999995E-002     1.4806103898479250E-008
  -2.0999999999999991E-002     1.9734807565896517E-008
  -1.9899999999999987E-002     1.9631148262533316E-008
  -1.8799999999999983E-002     1.2818345496157235E-008
  -1.7699999999999994E-002     6.3428950980437548E-010
  -1.6599999999999990E-002    -1.3113583108292914E-008
  -1.5499999999999986E-002    -2.4690153921369529E-008
  -1.4399999999999996E-002    -3.2844518216279539E-008
  -1.3299999999999992E-002    -3.8958120285315090E-008
  -1.2199999999999989E-002    -4.4926341757900445E-008
  -1.1099999999999985E-002    -5.1037858384006540E-008
  -9.9999999999999950E-003    -5.6190074815276603E-008
  -8.8999999999999913E-003    -6.0404929058677226E-008
  -7.7999999999999875E-003    -6.7062629227621073E-008
  -6.6999999999999837E-003    -8.2210284801931266E-008
  -5.5999999999999939E-003    -1.1102918051619781E-007
  -4.4999999999999901E-003    -1.5448821955033054E-007
  -3.3999999999999864E-003    -2.0935630118401605E-007
  -2.2999999999999826E-003    -2.7172424665877770E-007
  -1.1999999999999927E-003    -3.4084871458617272E-007
  -9.9999999999988987E-005    -4.1982590914813045E-007
   1.0000000000000148E-003    -5.1277282864248264E-007
   2.1000000000000185E-003    -6.2173978676582919E-007
   3.2000000000000084E-003    -7.4687943651952082E-007
   4.3000000000000121E-003    -8.9002378445002250E-007
   5.4000000000000159E-003    -1.0581389915387263E-006
   6.5000000000000058E-003    -1.2629636785277398E-006
   7.6000000000000234E-003    -1.5168516256380826E-006
   8.7000000000000133E-003    -1.8287053080712212E-006
   9.8000000000000032E-003    -2.2039125724404585E-006
   1.0900000000000021E-002    -2.6481654913368402E-006
   1.2000000000000011E-002    -3.1710878829471767E-006
   1.3100000000000001E-002    -3.7858578707528068E-006
   1.4200000000000018E-002    -4.5053907342662569E-006
   1.5300000000000008E-002    -5.3395920076582115E-006
   1.6400000000000026E-002    -6.2973826970846858E-006
   1.7500000000000016E-002    -7.3921696639445145E-006
   1.8600000000000005E-002    -8.6454092524945736E-006
   1.9700000000000023E-002    -1.0084310815727804E-005
   2.0800000000000013E-002    -1.1735463885997888E-005
   2.1900000000000003E-002    -1.3620483514387161E-005
   2.3000000000000020E-002    -1.5757923392811790E-005
   2.4100000000000010E-002    -1.8169062968809158E-005
   2.5200000000000000E-002    -2.0880876036244445E-005
   2.6300000000000018E-002    -2.3921944375615567E-005
   2.7400000000000008E-002    -2.7314577891957015E-005
   2.8500000000000025E-002    -3.1071074772626162E-005
   2.9600000000000015E-002    -3.5198481782572344E-005
   3.0700000000000005E-002    -3.9707600080873817E-005
   3.1800000000000023E-002    -4.4616783270612359E-005
   3.2900000000000013E-002    -4.9945054342970252E-005
   3.4000000000000002E-002    -5.5699227232253179E-005
   3.5100000000000020E-002    -6.1865437601227313E-005
   3.6200000000000010E-002    -6.8411420215852559E-005
   3.7300000000000028E-002    -7.5295269198250026E-005
   3.8400000000000017E-002    -8.2469574408605695E-005
   3.9500000000000007E-002    -8.9874585682991892E-005
   4.0600000000000025E-002    -9.7425276180729270E-005
   4.1700000000000015E-002    -1.0500384087208658E-004
   4.2800000000000005E-002    -1.1246398207731545E-004
   4.3900000000000022E-002    -1.1964111763518304E-004
   4.5000000000000012E-002    -1.2635625898838043E-004
   4.6100000000000002E-002    -1.3240698899608105E-004
   4.7200000000000020E-002    -1.3755229883827269E-004
   4.8300000000000010E-002    -1.4150403148960322E-004
   4.9400000000000027E-002    -1.4393069432117045E-004
   5.0500000000000017E-002    -1.4446862041950226E-004
   5.1600000000000007E-002    -1.4272594125941396E-004
   5.2700000000000025E-002    -1.3827437942381948E-004
   5.3800000000000014E-002    -1.3063728692941368E-004
   5.4900000000000004E-002    -1.1928809544770047E-004
   5.6000000000000022E-002    -1.0366395144956186E-004
   5.7100000000000012E-002    -8.3185463154222816E-005
   5.8200000000000002E-002    -5.7265140640083700E-005
   5.9300000000000019E-002    -2.5300178094767034E-005
   6.0400000000000009E-002     1.3339211363927461E-005
   6.1500000000000027E-002     5.9308691561454907E-005
   6.2600000000000017E-002     1.1327014362905174E-004
   6.3700000000000007E-002     1.7586702597327530E-004
   6.4800000000000024E-002     2.4771070457063615E-004
   6.5900000000000014E-002     3.2938338699750602E-004
   6.7000000000000004E-002     4.2144238250330091E-004
   6.8100000000000022E-002     5.2440754370763898E-004
   6.9200000000000012E-002     6.3872872851788998E-004
   7.0300000000000029E-002     7.6475198147818446E-004
   7.1400000000000019E-002     9.0270442888140678E-004
   7.2500000000000009E-002     1.0527017293497920E-003
   7.3600000000000027E-002     1.2147572124376893E-003
   7.4700000000000016E-002     1.3887729728594422E-003
   7.5800000000000006E-002     1.5745068667456508E-003
   7.6900000000000024E-002     1.7715366557240486E-003
   7.8000000000000014E-002     1.9792467355728149E-003
   7.9100000000000004E-002     2.1968418732285500E-003
   8.0200000000000021E-002     2.4233642034232616E-003
   8.1300000000000011E-002     2.6576907839626074E-003
   8.2400000000000029E-002     2.8985044918954372E-003
   8.3500000000000019E-002     3.1442695762962103E-003
   8.4600000000000009E-002     3.3932318910956383E-003
   8.5700000000000026E-002     3.6434496287256479E-003
   8.6800000000000016E-002     3.8928259164094925E-003
   8.7900000000000006E-002     4.1391141712665558E-003
   8.9000000000000024E-002     4.3798964470624924E-003
   9.0100000000000013E-002     4.6125715598464012E-003
   9.1200000000000003E-002     4.8343725502490997E-003
   9.2300000000000021E-002     5.0424151122570038E-003
   9.3400000000000011E-002     5.2337460219860077E-003
   9.4500000000000028E-002     5.4053524509072304E-003
   9.5600000000000018E-002     5.5541442707180977E-003
   9.6700000000000008E-002     5.6769414804875851E-003
   9.7800000000000026E-002     5.7704951614141464E-003
   9.8900000000000016E-002     5.8315470814704895E-003
  0.10000000000000001          5.8568781241774559E-003
  0.10110000000000002          5.8433194644749165E-003
  0.10220000000000001          5.7877311483025551E-003
  0.10330000000000003          5.6869830004870892E-003
  0.10440000000000002          5.5379718542098999E-003
  0.10550000000000001          5.3376797586679459E-003
  0.10660000000000003          5.0832219421863556E-003
  0.10770000000000002          4.7718482092022896E-003
  0.10880000000000001          4.4009103439748287E-003
  0.10990000000000003          3.9678383618593216E-003
  0.11100000000000002          3.4701649565249681E-003
  0.11210000000000001          2.9055872000753880E-003
  0.11320000000000002          2.2720198612660170E-003
  0.11430000000000001          1.5675998292863369E-003
  0.11540000000000003          7.9065671889111400E-004
  0.11650000000000002         -6.0305206716293469E-005
  0.11760000000000001         -9.8656595218926668E-004
  0.11870000000000003         -1.9890991970896721E-003
  0.11980000000000002         -3.0684880912303925E-003
  0.12090000000000001         -4.2248899117112160E-003
  0.12200000000000003         -5.4580420255661011E-003
  0.12310000000000001         -6.7672478035092354E-003
  0.12420000000000003         -8.1513086333870888E-003
  0.12530000000000002         -9.6084009855985641E-003
  0.12640000000000001         -1.1135966517031193E-002
  0.12750000000000003         -1.2730662710964680E-002
  0.12860000000000002         -1.4388341456651688E-002
  0.12970000000000001         -1.6104029491543770E-002
  0.13080000000000003         -1.7871839925646782E-002
  0.13190000000000002         -1.9684849306941032E-002
  0.13300000000000001         -2.1534996107220650E-002
  0.13410000000000000         -2.3413047194480896E-002
  0.13520000000000004         -2.5308625772595406E-002
  0.13630000000000003         -2.7210231870412827E-002
  0.13740000000000002         -2.9105240479111671E-002
  0.13850000000000001         -3.0979840084910393E-002
  0.13960000000000000         -3.2819036394357681E-002
  0.14070000000000005         -3.4606717526912689E-002
  0.14180000000000004         -3.6325816065073013E-002
  0.14290000000000003         -3.7958450615406036E-002
  0.14400000000000002         -3.9486058056354523E-002
  0.14510000000000001         -4.0889505296945572E-002
  0.14620000000000000         -4.2149223387241364E-002
  0.14730000000000004         -4.3245445936918259E-002
  0.14840000000000003         -4.4158518314361572E-002
  0.14950000000000002         -4.4869206845760345E-002
  0.15060000000000001         -4.5358937233686447E-002
  0.15170000000000000         -4.5610014349222183E-002
  0.15280000000000005         -4.5605916529893875E-002
  0.15390000000000004         -4.5331604778766632E-002
  0.15500000000000003         -4.4773917645215988E-002
  0.15610000000000002         -4.3921887874603271E-002
  0.15720000000000001         -4.2767006903886795E-002
  0.15830000000000000         -4.1303399950265884E-002
  0.15940000000000004         -3.9528034627437592E-002
  0.16050000000000003         -3.7440966814756393E-002
  0.16160000000000002         -3.5045590251684189E-002
  0.16270000000000001         -3.2348770648241043E-002
  0.16380000000000000         -2.9360879212617874E-002
  0.16490000000000005         -2.6095749810338020E-002
  0.16600000000000004         -2.2570621222257614E-002
  0.16710000000000003         -1.8806112930178642E-002
  0.16820000000000002         -1.4826146885752678E-002
  0.16930000000000001         -1.0657758451998234E-002
  0.17040000000000000         -6.3308030366897583E-003
  0.17150000000000004         -1.8775771604850888E-003
  0.17260000000000003          2.6675541885197163E-003
  0.17370000000000002          7.2685112245380878E-003
  0.17480000000000001          1.1887870728969574E-002
  0.17590000000000000          1.6487311571836472E-002
  0.17700000000000005          2.1028149873018265E-002
  0.17810000000000004          2.5471899658441544E-002
  0.17920000000000003          2.9780803248286247E-002
  0.18030000000000002          3.3918283879756927E-002
  0.18140000000000001          3.7849389016628265E-002
  0.18250000000000000          4.1541226208209991E-002
  0.18360000000000004          4.4963430613279343E-002
  0.18470000000000003          4.8088628798723221E-002
  0.18580000000000002          5.0892796367406845E-002
  0.18690000000000001          5.3355515003204346E-002
  0.18800000000000000          5.5460158735513687E-002
  0.18910000000000005          5.7194069027900696E-002
  0.19020000000000004          5.8548729866743088E-002
  0.19130000000000003          5.9519838541746140E-002
  0.19240000000000002          6.0107313096523285E-002
  0.19350000000000001          6.0315165668725967E-002
  0.19460000000000005          6.0151293873786926E-002
  0.19570000000000004          5.9627324342727661E-002
  0.19680000000000003          5.8758366852998734E-002
  0.19790000000000002          5.7562775909900665E-002
  0.19900000000000001          5.6061808019876480E-002
  0.20010000000000000          5.4279174655675888E-002
  0.20120000000000005          5.2240628749132156E-002
  0.20230000000000004          4.9973573535680771E-002
  0.20340000000000003          4.7506708651781082E-002
  0.20450000000000002          4.4869609177112579E-002
  0.20560000000000000          4.2092304676771164E-002
  0.20670000000000005          3.9204776287078857E-002
  0.20780000000000004          3.6236584186553955E-002
  0.20890000000000003          3.3216521143913269E-002
