 -0.12000000000000000          0.0000000000000000     
 -0.11889999999999999          0.0000000000000000     
 -0.11780000000000000          0.0000000000000000     
 -0.11670000000000000          0.0000000000000000     
 -0.11559999999999999          0.0000000000000000     
 -0.11449999999999999          0.0000000000000000     
 -0.11340000000000000         -4.2764139069740484E-020
 -0.11230000000000000         -5.7893793925511972E-013
 -0.11119999999999999         -2.9382637815877910E-012
 -0.11009999999999999         -1.3134713585868929E-012
 -0.10900000000000000          2.9832723097422686E-011
 -0.10790000000000000          1.0526831489832134E-010
 -0.10679999999999999          1.0052769033874753E-010
 -0.10569999999999999         -3.2900765445376123E-010
 -0.10460000000000000         -1.3330859749416391E-009
 -0.10349999999999999         -1.8040282601106128E-009
 -0.10239999999999999          1.0224157076521578E-009
 -0.10130000000000000          8.7406171189741144E-009
 -0.10020000000000000          1.5601102631990216E-008
  -9.9099999999999994E-002     6.0568452475706636E-009
  -9.7999999999999990E-002    -3.2476709321827002E-008
  -9.6899999999999986E-002    -8.1627405279505183E-008
  -9.5799999999999996E-002    -7.6854867359088530E-008
  -9.4699999999999993E-002     5.1379419829800099E-008
  -9.3599999999999989E-002     2.7567872962208639E-007
  -9.2499999999999999E-002     3.9652371697229682E-007
  -9.1399999999999995E-002     1.3578987534401676E-007
  -9.0299999999999991E-002    -5.6372289236605866E-007
  -8.9200000000000002E-002    -1.2536877420643577E-006
  -8.8099999999999984E-002    -1.1065234275520197E-006
  -8.6999999999999994E-002     3.7490829640773882E-007
  -8.5899999999999990E-002     2.5197020931955194E-006
  -8.4799999999999986E-002     3.4697497994784499E-006
  -8.3699999999999997E-002     1.5408496665259008E-006
  -8.2599999999999993E-002    -2.8119607122789603E-006
  -8.1499999999999989E-002    -6.3869752011669334E-006
  -8.0399999999999999E-002    -5.4112006182549521E-006
  -7.9299999999999995E-002     6.3237342828870169E-007
  -7.8199999999999992E-002     7.1689482865622267E-006
  -7.7100000000000002E-002     7.7137328844401054E-006
  -7.5999999999999984E-002     5.5433264378734748E-007
  -7.4899999999999994E-002    -7.4401123129064217E-006
  -7.3799999999999991E-002    -5.7143060985254124E-006
  -7.2699999999999987E-002     8.3246395661262795E-006
  -7.1599999999999997E-002     2.1855059458175674E-005
  -7.0499999999999993E-002     1.4389395801117644E-005
  -6.9399999999999989E-002    -2.1162910343264230E-005
  -6.8300000000000000E-002    -6.2377621361520141E-005
  -6.7199999999999996E-002    -6.6853310272563249E-005
  -6.6099999999999992E-002    -8.2282940638833679E-006
  -6.5000000000000002E-002     8.9137451141141355E-005
  -6.3899999999999985E-002     1.5371626068372279E-004
  -6.2799999999999995E-002     1.1838425416499376E-004
  -6.1699999999999991E-002    -1.6347366909030825E-005
  -6.0599999999999994E-002    -1.6605028940830380E-004
  -5.9499999999999990E-002    -2.2006779909133911E-004
  -5.8399999999999994E-002    -1.3344157196115702E-004
  -5.7299999999999990E-002     2.8355001632007770E-005
  -5.6199999999999986E-002     1.4159677084535360E-004
  -5.5099999999999996E-002     1.3526652764994651E-004
  -5.3999999999999992E-002     5.7976605603471398E-005
  -5.2899999999999989E-002     2.7652036806102842E-005
  -5.1799999999999985E-002     1.0117360943695530E-004
  -5.0699999999999995E-002     1.9172434986103326E-004
  -4.9599999999999991E-002     1.3372478133533150E-004
  -4.8499999999999988E-002    -1.4336552703753114E-004
  -4.7399999999999998E-002    -4.9520441098138690E-004
  -4.6299999999999994E-002    -6.3665729248896241E-004
  -4.5199999999999990E-002    -3.7765791057609022E-004
  -4.4099999999999986E-002     1.8088000069838017E-004
  -4.2999999999999997E-002     6.8644457496702671E-004
  -4.1899999999999993E-002     8.0352445365861058E-004
  -4.0799999999999989E-002     4.8511131899431348E-004
  -3.9699999999999985E-002    -9.2634968495985959E-007
  -3.8599999999999995E-002    -3.2045706757344306E-004
  -3.7499999999999992E-002    -3.6445882869884372E-004
  -3.6399999999999988E-002    -3.0319279176183045E-004
  -3.5299999999999984E-002    -3.5288668004795909E-004
  -3.4199999999999994E-002    -4.9724517157301307E-004
  -3.3099999999999991E-002    -4.6620084322057664E-004
  -3.1999999999999987E-002    -2.2922809876035899E-005
  -3.0899999999999997E-002     7.1591028245165944E-004
  -2.9799999999999993E-002     1.2693837052211165E-003
  -2.8699999999999989E-002     1.1521503329277039E-003
  -2.7599999999999986E-002     2.9724524938501418E-004
  -2.6499999999999996E-002    -8.5079064592719078E-004
  -2.5399999999999992E-002    -1.6651337500661612E-003
  -2.4299999999999988E-002    -1.7829550197347999E-003
  -2.3199999999999985E-002    -1.2658267514780164E-003
  -2.2099999999999995E-002    -3.7560262717306614E-004
  -2.0999999999999991E-002     7.4171356391161680E-004
  -1.9899999999999987E-002     2.1047890186309814E-003
  -1.8799999999999983E-002     3.6513744853436947E-003
  -1.7699999999999994E-002     5.0406204536557198E-003
  -1.6599999999999990E-002     5.8292960748076439E-003
  -1.5499999999999986E-002     5.9249731712043285E-003
  -1.4399999999999996E-002     5.8387424796819687E-003
  -1.3299999999999992E-002     6.3717910088598728E-003
  -1.2199999999999989E-002     7.9368082806468010E-003
  -1.1099999999999985E-002     1.0164789855480194E-002
  -9.9999999999999950E-003     1.2269217520952225E-002
  -8.8999999999999913E-003     1.3920569792389870E-002
  -7.7999999999999875E-003     1.5813045203685760E-002
  -6.6999999999999837E-003     1.9304534420371056E-002
  -5.5999999999999939E-003     2.5362238287925720E-002
  -4.4999999999999901E-003     3.3754531294107437E-002
  -3.3999999999999864E-003     4.3271519243717194E-002
  -2.2999999999999826E-003     5.2831493318080902E-002
  -1.1999999999999927E-003     6.2501125037670135E-002
  -9.9999999999988987E-005     7.3545411229133606E-002
   1.0000000000000148E-003     8.7526626884937286E-002
   2.1000000000000185E-003    0.10534581542015076     
   3.2000000000000084E-003    0.12707804143428802     
   4.3000000000000121E-003    0.15262649953365326     
   5.4000000000000159E-003    0.18240511417388916     
   6.5000000000000058E-003    0.21735450625419617     
   7.6000000000000234E-003    0.25837835669517517     
   8.7000000000000133E-003    0.30590811371803284     
   9.8000000000000032E-003    0.36020314693450928     
   1.0900000000000021E-002    0.42206567525863647     
   1.2000000000000011E-002    0.49314939975738525     
   1.3100000000000001E-002    0.57544207572937012     
   1.4200000000000018E-002    0.67044150829315186     
   1.5300000000000008E-002    0.77879554033279419     
   1.6400000000000026E-002    0.90094047784805298     
   1.7500000000000016E-002     1.0379761457443237     
   1.8600000000000005E-002     1.1918399333953857     
   1.9700000000000023E-002     1.3645559549331665     
   2.0800000000000013E-002     1.5573242902755737     
   2.1900000000000003E-002     1.7705099582672119     
   2.3000000000000020E-002     2.0044980049133301     
   2.4100000000000010E-002     2.2607057094573975     
   2.5200000000000000E-002     2.5415632724761963     
   2.6300000000000018E-002     2.8490116596221924     
   2.7400000000000008E-002     3.1833143234252930     
   2.8500000000000025E-002     3.5428204536437988     
   2.9600000000000015E-002     3.9253902435302734     
   3.0700000000000005E-002     4.3299055099487305     
   3.1800000000000023E-002     4.7561993598937988     
   3.2900000000000013E-002     5.2041873931884766     
   3.4000000000000002E-002     5.6721777915954590     
   3.5100000000000020E-002     6.1562333106994629     
   3.6200000000000010E-002     6.6510028839111328     
   3.7300000000000028E-002     7.1510019302368164     
   3.8400000000000017E-002     7.6502432823181152     
   3.9500000000000007E-002     8.1421041488647461     
   4.0600000000000025E-002     8.6187543869018555     
   4.1700000000000015E-002     9.0715970993041992     
   4.2800000000000005E-002     9.4913139343261719     
   4.3900000000000022E-002     9.8688077926635742     
   4.5000000000000012E-002     10.193135261535645     
   4.6100000000000002E-002     10.451924324035645     
   4.7200000000000020E-002     10.631873130798340     
   4.8300000000000010E-002     10.719809532165527     
   4.9400000000000027E-002     10.702939033508301     
   5.0500000000000017E-002     10.570490837097168     
   5.1600000000000007E-002     10.309968948364258     
   5.2700000000000025E-002     9.9079761505126953     
   5.3800000000000014E-002     9.3522539138793945     
   5.4900000000000004E-002     8.6315507888793945     
   5.6000000000000022E-002     7.7371768951416016     
   5.7100000000000012E-002     6.6652398109436035     
   5.8200000000000002E-002     5.4100475311279297     
   5.9300000000000019E-002     3.9687919616699219     
   6.0400000000000009E-002     2.3408293724060059     
   6.1500000000000027E-002    0.52961844205856323     
   6.2600000000000017E-002    -1.4572775363922119     
   6.3700000000000007E-002    -3.6078033447265625     
   6.4800000000000024E-002    -5.9122438430786133     
   6.5900000000000014E-002    -8.3564281463623047     
   6.7000000000000004E-002    -10.917898178100586     
   6.8100000000000022E-002    -13.572938919067383     
   6.9200000000000012E-002    -16.292863845825195     
   7.0300000000000029E-002    -19.043704986572266     
   7.1400000000000019E-002    -21.793348312377930     
   7.2500000000000009E-002    -24.506578445434570     
   7.3600000000000027E-002    -27.146007537841797     
   7.4700000000000016E-002    -29.672929763793945     
   7.5800000000000006E-002    -32.046066284179688     
   7.6900000000000024E-002    -34.224433898925781     
   7.8000000000000014E-002    -36.165912628173828     
   7.9100000000000004E-002    -37.837764739990234     
   8.0200000000000021E-002    -39.204978942871094     
   8.1300000000000011E-002    -40.232711791992188     
   8.2400000000000029E-002    -40.888809204101562     
   8.3500000000000019E-002    -41.144596099853516     
   8.4600000000000009E-002    -40.984291076660156     
   8.5700000000000026E-002    -40.397655487060547     
   8.6800000000000016E-002    -39.381416320800781     
   8.7900000000000006E-002    -37.932571411132812     
   8.9000000000000024E-002    -36.053787231445312     
   9.0100000000000013E-002    -33.759105682373047     
   9.1200000000000003E-002    -31.074989318847656     
   9.2300000000000021E-002    -28.031789779663086     
   9.3400000000000011E-002    -24.665508270263672     
   9.4500000000000028E-002    -21.015789031982422     
   9.5600000000000018E-002    -17.125093460083008     
   9.6700000000000008E-002    -13.045983314514160     
   9.7800000000000026E-002    -8.8403244018554688     
   9.8900000000000016E-002    -4.5746216773986816     
  0.10000000000000001        -0.31441476941108704     
  0.10110000000000002          3.8812587261199951     
  0.10220000000000001          7.9554805755615234     
  0.10330000000000003          11.843649864196777     
  0.10440000000000002          15.483072280883789     
  0.10550000000000001          18.813026428222656     
  0.10660000000000003          21.783079147338867     
  0.10770000000000002          24.353967666625977     
  0.10880000000000001          26.489107131958008     
  0.10990000000000003          28.159122467041016     
  0.11100000000000002          29.332958221435547     
  0.11210000000000001          29.993270874023438     
  0.11320000000000002          30.139369964599609     
  0.11430000000000001          29.780685424804688     
  0.11540000000000003          28.939136505126953     
  0.11650000000000002          27.640121459960938     
  0.11760000000000001          25.910678863525391     
  0.11870000000000003          23.791034698486328     
  0.11980000000000002          21.330871582031250     
  0.12090000000000001          18.593923568725586     
  0.12200000000000003          15.650886535644531     
  0.12310000000000001          12.570694923400879     
  0.12420000000000003          9.4172430038452148     
  0.12530000000000002          6.2579545974731445     
  0.12640000000000001          3.1734514236450195     
  0.12750000000000003         0.24896292388439178     
  0.12860000000000002         -2.4312589168548584     
  0.12970000000000001         -4.7961177825927734     
  0.13080000000000003         -6.7881026268005371     
  0.13190000000000002         -8.3531541824340820     
  0.13300000000000001         -9.4349317550659180     
  0.13410000000000000         -9.9760723114013672     
  0.13520000000000004         -9.9282655715942383     
  0.13630000000000003         -9.2655096054077148     
  0.13740000000000002         -7.9839692115783691     
  0.13850000000000001         -6.0859842300415039     
  0.13960000000000000         -3.5749623775482178     
  0.14070000000000005        -0.46075549721717834     
  0.14180000000000004          3.2389626502990723     
  0.14290000000000003          7.4799695014953613     
  0.14400000000000002          12.190931320190430     
  0.14510000000000001          17.300161361694336     
  0.14620000000000000          22.730663299560547     
  0.14730000000000004          28.415077209472656     
  0.14840000000000003          34.267345428466797     
  0.14950000000000002          40.180023193359375     
  0.15060000000000001          46.033683776855469     
  0.15170000000000000          51.712261199951172     
  0.15280000000000005          57.111431121826172     
  0.15390000000000004          62.137504577636719     
  0.15500000000000003          66.689231872558594     
  0.15610000000000002          70.659652709960938     
  0.15720000000000001          73.939163208007812     
  0.15830000000000000          76.427833557128906     
  0.15940000000000004          78.053466796875000     
  0.16050000000000003          78.764549255371094     
  0.16160000000000002          78.514457702636719     
  0.16270000000000001          77.262863159179688     
  0.16380000000000000          74.973457336425781     
  0.16490000000000005          71.633979797363281     
  0.16600000000000004          67.262763977050781     
  0.16710000000000003          61.901065826416016     
  0.16820000000000002          55.604747772216797     
  0.16930000000000001          48.435047149658203     
  0.17040000000000000          40.458927154541016     
  0.17150000000000004          31.762069702148438     
  0.17260000000000003          22.454040527343750     
  0.17370000000000002          12.664916992187500     
  0.17480000000000001          2.5307254791259766     
  0.17590000000000000         -7.8131546974182129     
  0.17700000000000005         -18.235397338867188     
  0.17810000000000004         -28.596595764160156     
  0.17920000000000003         -38.753017425537109     
  0.18030000000000002         -48.558483123779297     
  0.18140000000000001         -57.874687194824219     
  0.18250000000000000         -66.576377868652344     
  0.18360000000000004         -74.549751281738281     
  0.18470000000000003         -81.693428039550781     
  0.18580000000000002         -87.914978027343750     
  0.18690000000000001         -93.139350891113281     
  0.18800000000000000         -97.306457519531250     
  0.18910000000000005         -100.37035369873047     
  0.19020000000000004         -102.30886077880859     
  0.19130000000000003         -103.11462402343750     
  0.19240000000000002         -102.80165863037109     
  0.19350000000000001         -101.40285491943359     
  0.19460000000000005         -98.961990356445312     
  0.19570000000000004         -95.539031982421875     
  0.19680000000000003         -91.205429077148438     
  0.19790000000000002         -86.043251037597656     
  0.19900000000000001         -80.147377014160156     
  0.20010000000000000         -73.624023437500000     
  0.20120000000000005         -66.583442687988281     
  0.20230000000000004         -59.138866424560547     
  0.20340000000000003         -51.403964996337891     
  0.20450000000000002         -43.483963012695312     
  0.20560000000000000         -35.484512329101562     
  0.20670000000000005         -27.522485733032227     
  0.20780000000000004         -19.704975128173828     
  0.20890000000000003         -12.121887207031250     
