 -0.12000000000000000          0.0000000000000000     
 -0.11889999999999999          0.0000000000000000     
 -0.11780000000000000          0.0000000000000000     
 -0.11670000000000000          1.4128506524435647E-011
 -0.11559999999999999          7.0642532622178233E-012
 -0.11449999999999999         -2.8257013048871293E-011
 -0.11340000000000000          0.0000000000000000     
 -0.11230000000000000          4.9449774136567370E-011
 -0.11119999999999999         -1.1302805219548517E-010
 -0.11009999999999999         -2.8257013395815989E-010
 -0.10900000000000000         -2.8257013395815989E-010
 -0.10790000000000000          9.0422441756388139E-010
 -0.10679999999999999          1.1302805219548517E-010
 -0.10569999999999999          5.0862625222691804E-010
 -0.10460000000000000          1.4693646299690499E-009
 -0.10349999999999999         -3.1647855447403117E-009
 -0.10239999999999999         -6.6686549615724289E-009
 -0.10130000000000000          1.3563365985902465E-009
 -0.10020000000000000          7.4598514032686580E-009
  -9.9099999999999994E-002     2.7126731971804929E-009
  -9.7999999999999990E-002     9.0422441756388139E-010
  -9.6899999999999986E-002     6.7816832149958373E-009
  -9.5799999999999996E-002    -5.0297481735128713E-009
  -9.4699999999999993E-002    -2.1701385577443943E-008
  -9.3599999999999989E-002    -8.1380200356306887E-009
  -9.2499999999999999E-002     2.4414060106892066E-008
  -9.1399999999999995E-002     1.5371815820230950E-008
  -9.0299999999999991E-002    -6.3295710894806234E-009
  -8.9200000000000002E-002    -2.1701385577443943E-008
  -8.8099999999999984E-002    -4.7019668159009598E-008
  -8.6999999999999994E-002     1.2659142178961247E-008
  -8.5899999999999990E-002     1.3744211457833444E-007
  -8.4799999999999986E-002     7.6859073772084230E-008
  -8.3699999999999997E-002    -2.1701386287986679E-007
  -8.2599999999999993E-002    -8.3188645305654063E-008
  -8.1499999999999989E-002     2.8573492727446137E-007
  -8.0399999999999999E-002    -1.0850692788721972E-008
  -7.9299999999999995E-002    -2.5318283292108390E-007
  -7.8199999999999992E-002     1.8807867263603839E-007
  -7.7100000000000002E-002     4.4849531377622043E-007
  -7.5999999999999984E-002    -5.7870362724088409E-008
  -7.4899999999999994E-002    -5.9317119394108886E-007
  -7.3799999999999991E-002    -8.6805545151946717E-007
  -7.2699999999999987E-002    -3.9062496171027306E-007
  -7.1599999999999997E-002     8.6805545151946717E-007
  -7.0499999999999993E-002     1.5046293810883071E-006
  -6.9399999999999989E-002    -2.6041664114018204E-007
  -6.8300000000000000E-002    -2.3148145089635364E-007
  -6.7199999999999996E-002    -1.3599535577668576E-006
  -6.6099999999999992E-002     5.4976845831333776E-007
  -6.5000000000000002E-002    -1.7361108461955155E-007
  -6.3899999999999985E-002     3.4143513403250836E-006
  -6.2799999999999995E-002    -9.2592580358541454E-007
  -6.1699999999999991E-002    -4.6296290179270727E-007
  -6.0599999999999994E-002     6.3657398641225882E-007
  -5.9499999999999990E-002    -3.3564811019459739E-006
  -5.8399999999999994E-002    -1.1574072544817682E-007
  -5.7299999999999990E-002     5.3240732995618600E-006
  -5.6199999999999986E-002    -7.8703696999582462E-006
  -5.5099999999999996E-002    -6.0185175243532285E-006
  -5.3999999999999992E-002    -1.5509256627410650E-005
  -5.2899999999999989E-002    -1.4120368177827913E-005
  -5.1799999999999985E-002     3.5416662285570055E-005
  -5.0699999999999995E-002     5.2546289225574583E-005
  -4.9599999999999991E-002     1.8287035345565528E-005
  -4.8499999999999988E-002    -3.6574070691131055E-005
  -4.7399999999999998E-002    -3.3333330065943301E-005
  -4.6299999999999994E-002    -4.4444437662605196E-005
  -4.5199999999999990E-002     3.2407403978140792E-006
  -4.4099999999999986E-002     8.2407394074834883E-005
  -4.2999999999999997E-002     9.7222211479675025E-005
  -4.1899999999999993E-002    -7.0370362664107233E-005
  -4.0799999999999989E-002    -1.8148146045859903E-004
  -3.9699999999999985E-002    -1.2129628157708794E-004
  -3.8599999999999995E-002     7.3148141382262111E-005
  -3.7499999999999992E-002     2.6018515927717090E-004
  -3.6399999999999988E-002     9.2592580358541454E-007
  -3.5299999999999984E-002    -1.7685182683635503E-004
  -3.4199999999999994E-002     1.6018516907934099E-004
  -3.3099999999999991E-002     2.5833331164903939E-004
  -3.1999999999999987E-002     5.5555548897245899E-005
  -3.0899999999999997E-002    -3.6759255453944206E-004
  -2.9799999999999993E-002    -4.4629623880609870E-004
  -2.8699999999999989E-002     1.2962961045559496E-004
  -2.7599999999999986E-002     3.1759255216456950E-004
  -2.6499999999999996E-002     3.3703699591569602E-004
  -2.5399999999999992E-002    -1.8611107952892780E-004
  -2.4299999999999988E-002    -6.7685177782550454E-004
  -2.3199999999999985E-002    -5.3333328105509281E-004
  -2.2099999999999995E-002     5.1851844182237983E-004
  -2.0999999999999991E-002     1.8356478540226817E-003
  -1.9899999999999987E-002     9.7824062686413527E-004
  -1.8799999999999983E-002    -1.8222220242023468E-003
  -1.7699999999999994E-002    -1.7185183241963387E-003
  -1.6599999999999990E-002    -1.0703701991587877E-003
  -1.5499999999999986E-002     1.5388886677101254E-003
  -1.4399999999999996E-002     2.3814812302589417E-003
  -1.3299999999999992E-002     2.2222219558898360E-004
  -1.2199999999999989E-002    -1.5481479931622744E-003
  -1.1099999999999985E-002    -2.4370367173105478E-003
  -9.9999999999999950E-003    -1.1111109779449180E-004
  -8.8999999999999913E-003     2.9629624914377928E-003
  -7.7999999999999875E-003     2.4666662793606520E-003
  -6.6999999999999837E-003    -2.2222219558898360E-004
  -5.5999999999999939E-003    -3.1259255483746529E-003
  -4.4999999999999901E-003    -3.0962959863245487E-003
  -3.3999999999999864E-003    -3.7037031142972410E-004
  -2.2999999999999826E-003     3.5111105535179377E-003
  -1.1999999999999927E-003     2.5629627052694559E-003
  -9.9999999999988987E-005    -5.9259251429466531E-005
   1.0000000000000148E-003    -2.7407403104007244E-003
   2.1000000000000185E-003    -3.0518514104187489E-003
   3.2000000000000084E-003     1.1555553646758199E-003
   4.3000000000000121E-003     4.1777770966291428E-003
   5.4000000000000159E-003     2.3999996483325958E-003
   6.5000000000000058E-003    -1.7481478862464428E-003
   7.6000000000000234E-003    -3.5259255673736334E-003
   8.7000000000000133E-003    -1.7481478862464428E-003
   9.8000000000000032E-003     1.7777775647118688E-003
   1.0900000000000021E-002     2.5481479242444038E-003
   1.2000000000000011E-002    -3.2592588104307652E-004
   1.3100000000000001E-002    -3.3481477294117212E-003
   1.4200000000000018E-002    -3.8518514484167099E-003
   1.5300000000000008E-002     1.5407404862344265E-003
   1.6400000000000026E-002     4.0296292863786221E-003
   1.7500000000000016E-002     3.0962959863245487E-003
   1.8600000000000005E-002     1.7777775647118688E-003
   1.9700000000000023E-002    -7.1111100260168314E-004
   2.0800000000000013E-002    -1.9111108267679811E-003
   2.1900000000000003E-002    -1.0740739526227117E-003
   2.3000000000000020E-002    -1.7037034558597952E-004
   2.4100000000000010E-002     3.3333330065943301E-004
   2.5200000000000000E-002    -2.9675921541638672E-004
   2.6300000000000018E-002    -9.1111101210117340E-004
   2.7400000000000008E-002    -3.0888884793967009E-003
   2.8500000000000025E-002    -2.6814811863005161E-003
   2.9600000000000015E-002    -5.9259252157062292E-004
   3.0700000000000005E-002     2.4740737862884998E-003
   3.1800000000000023E-002     3.9999992586672306E-003
   3.2900000000000013E-002     5.4518510587513447E-003
   3.4000000000000002E-002     2.8444440104067326E-003
   3.5100000000000020E-002    -2.0740737672895193E-003
   3.6200000000000010E-002    -6.3111102208495140E-003
   3.7300000000000028E-002    -4.9777771346271038E-003
   3.8400000000000017E-002    -9.4814802287146449E-004
   3.9500000000000007E-002     4.3259253725409508E-003
   4.0600000000000025E-002     5.4518510587513447E-003
   4.1700000000000015E-002     4.7407401143573225E-004
   4.2800000000000005E-002    -6.1629619449377060E-003
   4.3900000000000022E-002    -5.8666658587753773E-003
   4.5000000000000012E-002     6.8740732967853546E-003
   4.6100000000000002E-002     1.2977776117622852E-002
   4.7200000000000020E-002     5.0370362587273121E-003
   4.8300000000000010E-002    -1.1081480421125889E-002
   4.9400000000000027E-002    -1.7659256234765053E-002
   5.0500000000000017E-002    -7.5851841829717159E-003
   5.1600000000000007E-002     9.7777768969535828E-003
   5.2700000000000025E-002     1.9081478938460350E-002
   5.3800000000000014E-002     8.6222207173705101E-003
   5.4900000000000004E-002    -1.0370369069278240E-002
   5.6000000000000022E-002    -1.8488885834813118E-002
   5.7100000000000012E-002    -9.0074064210057259E-003
   5.8200000000000002E-002     7.6444433070719242E-003
   5.9300000000000019E-002     1.7555553466081619E-002
   6.0400000000000009E-002     9.8222205415368080E-003
   6.1500000000000027E-002    -5.3481473587453365E-003
   6.2600000000000017E-002    -1.1948146857321262E-002
   6.3700000000000007E-002    -3.5296292044222355E-003
   6.4800000000000024E-002     4.5805550180375576E-003
   6.5900000000000014E-002     8.3925910294055939E-003
   6.7000000000000004E-002    -1.2962961336597800E-003
   6.8100000000000022E-002    -1.0622221045196056E-002
   6.9200000000000012E-002    -9.7481468692421913E-003
   7.0300000000000029E-002     1.8962960457429290E-003
   7.1400000000000019E-002     1.2237035669386387E-002
   7.2500000000000009E-002     1.1614813469350338E-002
   7.3600000000000027E-002    -3.5555550130084157E-004
   7.4700000000000016E-002    -1.0459258221089840E-002
   7.5800000000000006E-002    -8.4148133173584938E-003
   7.6900000000000024E-002     2.3407405242323875E-003
   7.8000000000000014E-002     9.8074059933423996E-003
   7.9100000000000004E-002     4.5925918966531754E-003
   8.0200000000000021E-002    -7.8814802691340446E-003
   8.1300000000000011E-002    -1.3155553489923477E-002
   8.2400000000000029E-002    -3.7333327345550060E-003
   8.3500000000000019E-002     1.1733331717550755E-002
   8.4600000000000009E-002     1.8014812842011452E-002
   8.5700000000000026E-002     7.0222211070358753E-003
   8.6800000000000016E-002    -1.1111109517514706E-002
   8.7900000000000006E-002    -1.7659256234765053E-002
   8.9000000000000024E-002    -8.1185176968574524E-003
   9.0100000000000013E-002     9.3037020415067673E-003
   9.1200000000000003E-002     1.6088886186480522E-002
   9.2300000000000021E-002     5.0666658207774162E-003
   9.3400000000000011E-002    -1.1096294969320297E-002
   9.4500000000000028E-002    -1.6888886690139771E-002
   9.5600000000000018E-002    -7.1259248070418835E-003
   9.6700000000000008E-002     9.6740731969475746E-003
   9.7800000000000026E-002     1.7348146066069603E-002
   9.8900000000000016E-002     8.5333324968814850E-003
  0.10000000000000001         -6.7999991588294506E-003
  0.10110000000000002         -1.2096295133233070E-002
  0.10220000000000001         -3.9999992586672306E-003
  0.10330000000000003          7.9777771607041359E-003
  0.10440000000000002          1.0762961581349373E-002
  0.10550000000000001         -2.4444441078230739E-004
  0.10660000000000003         -1.2429627589881420E-002
  0.10770000000000002         -1.3147220946848392E-002
  0.10880000000000001         -1.3050924753770232E-003
  0.10990000000000003          1.1729280464351177E-002
  0.11100000000000002          1.3390738517045975E-002
  0.11210000000000001          4.4425921514630318E-003
  0.11320000000000002         -6.3296286389231682E-003
  0.11430000000000001         -7.4888877570629120E-003
  0.11540000000000003          2.2592589084524661E-004
  0.11650000000000002          5.2055548876523972E-003
  0.11760000000000001          1.4888886362314224E-003
  0.11870000000000003         -8.2407398149371147E-003
  0.11980000000000002         -1.2725924141705036E-002
  0.12090000000000001         -5.0814808346331120E-003
  0.12200000000000003          1.0014813393354416E-002
  0.12310000000000001          1.8488885834813118E-002
  0.12420000000000003          1.1499998159706593E-002
  0.12530000000000002         -4.4925920665264130E-003
  0.12640000000000001         -1.5644442290067673E-002
  0.12750000000000003         -1.2196294963359833E-002
  0.12860000000000002          7.3703692760318518E-004
  0.12970000000000001          1.0622221045196056E-002
  0.13080000000000003          8.6240731179714203E-003
  0.13190000000000002         -1.9777775742113590E-003
  0.13300000000000001         -9.7592575475573540E-003
  0.13410000000000000         -7.2240731678903103E-003
  0.13520000000000004          2.3111107293516397E-003
  0.13630000000000003          9.4407396391034126E-003
  0.13740000000000002          7.6740728691220284E-003
  0.13850000000000001         -4.8148143105208874E-004
  0.13960000000000000         -6.6555547527968884E-003
  0.14070000000000005         -5.8370362967252731E-003
  0.14180000000000004         -5.3703697631135583E-005
  0.14290000000000003          4.8870365135371685E-003
  0.14400000000000002          4.8879622481763363E-003
  0.14510000000000001          8.2777766510844231E-004
  0.14620000000000000         -3.6898143589496613E-003
  0.14730000000000004         -5.8749993331730366E-003
  0.14840000000000003         -4.8509254120290279E-003
  0.14950000000000002         -1.2824072036892176E-003
  0.15060000000000001          3.5351847764104605E-003
  0.15170000000000000          7.8805545344948769E-003
  0.15280000000000005          8.9935176074504852E-003
  0.15390000000000004          5.0398139283061028E-003
  0.15500000000000003         -2.8009256348013878E-003
  0.15610000000000002         -9.8620355129241943E-003
  0.15720000000000001         -1.1183794587850571E-002
  0.15830000000000000         -5.7143513113260269E-003
  0.15940000000000004          2.5907403323799372E-003
  0.16050000000000003          7.3990728706121445E-003
  0.16160000000000002          6.0124993324279785E-003
  0.16270000000000001          1.1805554386228323E-003
  0.16380000000000000         -1.8662034999579191E-003
  0.16490000000000005         -6.0833327006548643E-004
  0.16600000000000004          2.5435180868953466E-003
  0.16710000000000003          2.9824071098119020E-003
  0.16820000000000002         -9.9861097987741232E-004
  0.16930000000000001         -5.9018512256443501E-003
  0.17040000000000000         -6.8939807824790478E-003
  0.17150000000000004         -2.6759256143122911E-003
  0.17260000000000003          3.1891199760138988E-003
  0.17370000000000002          5.8668972924351692E-003
  0.17480000000000001          3.7907401565462351E-003
  0.17590000000000000         -2.7638886240310967E-004
  0.17700000000000005         -2.2599534131586552E-003
  0.17810000000000004         -1.1060183169320226E-003
  0.17920000000000003          1.0136573109775782E-003
  0.18030000000000002          1.5967590734362602E-003
  0.18140000000000001          3.7291660555638373E-004
  0.18250000000000000         -7.6226843520998955E-004
  0.18360000000000004         -3.5995364305563271E-004
  0.18470000000000003          6.3611101359128952E-004
  0.18580000000000002          3.0925922328606248E-004
  0.18690000000000001         -1.5554396668449044E-003
  0.18800000000000000         -2.8989580459892750E-003
  0.18910000000000005         -1.5342590631917119E-003
  0.19020000000000004          1.9326385809108615E-003
  0.19130000000000003          4.3123834766447544E-003
  0.19240000000000002          3.0489580240100622E-003
  0.19350000000000001         -9.3020818894729018E-004
  0.19460000000000005         -4.0968745015561581E-003
  0.19570000000000004         -3.5895828623324633E-003
  0.19680000000000003         -1.4259257295634598E-004
  0.19790000000000002          2.8828699141740799E-003
  0.19900000000000001          2.6216432452201843E-003
  0.20010000000000000         -2.0648144709412009E-004
  0.20120000000000005         -2.5216431822627783E-003
  0.20230000000000004         -2.0816547330468893E-003
  0.20340000000000003          3.0902773141860962E-004
  0.20450000000000002          2.0873260218650103E-003
  0.20560000000000000          1.6296872636303306E-003
  0.20670000000000005         -1.9687497115228325E-004
  0.20780000000000004         -1.4773724833503366E-003
  0.20890000000000003         -1.3558447826653719E-003
