 -0.12000000000000000          0.0000000000000000     
 -0.11889999999999999          0.0000000000000000     
 -0.11780000000000000          0.0000000000000000     
 -0.11670000000000000          0.0000000000000000     
 -0.11559999999999999          0.0000000000000000     
 -0.11449999999999999          0.0000000000000000     
 -0.11340000000000000          1.6406380377517737E-013
 -0.11230000000000000         -3.5027671952195250E-013
 -0.11119999999999999         -5.3643864524055562E-012
 -0.11009999999999999         -1.0412846800089692E-011
 -0.10900000000000000          2.5130685726848512E-011
 -0.10790000000000000          1.4238599188587386E-010
 -0.10679999999999999          1.7772994187481572E-010
 -0.10569999999999999         -3.8369246668779056E-010
 -0.10460000000000000         -1.7580161770780478E-009
 -0.10349999999999999         -2.2259867282770074E-009
 -0.10239999999999999          2.2285662204524215E-009
 -0.10130000000000000          1.3040470037140039E-008
 -0.10020000000000000          1.9815949769963481E-008
  -9.9099999999999994E-002    -6.5369176738272472E-010
  -9.7999999999999990E-002    -6.0259694123487861E-008
  -9.6899999999999986E-002    -1.1726053372740353E-007
  -9.5799999999999996E-002    -6.8009619269560062E-008
  -9.4699999999999993E-002     1.6435284067028988E-007
  -9.3599999999999989E-002     4.6813178755655827E-007
  -9.2499999999999999E-002     4.8265900431943010E-007
  -9.1399999999999995E-002    -1.5018368060282228E-007
  -9.0299999999999991E-002    -1.2679666951953550E-006
  -8.9200000000000002E-002    -1.8908285710494965E-006
  -8.8099999999999984E-002    -7.7296141398619511E-007
  -8.6999999999999994E-002     2.2044005163479596E-006
  -8.5899999999999990E-002     4.9615259740676265E-006
  -8.4799999999999986E-002     4.1227949623134919E-006
  -8.3699999999999997E-002    -1.8006145410254248E-006
  -8.2599999999999993E-002    -9.3532826213049702E-006
  -8.1499999999999989E-002    -1.1074489520979114E-005
  -8.0399999999999999E-002    -1.8200693148173741E-006
  -7.9299999999999995E-002     1.3912007489125244E-005
  -7.8199999999999992E-002     2.1840134650119580E-005
  -7.7100000000000002E-002     9.1412439360283315E-006
  -7.5999999999999984E-002    -1.9986002371297218E-005
  -7.4899999999999994E-002    -4.0349728806177154E-005
  -7.3799999999999991E-002    -2.3922228137962520E-005
  -7.2699999999999987E-002     2.9703098334721290E-005
  -7.1599999999999997E-002     7.9200719483196735E-005
  -7.0499999999999993E-002     6.7227912950329483E-005
  -6.9399999999999989E-002    -2.4530057999072596E-005
  -6.8300000000000000E-002    -1.3833330012857914E-004
  -6.7199999999999996E-002    -1.6857778246048838E-004
  -6.6099999999999992E-002    -5.0865954108303413E-005
  -6.5000000000000002E-002     1.5843173605389893E-004
  -6.3899999999999985E-002     2.9706387431360781E-004
  -6.2799999999999995E-002     2.2128502314444631E-004
  -6.1699999999999991E-002    -5.2658695494756103E-005
  -6.0599999999999994E-002    -3.2595641096122563E-004
  -5.9499999999999990E-002    -3.6560703301802278E-004
  -5.8399999999999994E-002    -1.1674567213049158E-004
  -5.7299999999999990E-002     2.1711392037104815E-004
  -5.6199999999999986E-002     3.3218238968402147E-004
  -5.5099999999999996E-002     1.0919680789811537E-004
  -5.3999999999999992E-002    -2.3753025743644685E-004
  -5.2899999999999989E-002    -3.2377472962252796E-004
  -5.1799999999999985E-002     3.4413271350786090E-005
  -5.0699999999999995E-002     5.8083457406610250E-004
  -4.9599999999999991E-002     7.7887822408229113E-004
  -4.8499999999999988E-002     2.8768932679668069E-004
  -4.7399999999999998E-002    -6.5944180823862553E-004
  -4.6299999999999994E-002    -1.3609613524749875E-003
  -4.5199999999999990E-002    -1.2085348134860396E-003
  -4.4099999999999986E-002    -2.3064826382324100E-004
  -4.2999999999999997E-002     8.9162506628781557E-004
  -4.1899999999999993E-002     1.3896642485633492E-003
  -4.0799999999999989E-002     1.0552393505349755E-003
  -3.9699999999999985E-002     3.6613567499443889E-004
  -3.8599999999999995E-002    -3.4304521250305697E-005
  -3.7499999999999992E-002     6.6255915953661315E-006
  -3.6399999999999988E-002     2.5846971766441129E-005
  -3.5299999999999984E-002    -4.9944553757086396E-004
  -3.4199999999999994E-002    -1.4723659260198474E-003
  -3.3099999999999991E-002    -2.1085145417600870E-003
  -3.1999999999999987E-002    -1.6298523405566812E-003
  -3.0899999999999997E-002    -7.1996611950453371E-005
  -2.9799999999999993E-002     1.6306706238538027E-003
  -2.8699999999999989E-002     2.4384169373661280E-003
  -2.7599999999999986E-002     2.1280739456415176E-003
  -2.6499999999999996E-002     1.4025983400642872E-003
  -2.5399999999999992E-002     1.0422534542158246E-003
  -2.4299999999999988E-002     9.7308371914550662E-004
  -2.3199999999999985E-002     2.9690537485294044E-004
  -2.2099999999999995E-002    -1.6309653874486685E-003
  -2.0999999999999991E-002    -4.1590034961700439E-003
  -1.9899999999999987E-002    -5.5448743514716625E-003
  -1.8799999999999983E-002    -4.4391821138560772E-003
  -1.7699999999999994E-002    -1.2924118200317025E-003
  -1.6599999999999990E-002     1.7946336884051561E-003
  -1.5499999999999986E-002     2.8284669388085604E-003
  -1.4399999999999996E-002     1.6865707002580166E-003
  -1.3299999999999992E-002     1.1983957665506750E-004
  -1.2199999999999989E-002    -1.1875721975229681E-004
  -1.1099999999999985E-002     7.9278420889750123E-004
  -9.9999999999999950E-003     7.7513325959444046E-004
  -8.8999999999999913E-003    -2.0182831212878227E-003
  -7.7999999999999875E-003    -7.0161912590265274E-003
  -6.6999999999999837E-003    -1.1298738420009613E-002
  -5.5999999999999939E-003    -1.2099958024919033E-002
  -4.4999999999999901E-003    -9.4296541064977646E-003
  -3.3999999999999864E-003    -6.1986697837710381E-003
  -2.2999999999999826E-003    -5.5841570720076561E-003
  -1.1999999999999927E-003    -8.1425225362181664E-003
  -9.9999999999988987E-005    -1.1544569395482540E-002
   1.0000000000000148E-003    -1.3238445855677128E-002
   2.1000000000000185E-003    -1.3364198617637157E-002
   3.2000000000000084E-003    -1.4878940768539906E-002
   4.3000000000000121E-003    -2.0636990666389465E-002
   5.4000000000000159E-003    -3.0340475961565971E-002
   6.5000000000000058E-003    -4.0551181882619858E-002
   7.6000000000000234E-003    -4.7910351306200027E-002
   8.7000000000000133E-003    -5.2361406385898590E-002
   9.8000000000000032E-003    -5.7060495018959045E-002
   1.0900000000000021E-002    -6.5008670091629028E-002
   1.2000000000000011E-002    -7.5898110866546631E-002
   1.3100000000000001E-002    -8.6577653884887695E-002
   1.4200000000000018E-002    -9.4771750271320343E-002
   1.5300000000000008E-002   -0.10214234888553619     
   1.6400000000000026E-002   -0.11322035640478134     
   1.7500000000000016E-002   -0.13095374405384064     
   1.8600000000000005E-002   -0.15344743430614471     
   1.9700000000000023E-002   -0.17542937397956848     
   2.0800000000000013E-002   -0.19330020248889923     
   2.1900000000000003E-002   -0.20861363410949707     
   2.3000000000000020E-002   -0.22617299854755402     
   2.4100000000000010E-002   -0.24843515455722809     
   2.5200000000000000E-002   -0.27206268906593323     
   2.6300000000000018E-002   -0.29055181145668030     
   2.7400000000000008E-002   -0.30077773332595825     
   2.8500000000000025E-002   -0.30661824345588684     
   2.9600000000000015E-002   -0.31550273299217224     
   3.0700000000000005E-002   -0.33060550689697266     
   3.1800000000000023E-002   -0.34629440307617188     
   3.2900000000000013E-002   -0.35191243886947632     
   3.4000000000000002E-002   -0.34051060676574707     
   3.5100000000000020E-002   -0.31393143534660339     
   3.6200000000000010E-002   -0.27931338548660278     
   3.7300000000000028E-002   -0.24005922675132751     
   3.8400000000000017E-002   -0.19057960808277130     
   3.9500000000000007E-002   -0.12024720758199692     
   4.0600000000000025E-002    -2.2987959906458855E-002
   4.1700000000000015E-002     9.7786098718643188E-002
   4.2800000000000005E-002    0.23369441926479340     
   4.3900000000000022E-002    0.38166290521621704     
   4.5000000000000012E-002    0.54913139343261719     
   4.6100000000000002E-002    0.74844157695770264     
   4.7200000000000020E-002    0.98668503761291504     
   4.8300000000000010E-002     1.2602970600128174     
   4.9400000000000027E-002     1.5606821775436401     
   5.0500000000000017E-002     1.8847025632858276     
   5.1600000000000007E-002     2.2389135360717773     
   5.2700000000000025E-002     2.6330089569091797     
   5.3800000000000014E-002     3.0679652690887451     
   5.4900000000000004E-002     3.5326843261718750     
   5.6000000000000022E-002     4.0113925933837891     
   5.7100000000000012E-002     4.4972624778747559     
   5.8200000000000002E-002     4.9958162307739258     
   5.9300000000000019E-002     5.5165371894836426     
   6.0400000000000009E-002     6.0581717491149902     
   6.1500000000000027E-002     6.6048831939697266     
   6.2600000000000017E-002     7.1363916397094727     
   6.3700000000000007E-002     7.6418409347534180     
   6.4800000000000024E-002     8.1233568191528320     
   6.5900000000000014E-002     8.5837669372558594     
   6.7000000000000004E-002     9.0131320953369141     
   6.8100000000000022E-002     9.3846769332885742     
   6.9200000000000012E-002     9.6710176467895508     
   7.0300000000000029E-002     9.8593435287475586     
   7.1400000000000019E-002     9.9547576904296875     
   7.2500000000000009E-002     9.9656133651733398     
   7.3600000000000027E-002     9.8845767974853516     
   7.4700000000000016E-002     9.6840581893920898     
   7.5800000000000006E-002     9.3351688385009766     
   7.6900000000000024E-002     8.8266506195068359     
   7.8000000000000014E-002     8.1701393127441406     
   7.9100000000000004E-002     7.3788805007934570     
   8.0200000000000021E-002     6.4490656852722168     
   8.1300000000000011E-002     5.3599696159362793     
   8.2400000000000029E-002     4.0902810096740723     
   8.3500000000000019E-002     2.6424736976623535     
   8.4600000000000009E-002     1.0399110317230225     
   8.5700000000000026E-002   -0.69333326816558838     
   8.6800000000000016E-002    -2.5523405075073242     
   8.7900000000000006E-002    -4.5516734123229980     
   8.9000000000000024E-002    -6.7016730308532715     
   9.0100000000000013E-002    -8.9871397018432617     
   9.1200000000000003E-002    -11.369198799133301     
   9.2300000000000021E-002    -13.810590744018555     
   9.3400000000000011E-002    -16.301628112792969     
   9.4500000000000028E-002    -18.856019973754883     
   9.5600000000000018E-002    -21.485263824462891     
   9.6700000000000008E-002    -24.168634414672852     
   9.7800000000000026E-002    -26.859552383422852     
   9.8900000000000016E-002    -29.519359588623047     
  0.10000000000000001         -32.138439178466797     
  0.10110000000000002         -34.735332489013672     
  0.10220000000000001         -37.324615478515625     
  0.10330000000000003         -39.887905120849609     
  0.10440000000000002         -42.380397796630859     
  0.10550000000000001         -44.763362884521484     
  0.10660000000000003         -47.036888122558594     
  0.10770000000000002         -49.227554321289062     
  0.10880000000000001         -51.352485656738281     
  0.10990000000000003         -53.391395568847656     
  0.11100000000000002         -55.292892456054688     
  0.11210000000000001         -57.015193939208984     
  0.11320000000000002         -58.554103851318359     
  0.11430000000000001         -59.936317443847656     
  0.11540000000000003         -61.173282623291016     
  0.11650000000000002         -62.229904174804688     
  0.11760000000000001         -63.032688140869141     
  0.11870000000000003         -63.513961791992188     
  0.11980000000000002         -63.646450042724609     
  0.12090000000000001         -63.432464599609375     
  0.12200000000000003         -62.860790252685547     
  0.12310000000000001         -61.867664337158203     
  0.12420000000000003         -60.356258392333984     
  0.12530000000000002         -58.239963531494141     
  0.12640000000000001         -55.474720001220703     
  0.12750000000000003         -52.050895690917969     
  0.12860000000000002         -47.942569732666016     
  0.12970000000000001         -43.078216552734375     
  0.13080000000000003         -37.354038238525391     
  0.13190000000000002         -30.687582015991211     
  0.13300000000000001         -23.057182312011719     
  0.13410000000000000         -14.485508918762207     
  0.13520000000000004         -4.9912881851196289     
  0.13630000000000003          5.4459843635559082     
  0.13740000000000002          16.865657806396484     
  0.13850000000000001          29.265300750732422     
  0.13960000000000000          42.580615997314453     
  0.14070000000000005          56.686511993408203     
  0.14180000000000004          71.455871582031250     
  0.14290000000000003          86.785766601562500     
  0.14400000000000002          102.60556030273438     
  0.14510000000000001          118.78807067871094     
  0.14620000000000000          135.12815856933594     
  0.14730000000000004          151.36958312988281     
  0.14840000000000003          167.26133728027344     
  0.14950000000000002          182.60852050781250     
  0.15060000000000001          197.22576904296875     
  0.15170000000000000          210.88934326171875     
  0.15280000000000005          223.31900024414062     
  0.15390000000000004          234.19754028320312     
  0.15500000000000003          243.25265502929688     
  0.15610000000000002          250.29211425781250     
  0.15720000000000001          255.14968872070312     
  0.15830000000000000          257.65219116210938     
  0.15940000000000004          257.59533691406250     
  0.16050000000000003          254.79510498046875     
  0.16160000000000002          249.12583923339844     
  0.16270000000000001          240.56346130371094     
  0.16380000000000000          229.13594055175781     
  0.16490000000000005          214.88056945800781     
  0.16600000000000004          197.82771301269531     
  0.16710000000000003          178.05307006835938     
  0.16820000000000002          155.71209716796875     
  0.16930000000000001          131.05117797851562     
  0.17040000000000000          104.36656188964844     
  0.17150000000000004          75.961944580078125     
  0.17260000000000003          46.132259368896484     
  0.17370000000000002          15.198338508605957     
  0.17480000000000001         -16.467197418212891     
  0.17590000000000000         -48.429267883300781     
  0.17700000000000005         -80.227188110351562     
  0.17810000000000004         -111.43560028076172     
  0.17920000000000003         -141.66990661621094     
  0.18030000000000002         -170.56483459472656     
  0.18140000000000001         -197.75416564941406     
  0.18250000000000000         -222.83848571777344     
  0.18360000000000004         -245.45460510253906     
  0.18470000000000003         -265.30776977539062     
  0.18580000000000002         -282.18887329101562     
  0.18690000000000001         -295.93655395507812     
  0.18800000000000000         -306.39437866210938     
  0.18910000000000005         -313.43408203125000     
  0.19020000000000004         -316.97570800781250     
  0.19130000000000003         -317.04141235351562     
  0.19240000000000002         -313.73855590820312     
  0.19350000000000001         -307.21121215820312     
  0.19460000000000005         -297.60739135742188     
  0.19570000000000004         -285.11547851562500     
  0.19680000000000003         -269.94454956054688     
  0.19790000000000002         -252.38681030273438     
  0.19900000000000001         -232.78755187988281     
  0.20010000000000000         -211.49336242675781     
  0.20120000000000005         -188.83262634277344     
  0.20230000000000004         -165.12347412109375     
  0.20340000000000003         -140.68721008300781     
  0.20450000000000002         -115.89550781250000     
  0.20560000000000000         -91.105232238769531     
  0.20670000000000005         -66.664764404296875     
  0.20780000000000004         -42.849357604980469     
  0.20890000000000003         -19.900085449218750     
