 -0.12000000000000000          0.0000000000000000
 -0.11889999999999999          0.0000000000000000
 -0.11780000000000000          0.0000000000000000
 -0.11670000000000000          0.0000000000000000
 -0.11559999999999999          0.0000000000000000
 -0.11449999999999999          0.0000000000000000
 -0.11340000000000000          0.0000000000000000
 -0.11230000000000000          1.9901774265880385E-026
 -0.11119999999999999          7.0051547932854824E-019
 -0.11009999999999999          4.9563297456166706E-018
 -0.10900000000000000          1.0801441071183805E-017
 -0.10790000000000000         -1.9451032990176238E-017
 -0.10679999999999999         -1.7707815361925247E-016
 -0.10569999999999999         -4.5634365901446421E-016
 -0.10460000000000000         -3.3751017753104700E-016
 -0.10349999999999999          1.3943567327707042E-015
 -0.10239999999999999          5.3090970577880214E-015
 -0.10130000000000000          7.9867168583411079E-015
 -0.10020000000000000          8.8193917501065006E-017
  -9.9099999999999994E-002    -2.6687656804521426E-014
  -9.7999999999999990E-002    -6.0792293237171141E-014
  -9.6899999999999986E-002    -5.5600143900828153E-014
  -9.5799999999999996E-002     4.8361125894917992E-014
  -9.4699999999999993E-002     2.4531681482205248E-013
  -9.3599999999999989E-002     3.8010350075778909E-013
  -9.2499999999999999E-002     1.8131904398061005E-013
  -9.1399999999999995E-002    -4.9725913491005524E-013
  -9.0299999999999991E-002    -1.3401431657109053E-012
  -8.9200000000000002E-002    -1.5009226500550810E-012
  -8.8099999999999984E-002    -1.4474066476616310E-013
  -8.6999999999999994E-002     2.5503345095490015E-012
  -8.5899999999999990E-002     4.7917715802203720E-012
  -8.4799999999999986E-002     3.9843701254982378E-012
  -8.3699999999999997E-002    -1.0214277340603317E-012
  -8.2599999999999993E-002    -7.8916526091710182E-012
  -8.1499999999999989E-002    -1.1359407338373817E-011
  -8.0399999999999999E-002    -7.0989243129704338E-012
  -7.9299999999999995E-002     3.7091085411389280E-012
  -7.8199999999999992E-002     1.3751969181463597E-011
  -7.7100000000000002E-002     1.5120404928126163E-011
  -7.5999999999999984E-002     7.1552317022771650E-012
  -7.4899999999999994E-002    -1.4806786439308661E-012
  -7.3799999999999991E-002    -1.1140550287835893E-012
  -7.2699999999999987E-002     6.1668777723289381E-012
  -7.1599999999999997E-002     3.3749929934101530E-012
  -7.0499999999999993E-002    -2.5861529931447969E-011
  -6.9399999999999989E-002    -7.2509234727569094E-011
  -6.8300000000000000E-002    -9.3549806789994250E-011
  -6.7199999999999996E-002    -3.9113413896618709E-011
  -6.6099999999999992E-002     9.6215521661058290E-011
  -6.5000000000000002E-002     2.4150065280892363E-010
  -6.3899999999999985E-002     2.7892943510465784E-010
  -6.2799999999999995E-002     1.3036147161749057E-010
  -6.1699999999999991E-002    -1.6145151882085429E-010
  -6.0599999999999994E-002    -4.3348416522981381E-010
  -5.9499999999999990E-002    -5.0459569855831887E-010
  -5.8399999999999994E-002    -3.0942495787833479E-010
  -5.7299999999999990E-002     4.7210103881756282E-011
  -5.6199999999999986E-002     3.6953520798910233E-010
  -5.5099999999999996E-002     5.2052745447284110E-010
  -5.3999999999999992E-002     5.0784687566363118E-010
  -5.2899999999999989E-002     4.2501502317549011E-010
  -5.1799999999999985E-002     3.0872557288397218E-010
  -5.0699999999999995E-002     7.0017457109994297E-011
  -4.9599999999999991E-002    -4.0067751894135029E-010
  -4.8499999999999988E-002    -1.0331819844111578E-009
  -4.7399999999999998E-002    -1.4922169055964218E-009
  -4.6299999999999994E-002    -1.3520544683842672E-009
  -4.5199999999999990E-002    -4.4153208866859472E-010
  -4.4099999999999986E-002     9.2596197376337841E-010
  -4.2999999999999997E-002     2.0745931639254422E-009
  -4.1899999999999993E-002     2.3926209902214168E-009
  -4.0799999999999989E-002     1.7383721129249352E-009
  -3.9699999999999985E-002     4.9712883809505115E-010
  -3.8599999999999995E-002    -7.4299116858966840E-010
  -3.7499999999999992E-002    -1.5953409704394517E-009
  -3.6399999999999988E-002    -2.0066730499479490E-009
  -3.5299999999999984E-002    -2.0511303766568290E-009
  -3.4199999999999994E-002    -1.6686058090797928E-009
  -3.3099999999999991E-002    -6.8444439005332924E-010
  -3.1999999999999987E-002     8.6379248198653613E-010
  -3.0899999999999997E-002     2.4397615039362108E-009
  -2.9799999999999993E-002     3.1495008823156923E-009
  -2.8699999999999989E-002     2.3233113211063028E-009
  -2.7599999999999986E-002     1.0302236841397416E-010
  -2.6499999999999996E-002    -2.4769528650381289E-009
  -2.5399999999999992E-002    -4.0274805712670059E-009
  -2.4299999999999988E-002    -3.5631586570161744E-009
  -2.3199999999999985E-002    -9.4140129025532815E-010
  -2.2099999999999995E-002     3.2120219817244333E-009
  -2.0999999999999991E-002     7.8198691966235856E-009
  -1.9899999999999987E-002     1.1530137733473111E-008
  -1.8799999999999983E-002     1.2693547546405171E-008
  -1.7699999999999994E-002     9.4388310500903572E-009
  -1.6599999999999990E-002     8.4986018222821258E-011
  -1.5499999999999986E-002    -1.6322362128562418E-008
  -1.4399999999999996E-002    -3.9899077819427475E-008
  -1.3299999999999992E-002    -7.0540536967200751E-008
  -1.2199999999999989E-002    -1.0889135637626168E-007
  -1.1099999999999985E-002    -1.5684504717228265E-007
  -9.9999999999999950E-003    -2.1709792008550721E-007
  -8.8999999999999913E-003    -2.9219745556474663E-007
  -7.7999999999999875E-003    -3.8414242453654879E-007
  -6.6999999999999837E-003    -4.9522202516527614E-007
  -5.5999999999999939E-003    -6.2965960978544899E-007
  -4.4999999999999901E-003    -7.9478422776446678E-007
  -3.3999999999999864E-003    -1.0007514674725826E-006
  -2.2999999999999826E-003    -1.2590778624144150E-006
  -1.1999999999999927E-003    -1.5813297977729235E-006
  -9.9999999999988987E-005    -1.9792053080891492E-006
   1.0000000000000148E-003    -2.4660666895215400E-006
   2.1000000000000185E-003    -3.0588350909965811E-006
   3.2000000000000084E-003    -3.7790805436088704E-006
   4.3000000000000121E-003    -4.6531026782759000E-006
   5.4000000000000159E-003    -5.7118045333481859E-006
   6.5000000000000058E-003    -6.9912034632579889E-006
   7.6000000000000234E-003    -8.5335877884062938E-006
   8.7000000000000133E-003    -1.0388604096078780E-005
   9.8000000000000032E-003    -1.2613778380909935E-005
   1.0900000000000021E-002    -1.5274817997124046E-005
   1.2000000000000011E-002    -1.8446566173224710E-005
   1.3100000000000001E-002    -2.2215008357306942E-005
   1.4200000000000018E-002    -2.6679712391342036E-005
   1.5300000000000008E-002    -3.1955642043612897E-005
   1.6400000000000026E-002    -3.8173933717189357E-005
   1.7500000000000016E-002    -4.5482400309992954E-005
   1.8600000000000005E-002    -5.4046828154241666E-005
   1.9700000000000023E-002    -6.4053354435600340E-005
   2.0800000000000013E-002    -7.5710959208663553E-005
   2.1900000000000003E-002    -8.9252906036563218E-005
   2.3000000000000020E-002    -1.0493716399651021E-004
   2.4100000000000010E-002    -1.2304687697906047E-004
   2.5200000000000000E-002    -1.4389208809006959E-004
   2.6300000000000018E-002    -1.6781264275778085E-004
   2.7400000000000008E-002    -1.9518051703926176E-004
   2.8500000000000025E-002    -2.2640019597020000E-004
   2.9600000000000015E-002    -2.6190665084868670E-004
   3.0700000000000005E-002    -3.0216277809813619E-004
   3.1800000000000023E-002    -3.4765803138725460E-004
   3.2900000000000013E-002    -3.9890821790322661E-004
   3.4000000000000002E-002    -4.5645551290363073E-004
   3.5100000000000020E-002    -5.2086630603298545E-004
   3.6200000000000010E-002    -5.9272622456774116E-004
   3.7300000000000028E-002    -6.7263381788507104E-004
   3.8400000000000017E-002    -7.6119409641250968E-004
   3.9500000000000007E-002    -8.5901084821671247E-004
   4.0600000000000025E-002    -9.6667947946116328E-004
   4.1700000000000015E-002    -1.0847770608961582E-003
   4.2800000000000005E-002    -1.2138519668951631E-003
   4.3900000000000022E-002    -1.3544114772230387E-003
   4.5000000000000012E-002    -1.5069114742800593E-003
   4.6100000000000002E-002    -1.6717442777007818E-003
   4.7200000000000020E-002    -1.8492237431928515E-003
   4.8300000000000010E-002    -2.0395684987306595E-003
   4.9400000000000027E-002    -2.2428852971643209E-003
   5.0500000000000017E-002    -2.4591526016592979E-003
   5.1600000000000007E-002    -2.6882097590714693E-003
   5.2700000000000025E-002    -2.9297415167093277E-003
   5.3800000000000014E-002    -3.1832621898502111E-003
   5.4900000000000004E-002    -3.4480993635952473E-003
   5.6000000000000022E-002    -3.7233803886920214E-003
   5.7100000000000012E-002    -4.0080239996314049E-003
   5.8200000000000002E-002    -4.3007316999137402E-003
   5.9300000000000019E-002    -4.5999842695891857E-003
   6.0400000000000009E-002    -4.9040396697819233E-003
   6.1500000000000027E-002    -5.2109281532466412E-003
   6.2600000000000017E-002    -5.5184578523039818E-003
   6.3700000000000007E-002    -5.8242245577275753E-003
   6.4800000000000024E-002    -6.1256238259375095E-003
   6.5900000000000014E-002    -6.4198696054518223E-003
   6.7000000000000004E-002    -6.7040063440799713E-003
   6.8100000000000022E-002    -6.9749346002936363E-003
   6.9200000000000012E-002    -7.2294375859200954E-003
   7.0300000000000029E-002    -7.4642235413193703E-003
   7.1400000000000019E-002    -7.6759643852710724E-003
   7.2500000000000009E-002    -7.8613376244902611E-003
   7.3600000000000027E-002    -8.0170640721917152E-003
   7.4700000000000016E-002    -8.1399455666542053E-003
   7.5800000000000006E-002    -8.2269171252846718E-003
   7.6900000000000024E-002    -8.2751065492630005E-003
   7.8000000000000014E-002    -8.2818828523159027E-003
   7.9100000000000004E-002    -8.2449037581682205E-003
   8.0200000000000021E-002    -8.1621473655104637E-003
   8.1300000000000011E-002    -8.0319568514823914E-003
   8.2400000000000029E-002    -7.8530795872211456E-003
   8.3500000000000019E-002    -7.6247211545705795E-003
   8.4600000000000009E-002    -7.3465751484036446E-003
   8.5700000000000026E-002    -7.0188413374125957E-003
   8.6800000000000016E-002    -6.6422307863831520E-003
   8.7900000000000006E-002    -6.2179709784686565E-003
   8.9000000000000024E-002    -5.7478081434965134E-003
   9.0100000000000013E-002    -5.2340142428874969E-003
   9.1200000000000003E-002    -4.6793688088655472E-003
   9.2300000000000021E-002    -4.0871277451515198E-003
   9.3400000000000011E-002    -3.4609746653586626E-003
   9.4500000000000028E-002    -2.8049785178154707E-003
   9.5600000000000018E-002    -2.1235498134046793E-003
   9.6700000000000008E-002    -1.4213951071724296E-003
   9.7800000000000026E-002    -7.0345553103834391E-004
   9.8900000000000016E-002     2.5173918402288109E-005
  0.10000000000000001          7.5933290645480156E-004
  0.10110000000000002          1.4938744716346264E-003
  0.10220000000000001          2.2237296216189861E-003
  0.10330000000000003          2.9439688660204411E-003
  0.10440000000000002          3.6498773843050003E-003
  0.10550000000000001          4.3370411731302738E-003
  0.10660000000000003          5.0014303997159004E-003
  0.10770000000000002          5.6394594721496105E-003
  0.10880000000000001          6.2480289489030838E-003
  0.10990000000000003          6.8245562724769115E-003
  0.11100000000000002          7.3670134879648685E-003
  0.11210000000000001          7.8739682212471962E-003
  0.11320000000000002          8.3446223288774490E-003
  0.11430000000000001          8.7788086384534836E-003
  0.11540000000000003          9.1769713908433914E-003
  0.11650000000000002          9.5401294529438019E-003
  0.11760000000000001          9.8698427900671959E-003
  0.11870000000000003          1.0168190114200115E-002
  0.11980000000000002          1.0437737219035625E-002
  0.12090000000000001          1.0681475512683392E-002
  0.12200000000000003          1.0902725160121918E-002
  0.12310000000000001          1.1105047538876534E-002
  0.12420000000000003          1.1292157694697380E-002
  0.12530000000000002          1.1467861011624336E-002
  0.12640000000000001          1.1635986156761646E-002
  0.12750000000000003          1.1800276115536690E-002
  0.12860000000000002          1.1964277364313602E-002
  0.12970000000000001          1.2131225317716599E-002
  0.13080000000000003          1.2303970754146576E-002
  0.13190000000000002          1.2484917417168617E-002
  0.13300000000000001          1.2675967067480087E-002
  0.13410000000000000          1.2878439389169216E-002
  0.13520000000000004          1.3092994689941406E-002
  0.13630000000000003          1.3319564983248711E-002
  0.13740000000000002          1.3557337224483490E-002
  0.13850000000000001          1.3804761692881584E-002
  0.13960000000000000          1.4059551060199738E-002
  0.14070000000000005          1.4318679459393024E-002
  0.14180000000000004          1.4578374102711678E-002
  0.14290000000000003          1.4834144152700901E-002
  0.14400000000000002          1.5080853365361691E-002
  0.14510000000000001          1.5312800183892250E-002
  0.14620000000000000          1.5523816458880901E-002
  0.14730000000000004          1.5707338228821754E-002
  0.14840000000000003          1.5856485813856125E-002
  0.14950000000000002          1.5964167192578316E-002
  0.15060000000000001          1.6023226082324982E-002
  0.15170000000000000          1.6026576980948448E-002
  0.15280000000000005          1.5967359766364098E-002
  0.15390000000000004          1.5839045867323875E-002
  0.15500000000000003          1.5635550022125244E-002
  0.15610000000000002          1.5351354144513607E-002
  0.15720000000000001          1.4981648884713650E-002
  0.15830000000000000          1.4522471465170383E-002
  0.15940000000000004          1.3970823958516121E-002
  0.16050000000000003          1.3324745930731297E-002
  0.16160000000000002          1.2583367526531219E-002
  0.16270000000000001          1.1746980249881744E-002
  0.16380000000000000          1.0817095637321472E-002
  0.16490000000000005          9.7964880988001823E-003
  0.16600000000000004          8.6892107501626015E-003
  0.16710000000000003          7.5005549006164074E-003
  0.16820000000000002          6.2369983643293381E-003
  0.16930000000000001          4.9061472527682781E-003
  0.17040000000000000          3.5166779998689890E-003
  0.17150000000000004          2.0782568026334047E-003
  0.17260000000000003          6.0142163420096040E-004
  0.17370000000000002         -9.0256775729358196E-004
  0.17480000000000001         -2.4218845646828413E-003
  0.17590000000000000         -3.9442833513021469E-003
  0.17700000000000005         -5.4572438821196556E-003
  0.17810000000000004         -6.9481376558542252E-003
  0.17920000000000003         -8.4044123068451881E-003
  0.18030000000000002         -9.8137818276882172E-003
  0.18140000000000001         -1.1164401657879353E-002
  0.18250000000000000         -1.2445011176168919E-002
  0.18360000000000004         -1.3645076192915440E-002
  0.18470000000000003         -1.4754931442439556E-002
  0.18580000000000002         -1.5765916556119919E-002
  0.18690000000000001         -1.6670513898134232E-002
  0.18800000000000000         -1.7462417483329773E-002
  0.18910000000000005         -1.8136594444513321E-002
  0.19020000000000004         -1.8689332529902458E-002
  0.19130000000000003         -1.9118268042802811E-002
  0.19240000000000002         -1.9422417506575584E-002
  0.19350000000000001         -1.9602166488766670E-002
  0.19460000000000005         -1.9659230485558510E-002
  0.19570000000000004         -1.9596569240093231E-002
  0.19680000000000003         -1.9418321549892426E-002
  0.19790000000000002         -1.9129708409309387E-002
  0.19900000000000001         -1.8736965954303741E-002
  0.20010000000000000         -1.8247233703732491E-002
  0.20120000000000005         -1.7668422311544418E-002
  0.20230000000000004         -1.7009058967232704E-002
  0.20340000000000003         -1.6278143972158432E-002
  0.20450000000000002         -1.5485017560422421E-002
  0.20560000000000000         -1.4639262109994888E-002
  0.20670000000000005         -1.3750566169619560E-002
  0.20780000000000004         -1.2828577309846878E-002
  0.20890000000000003         -1.1882757768034935E-002
