 -0.12000000000000000          0.0000000000000000     
 -0.11889999999999999          0.0000000000000000     
 -0.11780000000000000          0.0000000000000000     
 -0.11670000000000000        -0.87137281894683838     
 -0.11559999999999999         -3.5076310634613037     
 -0.11449999999999999         -5.9589333534240723     
 -0.11340000000000000         -3.0155498981475830     
 -0.11230000000000000          8.2575941085815430     
 -0.11119999999999999          21.668752670288086     
 -0.11009999999999999          23.630170822143555     
 -0.10900000000000000          6.0026450157165527     
 -0.10790000000000000         -21.970527648925781     
 -0.10679999999999999         -38.451919555664062     
 -0.10569999999999999         -30.149049758911133     
 -0.10460000000000000         -8.2185487747192383     
 -0.10349999999999999          2.5766885280609131     
 -0.10239999999999999         -4.8750209808349609     
 -0.10130000000000000         -3.0909278392791748     
 -0.10020000000000000          44.638816833496094     
  -9.9099999999999994E-002     132.57682800292969     
  -9.7999999999999990E-002     189.28021240234375     
  -9.6899999999999986E-002     123.38315582275391     
  -9.5799999999999996E-002    -86.170013427734375     
  -9.4699999999999993E-002    -336.54147338867188     
  -9.3599999999999989E-002    -449.65548706054688     
  -9.2499999999999999E-002    -302.33779907226562     
  -9.1399999999999995E-002     65.014816284179688     
  -9.0299999999999991E-002     460.51101684570312     
  -8.9200000000000002E-002     676.55249023437500     
  -8.8099999999999984E-002     645.20922851562500     
  -8.6999999999999994E-002     488.39370727539062     
  -8.5899999999999990E-002     424.55514526367188     
  -8.4799999999999986E-002     610.91406250000000     
  -8.3699999999999997E-002     1046.0683593750000     
  -8.2599999999999993E-002     1597.9655761718750     
  -8.1499999999999989E-002     2117.3198242187500     
  -8.0399999999999999E-002     2539.6635742187500     
  -7.9299999999999995E-002     2909.4516601562500     
  -7.8199999999999992E-002     3334.9140625000000     
  -7.7100000000000002E-002     3929.6855468750000     
  -7.5999999999999984E-002     4784.2617187500000     
  -7.4899999999999994E-002     5966.0878906250000     
  -7.3799999999999991E-002     7522.1279296875000     
  -7.2699999999999987E-002     9470.8808593750000     
  -7.1599999999999997E-002     11797.914062500000     
  -7.0499999999999993E-002     14476.018554687500     
  -6.9399999999999989E-002     17511.042968750000     
  -6.8300000000000000E-002     20988.345703125000     
  -6.7199999999999996E-002     25088.818359375000     
  -6.6099999999999992E-002     30059.621093750000     
  -6.5000000000000002E-002     36152.761718750000     
  -6.3899999999999985E-002     43564.835937500000     
  -6.2799999999999995E-002     52414.675781250000     
  -6.1699999999999991E-002     62778.566406250000     
  -6.0599999999999994E-002     74769.039062500000     
  -5.9499999999999990E-002     88609.195312500000     
  -5.8399999999999994E-002     104652.17968750000     
  -5.7299999999999990E-002     123329.16406250000     
  -5.6199999999999986E-002     145069.75000000000     
  -5.5099999999999996E-002     170261.46875000000     
  -5.3999999999999992E-002     199282.51562500000     
  -5.2899999999999989E-002     232569.70312500000     
  -5.1799999999999985E-002     270647.43750000000     
  -5.0699999999999995E-002     314084.65625000000     
  -4.9599999999999991E-002     363423.59375000000     
  -4.8499999999999988E-002     419168.18750000000     
  -4.7399999999999998E-002     481855.18750000000     
  -4.6299999999999994E-002     552141.62500000000     
  -4.5199999999999990E-002     630807.56250000000     
  -4.4099999999999986E-002     718652.06250000000     
  -4.2999999999999997E-002     816367.18750000000     
  -4.1899999999999993E-002     924518.93750000000     
  -4.0799999999999989E-002     1043625.6875000000     
  -3.9699999999999985E-002     1174251.2500000000     
  -3.8599999999999995E-002     1316983.0000000000     
  -3.7499999999999992E-002     1472296.2500000000     
  -3.6399999999999988E-002     1640444.0000000000     
  -3.5299999999999984E-002     1821497.8750000000     
  -3.4199999999999994E-002     2015504.0000000000     
  -3.3099999999999991E-002     2222521.7500000000     
  -3.1999999999999987E-002     2442485.2500000000     
  -3.0899999999999997E-002     2674914.2500000000     
  -2.9799999999999993E-002     2918805.5000000000     
  -2.8699999999999989E-002     3172794.7500000000     
  -2.7599999999999986E-002     3435471.2500000000     
  -2.6499999999999996E-002     3705477.0000000000     
  -2.5399999999999992E-002     3981216.7500000000     
  -2.4299999999999988E-002     4260457.0000000000     
  -2.3199999999999985E-002     4540122.0000000000     
  -2.2099999999999995E-002     4816639.5000000000     
  -2.0999999999999991E-002     5086423.0000000000     
  -1.9899999999999987E-002     5346124.0000000000     
  -1.8799999999999983E-002     5592334.5000000000     
  -1.7699999999999994E-002     5820958.5000000000     
  -1.6599999999999990E-002     6026991.0000000000     
  -1.5499999999999986E-002     6204837.5000000000     
  -1.4399999999999996E-002     6349086.5000000000     
  -1.3299999999999992E-002     6454832.0000000000     
  -1.2199999999999989E-002     6517646.5000000000     
  -1.1099999999999985E-002     6532759.0000000000     
  -9.9999999999999950E-003     6494900.5000000000     
  -8.8999999999999913E-003     6398639.0000000000     
  -7.7999999999999875E-003     6239106.0000000000     
  -6.6999999999999837E-003     6012531.0000000000     
  -5.5999999999999939E-003     5715945.0000000000     
  -4.4999999999999901E-003     5346750.5000000000     
  -3.3999999999999864E-003     4902576.0000000000     
  -2.2999999999999826E-003     4381606.5000000000     
  -1.1999999999999927E-003     3783318.0000000000     
  -9.9999999999988987E-005     3108658.7500000000     
   1.0000000000000148E-003     2359713.2500000000     
   2.1000000000000185E-003     1539298.0000000000     
   3.2000000000000084E-003     650886.31250000000     
   4.3000000000000121E-003    -300823.25000000000     
   5.4000000000000159E-003    -1309433.6250000000     
   6.5000000000000058E-003    -2366967.2500000000     
   7.6000000000000234E-003    -3464396.0000000000     
   8.7000000000000133E-003    -4592273.5000000000     
   9.8000000000000032E-003    -5740710.0000000000     
   1.0900000000000021E-002    -6898905.0000000000     
   1.2000000000000011E-002    -8054477.0000000000     
   1.3100000000000001E-002    -9194034.0000000000     
   1.4200000000000018E-002    -10304112.000000000     
   1.5300000000000008E-002    -11371978.000000000     
   1.6400000000000026E-002    -12385502.000000000     
   1.7500000000000016E-002    -13332485.000000000     
   1.8600000000000005E-002    -14200011.000000000     
   1.9700000000000023E-002    -14975240.000000000     
   2.0800000000000013E-002    -15646521.000000000     
   2.1900000000000003E-002    -16204414.000000000     
   2.3000000000000020E-002    -16641395.000000000     
   2.4100000000000010E-002    -16950840.000000000     
   2.5200000000000000E-002    -17126466.000000000     
   2.6300000000000018E-002    -17162960.000000000     
   2.7400000000000008E-002    -17057306.000000000     
   2.8500000000000025E-002    -16809484.000000000     
   2.9600000000000015E-002    -16422052.000000000     
   3.0700000000000005E-002    -15898820.000000000     
   3.1800000000000023E-002    -15244285.000000000     
   3.2900000000000013E-002    -14463905.000000000     
   3.4000000000000002E-002    -13565327.000000000     
   3.5100000000000020E-002    -12558903.000000000     
   3.6200000000000010E-002    -11456909.000000000     
   3.7300000000000028E-002    -10272195.000000000     
   3.8400000000000017E-002    -9017498.0000000000     
   3.9500000000000007E-002    -7706024.0000000000     
   4.0600000000000025E-002    -6352103.0000000000     
   4.1700000000000015E-002    -4971486.0000000000     
   4.2800000000000005E-002    -3580304.7500000000     
   4.3900000000000022E-002    -2193635.5000000000     
   4.5000000000000012E-002    -825293.56250000000     
   4.6100000000000002E-002     511647.84375000000     
   4.7200000000000020E-002     1803934.0000000000     
   4.8300000000000010E-002     3038277.7500000000     
   4.9400000000000027E-002     4202696.5000000000     
   5.0500000000000017E-002     5287541.0000000000     
   5.1600000000000007E-002     6285439.5000000000     
   5.2700000000000025E-002     7190242.5000000000     
   5.3800000000000014E-002     7995874.0000000000     
   5.4900000000000004E-002     8696818.0000000000     
   5.6000000000000022E-002     9289509.0000000000     
   5.7100000000000012E-002     9773430.0000000000     
   5.8200000000000002E-002     10150560.000000000     
   5.9300000000000019E-002     10423518.000000000     
   6.0400000000000009E-002     10594757.000000000     
   6.1500000000000027E-002     10666650.000000000     
   6.2600000000000017E-002     10643410.000000000     
   6.3700000000000007E-002     10531785.000000000     
   6.4800000000000024E-002     10340361.000000000     
   6.5900000000000014E-002     10077666.000000000     
   6.7000000000000004E-002     9750674.0000000000     
   6.8100000000000022E-002     9365732.0000000000     
   6.9200000000000012E-002     8930219.0000000000     
   7.0300000000000029E-002     8453363.0000000000     
   7.1400000000000019E-002     7945200.0000000000     
   7.2500000000000009E-002     7414665.5000000000     
   7.3600000000000027E-002     6868516.5000000000     
   7.4700000000000016E-002     6312256.5000000000     
   7.5800000000000006E-002     5751959.0000000000     
   7.6900000000000024E-002     5194880.0000000000     
   7.8000000000000014E-002     4648391.0000000000     
   7.9100000000000004E-002     4118166.2500000000     
   8.0200000000000021E-002     3607473.0000000000     
   8.1300000000000011E-002     3118396.0000000000     
   8.2400000000000029E-002     2653517.7500000000     
   8.3500000000000019E-002     2216431.7500000000     
   8.4600000000000009E-002     1810425.8750000000     
   8.5700000000000026E-002     1436914.0000000000     
   8.6800000000000016E-002     1095221.1250000000     
   8.7900000000000006E-002     784086.75000000000     
   8.9000000000000024E-002     503280.34375000000     
   9.0100000000000013E-002     253638.46875000000     
   9.1200000000000003E-002     35480.718750000000     
   9.2300000000000021E-002    -152737.03125000000     
   9.3400000000000011E-002    -314163.37500000000     
   9.4500000000000028E-002    -451777.75000000000     
   9.5600000000000018E-002    -566939.87500000000     
   9.6700000000000008E-002    -659787.81250000000     
   9.7800000000000026E-002    -731109.87500000000     
   9.8900000000000016E-002    -783604.93750000000     
  0.10000000000000001         -821179.18750000000     
  0.10110000000000002         -846880.93750000000     
  0.10220000000000001         -861666.12500000000     
  0.10330000000000003         -865212.12500000000     
  0.10440000000000002         -858041.06250000000     
  0.10550000000000001         -842643.18750000000     
  0.10660000000000003         -822485.12500000000     
  0.10770000000000002         -799759.00000000000     
  0.10880000000000001         -774468.43750000000     
  0.10990000000000003         -745443.75000000000     
  0.11100000000000002         -712611.93750000000     
  0.11210000000000001         -677967.62500000000     
  0.11320000000000002         -644210.93750000000     
  0.11430000000000001         -612652.37500000000     
  0.11540000000000003         -582383.00000000000     
  0.11650000000000002         -551615.50000000000     
  0.11760000000000001         -519882.81250000000     
  0.11870000000000003         -488779.56250000000     
  0.11980000000000002         -460382.71875000000     
  0.12090000000000001         -435269.75000000000     
  0.12200000000000003         -411977.59375000000     
  0.12310000000000001         -388607.87500000000     
  0.12420000000000003         -364837.43750000000     
  0.12530000000000002         -342189.50000000000     
  0.12640000000000001         -322408.90625000000     
  0.12750000000000003         -305552.34375000000     
  0.12860000000000002         -289900.65625000000     
  0.12970000000000001         -273706.90625000000     
  0.13080000000000003         -256986.89062500000     
  0.13190000000000002         -241392.20312500000     
  0.13300000000000001         -228339.09375000000     
  0.13410000000000000         -217450.50000000000     
  0.13520000000000004         -206844.84375000000     
  0.13630000000000003         -195114.87500000000     
  0.13740000000000002         -182767.39062500000     
  0.13850000000000001         -171629.68750000000     
  0.13960000000000000         -162886.98437500000     
  0.14070000000000005         -155741.65625000000     
  0.14180000000000004         -148234.60937500000     
  0.14290000000000003         -139278.56250000000     
  0.14400000000000002         -129814.25781250000     
  0.14510000000000001         -121801.60937500000     
  0.14620000000000000         -116128.90625000000     
  0.14730000000000004         -111631.96093750000     
  0.14840000000000003         -106290.57031250000     
  0.14950000000000002         -99314.695312500000     
  0.15060000000000001         -91975.851562500000     
  0.15170000000000000         -86257.882812500000     
  0.15280000000000005         -82765.312500000000     
  0.15390000000000004         -80075.773437500000     
  0.15500000000000003         -76252.570312500000     
  0.15610000000000002         -70870.125000000000     
  0.15720000000000001         -65476.941406250000     
  0.15830000000000000         -61964.679687500000     
  0.15940000000000004         -60549.210937500000     
  0.16050000000000003         -59521.472656250000     
  0.16160000000000002         -57005.601562500000     
  0.16270000000000001         -52895.734375000000     
  0.16380000000000000         -48949.656250000000     
  0.16490000000000005         -46933.640625000000     
  0.16600000000000004         -46760.015625000000     
  0.16710000000000003         -46576.921875000000     
  0.16820000000000002         -44692.746093750000     
  0.16930000000000001         -41321.343750000000     
  0.17040000000000000         -38328.558593750000     
  0.17150000000000004         -37257.953125000000     
  0.17260000000000003         -37709.027343750000     
  0.17370000000000002         -37766.777343750000     
  0.17480000000000001         -36000.468750000000     
  0.17590000000000000         -32932.812500000000     
  0.17700000000000005         -30448.134765625000     
  0.17810000000000004         -29793.013671875000     
  0.17920000000000003         -30278.763671875000     
  0.18030000000000002         -30030.322265625000     
  0.18140000000000001         -27970.916015625000     
  0.18250000000000000         -24949.060546875000     
  0.18360000000000004         -22829.283203125000     
  0.18470000000000003         -22535.652343750000     
  0.18580000000000002         -23108.796875000000     
  0.18690000000000001         -22758.408203125000     
  0.18800000000000000         -20766.878906250000     
  0.18910000000000005         -18239.234375000000     
  0.19020000000000004         -16908.376953125000     
  0.19130000000000003         -17292.990234375000     
  0.19240000000000002         -18149.185546875000     
  0.19350000000000001         -17792.576171875000     
  0.19460000000000005         -15878.113281250000     
  0.19570000000000004         -13768.707031250000     
  0.19680000000000003         -13096.583984375000     
  0.19790000000000002         -14057.598632812500     
  0.19900000000000001         -15205.055664062500     
  0.20010000000000000         -14977.299804687500     
  0.20120000000000005         -13320.708007812500     
  0.20230000000000004         -11723.189453125000     
  0.20340000000000003         -11634.726562500000     
  0.20450000000000002         -12943.947265625000     
  0.20560000000000000         -14098.953125000000     
  0.20670000000000005         -13723.617187500000     
  0.20780000000000004         -12032.379882812500     
  0.20890000000000003         -10572.979492187500     
