 -0.12000000000000000          0.0000000000000000
 -0.11889999999999999          0.0000000000000000
 -0.11780000000000000          0.0000000000000000
 -0.11670000000000000          0.0000000000000000
 -0.11559999999999999          0.0000000000000000
 -0.11449999999999999          0.0000000000000000
 -0.11340000000000000          0.0000000000000000
 -0.11230000000000000          7.5626739128857553E-026
 -0.11119999999999999          7.0051589291885451E-019
 -0.11009999999999999          4.9563305727972831E-018
 -0.10900000000000000          1.0801440244003193E-017
 -0.10790000000000000         -1.9451036298898688E-017
 -0.10679999999999999         -1.7707815361925247E-016
 -0.10569999999999999         -4.5634381783314182E-016
 -0.10460000000000000         -3.3751044222884302E-016
 -0.10349999999999999          1.3943568386498226E-015
 -0.10239999999999999          5.3090991753703895E-015
 -0.10130000000000000          7.9867185524070024E-015
 -0.10020000000000000          8.8194764534012260E-017
  -9.9099999999999994E-002    -2.6687665274850898E-014
  -9.7999999999999990E-002    -6.0792313565961875E-014
  -9.6899999999999986E-002    -5.5600157453355309E-014
  -9.5799999999999996E-002     4.8361156388104093E-014
  -9.4699999999999993E-002     2.4531686903216110E-013
  -9.3599999999999989E-002     3.8010352786284340E-013
  -9.2499999999999999E-002     1.8131898977050143E-013
  -9.1399999999999995E-002    -4.9725929754038112E-013
  -9.0299999999999991E-002    -1.3401433825513398E-012
  -8.9200000000000002E-002    -1.5009228668955155E-012
  -8.8099999999999984E-002    -1.4474033950551135E-013
  -8.6999999999999994E-002     2.5503355937511740E-012
  -8.5899999999999990E-002     4.7917728812629790E-012
  -8.4799999999999986E-002     3.9843709928599758E-012
  -8.3699999999999997E-002    -1.0214279509007662E-012
  -8.2599999999999993E-002    -7.8916552112562321E-012
  -8.1499999999999989E-002    -1.1359411675182507E-011
  -8.0399999999999999E-002    -7.0989282160982548E-012
  -7.9299999999999995E-002     3.7091081074580590E-012
  -7.8199999999999992E-002     1.3751975252995763E-011
  -7.7100000000000002E-002     1.5120417071190495E-011
  -7.5999999999999984E-002     7.1552386411710689E-012
  -7.4899999999999994E-002    -1.4806886185908530E-012
  -7.3799999999999991E-002    -1.1140788812313840E-012
  -7.2699999999999987E-002     6.1668569556472264E-012
  -7.1599999999999997E-002     3.3749908250058080E-012
  -7.0499999999999993E-002    -2.5861510849489733E-011
  -6.9399999999999989E-002    -7.2509213910887382E-011
  -6.8300000000000000E-002    -9.3549806789994250E-011
  -6.7199999999999996E-002    -3.9113431243853469E-011
  -6.6099999999999992E-002     9.6215480027694866E-011
  -6.5000000000000002E-002     2.4150065280892363E-010
  -6.3899999999999985E-002     2.7892946286023346E-010
  -6.2799999999999995E-002     1.3036149937306618E-010
  -6.1699999999999991E-002    -1.6145147718749087E-010
  -6.0599999999999994E-002    -4.3348410971866258E-010
  -5.9499999999999990E-002    -5.0459569855831887E-010
  -5.8399999999999994E-002    -3.0942509665621287E-010
  -5.7299999999999990E-002     4.7209833264894030E-011
  -5.6199999999999986E-002     3.6953484716661933E-010
  -5.5099999999999996E-002     5.2052717691708494E-010
  -5.3999999999999992E-002     5.0784687566363118E-010
  -5.2899999999999989E-002     4.2501568930930489E-010
  -5.1799999999999985E-002     3.0872679412929926E-010
  -5.0699999999999995E-002     7.0018622844170153E-011
  -4.9599999999999991E-002    -4.0067676954080866E-010
  -4.8499999999999988E-002    -1.0331817623665529E-009
  -4.7399999999999998E-002    -1.4922174607079342E-009
  -4.6299999999999994E-002    -1.3520560226965017E-009
  -4.5199999999999990E-002    -4.4153566913784914E-010
  -4.4099999999999986E-002     9.2595658918170898E-010
  -4.2999999999999997E-002     2.0745882789441339E-009
  -4.1899999999999993E-002     2.3926192138645774E-009
  -4.0799999999999989E-002     1.7383752215494042E-009
  -3.9699999999999985E-002     4.9713783090155061E-010
  -3.8599999999999995E-002    -7.4297717977955813E-010
  -3.7499999999999992E-002    -1.5953249832278971E-009
  -3.6399999999999988E-002    -2.0066628358961225E-009
  -3.5299999999999984E-002    -2.0511374820841866E-009
  -3.4199999999999994E-002    -1.6686403370158587E-009
  -3.3099999999999991E-002    -6.8450145551679498E-010
  -3.1999999999999987E-002     8.6373930230365659E-010
  -3.0899999999999997E-002     2.4397532882858286E-009
  -2.9799999999999993E-002     3.1495634988942811E-009
  -2.8699999999999989E-002     2.3234256740778392E-009
  -2.7599999999999986E-002     1.0312306564230767E-010
  -2.6499999999999996E-002    -2.4769348794251300E-009
  -2.5399999999999992E-002    -4.0275605073247789E-009
  -2.4299999999999988E-002    -3.5632781170136241E-009
  -2.3199999999999985E-002    -9.4147911688935437E-010
  -2.2099999999999995E-002     3.2120228699028530E-009
  -2.0999999999999991E-002     7.8198834074783008E-009
  -1.9899999999999987E-002     1.1530058685593758E-008
  -1.8799999999999983E-002     1.2693346818082318E-008
  -1.7699999999999994E-002     9.4386658489042929E-009
  -1.6599999999999990E-002     8.5133011751281629E-011
  -1.5499999999999986E-002    -1.6321795470730649E-008
  -1.4399999999999996E-002    -3.9898353065837000E-008
  -1.3299999999999992E-002    -7.0540259855533805E-008
  -1.2199999999999989E-002    -1.0889196744301444E-007
  -1.1099999999999985E-002    -1.5684632614920702E-007
  -9.9999999999999950E-003    -2.1709898589961085E-007
  -8.8999999999999913E-003    -2.9219731345619948E-007
  -7.7999999999999875E-003    -3.8414094660765841E-007
  -6.6999999999999837E-003    -4.9522060407980462E-007
  -5.5999999999999939E-003    -6.2965966662886785E-007
  -4.4999999999999901E-003    -7.9478570569335716E-007
  -3.3999999999999864E-003    -1.0007521495936089E-006
  -2.2999999999999826E-003    -1.2590758160513360E-006
  -1.1999999999999927E-003    -1.5813253639862523E-006
  -9.9999999999988987E-005    -1.9792018974840175E-006
   1.0000000000000148E-003    -2.4660687358846189E-006
   2.1000000000000185E-003    -3.0588444133172743E-006
   3.2000000000000084E-003    -3.7790903206769144E-006
   4.3000000000000121E-003    -4.6531017687811982E-006
   5.4000000000000159E-003    -5.7117877076962031E-006
   6.5000000000000058E-003    -6.9911825448798481E-006
   7.6000000000000234E-003    -8.5335796029539779E-006
   8.7000000000000133E-003    -1.0388621376478113E-005
   9.8000000000000032E-003    -1.2613814760698006E-005
   1.0900000000000021E-002    -1.5274850738933310E-005
   1.2000000000000011E-002    -1.8446569811203517E-005
   1.3100000000000001E-002    -2.2214979253476486E-005
   1.4200000000000018E-002    -2.6679677830543369E-005
   1.5300000000000008E-002    -3.1955623853718862E-005
   1.6400000000000026E-002    -3.8173937355168164E-005
   1.7500000000000016E-002    -4.5482403947971761E-005
   1.8600000000000005E-002    -5.4046817240305245E-005
   1.9700000000000023E-002    -6.4053339883685112E-005
   2.0800000000000013E-002    -7.5710937380790710E-005
   2.1900000000000003E-002    -8.9252906036563218E-005
   2.3000000000000020E-002    -1.0493723675608635E-004
   2.4100000000000010E-002    -1.2304705160204321E-004
   2.5200000000000000E-002    -1.4389227726496756E-004
   2.6300000000000018E-002    -1.6781271551735699E-004
   2.7400000000000008E-002    -1.9518042972777039E-004
   2.8500000000000025E-002    -2.2640002134721726E-004
   2.9600000000000015E-002    -2.6190644712187350E-004
   3.0700000000000005E-002    -3.0216260347515345E-004
   3.1800000000000023E-002    -3.4765788586810231E-004
   3.2900000000000013E-002    -3.9890815969556570E-004
   3.4000000000000002E-002    -4.5645560021512210E-004
   3.5100000000000020E-002    -5.2086653886362910E-004
   3.6200000000000010E-002    -5.9272645739838481E-004
   3.7300000000000028E-002    -6.7263405071571469E-004
   3.8400000000000017E-002    -7.6119421282783151E-004
   3.9500000000000007E-002    -8.5901090642437339E-004
   4.0600000000000025E-002    -9.6667942125350237E-004
   4.1700000000000015E-002    -1.0847768280655146E-003
   4.2800000000000005E-002    -1.2138515012338758E-003
   4.3900000000000022E-002    -1.3544111279770732E-003
   4.5000000000000012E-002    -1.5069117071107030E-003
   4.6100000000000002E-002    -1.6717450926080346E-003
   4.7200000000000020E-002    -1.8492246745154262E-003
   4.8300000000000010E-002    -2.0395689643919468E-003
   4.9400000000000027E-002    -2.2428852971643209E-003
   5.0500000000000017E-002    -2.4591526016592979E-003
   5.1600000000000007E-002    -2.6882092934101820E-003
   5.2700000000000025E-002    -2.9297403525561094E-003
   5.3800000000000014E-002    -3.1832603272050619E-003
   5.4900000000000004E-002    -3.4480977337807417E-003
   5.6000000000000022E-002    -3.7233803886920214E-003
   5.7100000000000012E-002    -4.0080249309539795E-003
   5.8200000000000002E-002    -4.3007326312363148E-003
   5.9300000000000019E-002    -4.5999847352504730E-003
   6.0400000000000009E-002    -4.9040396697819233E-003
   6.1500000000000027E-002    -5.2109286189079285E-003
   6.2600000000000017E-002    -5.5184587836265564E-003
   6.3700000000000007E-002    -5.8242259547114372E-003
   6.4800000000000024E-002    -6.1256270855665207E-003
   6.5900000000000014E-002    -6.4198737964034081E-003
   6.7000000000000004E-002    -6.7040110006928444E-003
   6.8100000000000022E-002    -6.9749378599226475E-003
   6.9200000000000012E-002    -7.2294389829039574E-003
   7.0300000000000029E-002    -7.4642226099967957E-003
   7.1400000000000019E-002    -7.6759625226259232E-003
   7.2500000000000009E-002    -7.8613366931676865E-003
   7.3600000000000027E-002    -8.0170612782239914E-003
   7.4700000000000016E-002    -8.1399418413639069E-003
   7.5800000000000006E-002    -8.2269161939620972E-003
   7.6900000000000024E-002    -8.2751102745532990E-003
   7.8000000000000014E-002    -8.2818912342190742E-003
   7.9100000000000004E-002    -8.2449112087488174E-003
   8.0200000000000021E-002    -8.1621492281556129E-003
   8.1300000000000011E-002    -8.0319494009017944E-003
   8.2400000000000029E-002    -7.8530693426728249E-003
   8.3500000000000019E-002    -7.6247141696512699E-003
   8.4600000000000009E-002    -7.3465732857584953E-003
   8.5700000000000026E-002    -7.0188413374125957E-003
   8.6800000000000016E-002    -6.6422293893992901E-003
   8.7900000000000006E-002    -6.2179681845009327E-003
   8.9000000000000024E-002    -5.7478086091578007E-003
   9.0100000000000013E-002    -5.2340207621455193E-003
   9.1200000000000003E-002    -4.6793776564300060E-003
   9.2300000000000021E-002    -4.0871319361031055E-003
   9.3400000000000011E-002    -3.4609709400683641E-003
   9.4500000000000028E-002    -2.8049706015735865E-003
   9.5600000000000018E-002    -2.1235456224530935E-003
   9.6700000000000008E-002    -1.4213999966159463E-003
   9.7800000000000026E-002    -7.0346752181649208E-004
   9.8900000000000016E-002     2.5163157260976732E-005
  0.10000000000000001          7.5933011248707771E-004
  0.10110000000000002          1.4938790118321776E-003
  0.10220000000000001          2.2237345110625029E-003
  0.10330000000000003          2.9439690988510847E-003
  0.10440000000000002          3.6498748231679201E-003
  0.10550000000000001          4.3370430357754230E-003
  0.10660000000000003          5.0014401786029339E-003
  0.10770000000000002          5.6394734419882298E-003
  0.10880000000000001          6.2480401247739792E-003
  0.10990000000000003          6.8245599977672100E-003
  0.11100000000000002          7.3670106939971447E-003
  0.11210000000000001          7.8739672899246216E-003
  0.11320000000000002          8.3446241915225983E-003
  0.11430000000000001          8.7788123637437820E-003
  0.11540000000000003          9.1769713908433914E-003
  0.11650000000000002          9.5401238650083542E-003
  0.11760000000000001          9.8698344081640244E-003
  0.11870000000000003          1.0168186388909817E-002
  0.11980000000000002          1.0437743738293648E-002
  0.12090000000000001          1.0681487619876862E-002
  0.12200000000000003          1.0902733542025089E-002
  0.12310000000000001          1.1105045676231384E-002
  0.12420000000000003          1.1292146518826485E-002
  0.12530000000000002          1.1467852629721165E-002
  0.12640000000000001          1.1635987088084221E-002
  0.12750000000000003          1.1800284497439861E-002
  0.12860000000000002          1.1964282952249050E-002
  0.12970000000000001          1.2131225317716599E-002
  0.13080000000000003          1.2303969822824001E-002
  0.13190000000000002          1.2484921142458916E-002
  0.13300000000000001          1.2675975449383259E-002
  0.13410000000000000          1.2878446839749813E-002
  0.13520000000000004          1.3092993758618832E-002
  0.13630000000000003          1.3319556601345539E-002
  0.13740000000000002          1.3557330705225468E-002
  0.13850000000000001          1.3804763555526733E-002
  0.13960000000000000          1.4059561304748058E-002
  0.14070000000000005          1.4318691566586494E-002
  0.14180000000000004          1.4578380621969700E-002
  0.14290000000000003          1.4834145084023476E-002
  0.14400000000000002          1.5080849640071392E-002
  0.14510000000000001          1.5312797389924526E-002
  0.14620000000000000          1.5523816458880901E-002
  0.14730000000000004          1.5707338228821754E-002
  0.14840000000000003          1.5856482088565826E-002
  0.14950000000000002          1.5964161604642868E-002
  0.15060000000000001          1.6023222357034683E-002
  0.15170000000000000          1.6026584431529045E-002
  0.15280000000000005          1.5967376530170441E-002
  0.15390000000000004          1.5839066356420517E-002
  0.15500000000000003          1.5635564923286438E-002
  0.15610000000000002          1.5351362526416779E-002
  0.15720000000000001          1.4981654472649097E-002
  0.15830000000000000          1.4522479847073555E-002
  0.15940000000000004          1.3970833271741867E-002
  0.16050000000000003          1.3324745930731297E-002
  0.16160000000000002          1.2583354488015175E-002
  0.16270000000000001          1.1746958829462528E-002
  0.16380000000000000          1.0817072354257107E-002
  0.16490000000000005          9.7964713349938393E-003
  0.16600000000000004          8.6892005056142807E-003
  0.16710000000000003          7.5005469843745232E-003
  0.16820000000000002          6.2369895167648792E-003
  0.16930000000000001          4.9061411991715431E-003
  0.17040000000000000          3.5166821908205748E-003
  0.17150000000000004          2.0782714709639549E-003
  0.17260000000000003          6.0143589507788420E-004
  0.17370000000000002         -9.0256705880165100E-004
  0.17480000000000001         -2.4219008628278971E-003
  0.17590000000000000         -3.9443057030439377E-003
  0.17700000000000005         -5.4572578519582748E-003
  0.17810000000000004         -6.9481376558542252E-003
  0.17920000000000003         -8.4044067189097404E-003
  0.18030000000000002         -9.8137836903333664E-003
  0.18140000000000001         -1.1164414696395397E-002
  0.18250000000000000         -1.2445026077330112E-002
  0.18360000000000004         -1.3645082712173462E-002
  0.18470000000000003         -1.4754925854504108E-002
  0.18580000000000002         -1.5765907242894173E-002
  0.18690000000000001         -1.6670506447553635E-002
  0.18800000000000000         -1.7462415620684624E-002
  0.18910000000000005         -1.8136598169803619E-002
  0.19020000000000004         -1.8689334392547607E-002
  0.19130000000000003         -1.9118266180157661E-002
  0.19240000000000002         -1.9422419369220734E-002
  0.19350000000000001         -1.9602181389927864E-002
  0.19460000000000005         -1.9659254699945450E-002
  0.19570000000000004         -1.9596595317125320E-002
  0.19680000000000003         -1.9418330863118172E-002
  0.19790000000000002         -1.9129697233438492E-002
  0.19900000000000001         -1.8736941739916801E-002
  0.20010000000000000         -1.8247215077280998E-002
  0.20120000000000005         -1.7668420448899269E-002
  0.20230000000000004         -1.7009066417813301E-002
  0.20340000000000003         -1.6278149560093880E-002
  0.20450000000000002         -1.5485017560422421E-002
  0.20560000000000000         -1.4639262109994888E-002
  0.20670000000000005         -1.3750570826232433E-002
  0.20780000000000004         -1.2828584760427475E-002
  0.20890000000000003         -1.1882764287292957E-002
