 -0.12000000000000000          0.0000000000000000
 -0.11889999999999999          0.0000000000000000
 -0.11780000000000000          0.0000000000000000
 -0.11670000000000000          0.0000000000000000
 -0.11559999999999999          0.0000000000000000
 -0.11449999999999999          0.0000000000000000
 -0.11340000000000000          0.0000000000000000
 -0.11230000000000000          0.0000000000000000
 -0.11119999999999999          0.0000000000000000
 -0.11009999999999999          0.0000000000000000
 -0.10900000000000000          0.0000000000000000
 -0.10790000000000000          0.0000000000000000
 -0.10679999999999999          0.0000000000000000
 -0.10569999999999999          0.0000000000000000
 -0.10460000000000000          0.0000000000000000
 -0.10349999999999999         -1.5934270409197512E-033
 -0.10239999999999999         -1.7179056478580927E-032
 -0.10130000000000000         -4.5706952554534399E-032
 -0.10020000000000000          2.8808408994867598E-031
  -9.9099999999999994E-002     2.7158613958234285E-030
  -9.7999999999999990E-002     8.6149848154815320E-030
  -9.6899999999999986E-002     1.7270520988721799E-030
  -9.5799999999999996E-002    -8.8416494666590655E-029
  -9.4699999999999993E-002    -3.4518047577613829E-028
  -9.3599999999999989E-002    -4.7434547120539596E-028
  -9.2499999999999999E-002     9.5128035522102057E-028
  -9.1399999999999995E-002     6.0334054183566035E-027
  -9.0299999999999991E-002     1.2249727959111329E-026
  -8.9200000000000002E-002     2.3829207645672612E-027
  -8.8099999999999984E-002    -5.3283659146959819E-026
  -8.6999999999999994E-002    -1.4825070387389461E-025
  -8.5899999999999990E-002    -1.4702490030884267E-025
  -8.4799999999999986E-002     2.1481150835330626E-025
  -8.3699999999999997E-002     9.9549927225435605E-025
  -8.2599999999999993E-002     1.4279359585946656E-024
  -8.1499999999999989E-002    -7.5172823633612725E-026
  -8.0399999999999999E-002    -3.9406970651854833E-024
  -7.9299999999999995E-002    -6.2137461210382738E-024
  -7.8199999999999992E-002     3.7544375391319398E-025
  -7.7100000000000002E-002     1.4519773821497943E-023
  -7.5999999999999984E-002     1.0798354055554029E-023
  -7.4899999999999994E-002    -4.6635083823063313E-023
  -7.3799999999999991E-002    -1.2889560575333789E-022
  -7.2699999999999987E-002    -5.4922421042095581E-023
  -7.1599999999999997E-002     4.2133086191403208E-022
  -7.0499999999999993E-002     1.1691647649069564E-021
  -6.9399999999999989E-002     1.1241722788151805E-021
  -6.8300000000000000E-002    -1.4286195767776602E-021
  -6.7199999999999996E-002    -6.6950657842720929E-021
  -6.6099999999999992E-002    -1.0117772753541730E-020
  -6.5000000000000002E-002    -2.2135017957588738E-021
  -6.3899999999999985E-002     2.3100175365931165E-020
  -6.2799999999999995E-002     5.2817417584897220E-020
  -6.1699999999999991E-002     4.7171247513497911E-020
  -6.0599999999999994E-002    -3.6031890547581852E-020
  -5.9499999999999990E-002    -1.8007463441337990E-019
  -5.8399999999999994E-002    -2.5787479673432521E-019
  -5.7299999999999990E-002    -8.0942492221063551E-020
  -5.6199999999999986E-002     4.0353132473877446E-019
  -5.5099999999999996E-002     8.8491533776739135E-019
  -5.3999999999999992E-002     7.2526410287067541E-019
  -5.2899999999999989E-002    -5.0795326109897327E-019
  -5.1799999999999985E-002    -2.2456640481592273E-018
  -5.0699999999999995E-002    -2.7039190055863076E-018
  -4.9599999999999991E-002    -1.2701596120177849E-019
  -4.8499999999999988E-002     4.8195322702738760E-018
  -4.7399999999999998E-002     7.7038506820615671E-018
  -4.6299999999999994E-002     2.8539976928442536E-018
  -4.5199999999999990E-002    -1.0113912534267493E-017
  -4.4099999999999986E-002    -2.0976536019458783E-017
  -4.2999999999999997E-002    -1.3065903419148760E-017
  -4.1899999999999993E-002     2.0212393187027196E-017
  -4.0799999999999989E-002     5.7602779980494114E-017
  -3.9699999999999985E-002     5.3313047793573714E-017
  -3.8599999999999995E-002    -2.4866471963997603E-017
  -3.7499999999999992E-002    -1.4257966634788729E-016
  -3.6399999999999988E-002    -1.8637874743367209E-016
  -3.5299999999999984E-002    -4.0085457034450439E-017
  -3.4199999999999994E-002     2.7486571186470749E-016
  -3.3099999999999991E-002     5.1833223001205328E-016
  -3.1999999999999987E-002     3.5257325559964585E-016
  -3.0899999999999997E-002    -3.3192378348566808E-016
  -2.9799999999999993E-002    -1.1269757481350705E-015
  -2.8699999999999989E-002    -1.2191110158188282E-015
  -2.7599999999999986E-002    -4.4625560249178390E-017
  -2.6499999999999996E-002     1.9115174632771455E-015
  -2.5399999999999992E-002     2.9957829514754572E-015
  -2.4299999999999988E-002     1.5075696741930563E-015
  -2.3199999999999985E-002    -2.4444813933596288E-015
  -2.2099999999999995E-002    -5.9968352949157835E-015
  -2.0999999999999991E-002    -5.0882247464619900E-015
  -1.9899999999999987E-002     1.7706402140392312E-015
  -1.8799999999999983E-002     1.0437120494309702E-014
  -1.7699999999999994E-002     1.2552606455900998E-014
  -1.6599999999999990E-002     2.3250537712032719E-015
  -1.5499999999999986E-002    -1.5844676238370090E-014
  -1.4399999999999996E-002    -2.6731233261525870E-014
  -1.3299999999999992E-002    -1.4962311852819918E-014
  -1.2199999999999989E-002     1.8698465762941388E-014
  -1.1099999999999985E-002     5.0053501111663873E-014
  -9.9999999999999950E-003     4.5334517932184293E-014
  -8.8999999999999913E-003    -8.1915743177334022E-015
  -7.7999999999999875E-003    -7.9065877109374405E-014
  -6.6999999999999837E-003    -1.0353127860227018E-013
  -5.5999999999999939E-003    -3.6049207239111092E-014
  -4.4999999999999901E-003     9.6465505939127838E-014
  -3.3999999999999864E-003     1.9061756838766042E-013
  -2.2999999999999826E-003     1.3807633150991067E-013
  -1.1999999999999927E-003    -6.8505761501892748E-014
  -9.9999999999988987E-005    -2.8804600848628126E-013
   1.0000000000000148E-003    -3.1272198914612803E-013
   2.1000000000000185E-003    -4.7038639801842697E-014
   3.2000000000000084E-003     3.5707515503441423E-013
   4.3000000000000121E-003     5.5917266260016585E-013
   5.4000000000000159E-003     2.9507602958278589E-013
   6.5000000000000058E-003    -3.4008706224428198E-013
   7.6000000000000234E-003    -8.6159801081925336E-013
   8.7000000000000133E-003    -7.3281788623424937E-013
   9.8000000000000032E-003     1.3555240372005450E-013
   1.0900000000000021E-002     1.1559685500484029E-012
   1.2000000000000011E-002     1.4116505273747970E-012
   1.3100000000000001E-002     4.2653386248328595E-013
   1.4200000000000018E-002    -1.2515260095630198E-012
   1.5300000000000008E-002    -2.2661703243109788E-012
   1.6400000000000026E-002    -1.4933816986847925E-012
   1.7500000000000016E-002     8.4409855407446832E-013
   1.8600000000000005E-002     3.0195078208616888E-012
   1.9700000000000023E-002     3.0071442298079676E-012
   2.0800000000000013E-002     2.7844339247490302E-013
   2.1900000000000003E-002    -3.3362822053628616E-012
   2.3000000000000020E-002    -4.7552578194554052E-012
   2.4100000000000010E-002    -2.1741569048577825E-012
   2.5200000000000000E-002     2.9831039981970120E-012
   2.6300000000000018E-002     6.6219759710384185E-012
   2.7400000000000008E-002     5.0977941486174405E-012
   2.8500000000000025E-002    -1.3886103638477421E-012
   2.9600000000000015E-002    -8.1491480230511115E-012
   3.0700000000000005E-002    -9.2691748374007510E-012
   3.1800000000000023E-002    -2.6114752721406731E-012
   3.2900000000000013E-002     7.5851122258163706E-012
   3.4000000000000002E-002     1.3269000481708204E-011
   3.5100000000000020E-002     8.9302384931322365E-012
   3.6200000000000010E-002    -3.2351747149272914E-012
   3.7300000000000028E-002    -1.4084858279694856E-011
   3.8400000000000017E-002    -1.4440395060266731E-011
   3.9500000000000007E-002    -2.9818170502182717E-012
   4.0600000000000025E-002     1.1640909590437953E-011
   4.1700000000000015E-002     1.7091482742981334E-011
   4.2800000000000005E-002     7.6258305226062362E-012
   4.3900000000000022E-002    -1.0083921545001040E-011
   4.5000000000000012E-002    -2.1186722515276202E-011
   4.6100000000000002E-002    -1.4497374654920403E-011
   4.7200000000000020E-002     7.3440793377232971E-012
   4.8300000000000010E-002     2.8256183851049776E-011
   4.9400000000000027E-002     3.0452529387048344E-011
   5.0500000000000017E-002     8.8689498453642379E-012
   5.1600000000000007E-002    -2.3361033593682912E-011
   5.2700000000000025E-002    -4.3539782890178458E-011
   5.3800000000000014E-002    -3.6167173422807508E-011
   5.4900000000000004E-002    -5.0110748883724909E-012
   5.6000000000000022E-002     2.9107972976394336E-011
   5.7100000000000012E-002     4.3444969843875469E-011
   5.8200000000000002E-002     2.9940959433982783E-011
   5.9300000000000019E-002     7.1038400856204831E-013
   6.0400000000000009E-002    -2.1629011082158200E-011
   6.1500000000000027E-002    -2.1299406682828703E-011
   6.2600000000000017E-002    -1.2849860064889640E-012
   6.3700000000000007E-002     1.8991461181450120E-011
   6.4800000000000024E-002     1.8509513366460340E-011
   6.5900000000000014E-002    -8.6732678331036261E-012
   6.7000000000000004E-002    -4.6852959012522177E-011
   6.8100000000000022E-002    -6.7357674993218097E-011
   6.9200000000000012E-002    -4.7549179871264613E-011
   7.0300000000000029E-002     1.1809718133970470E-011
   7.1400000000000019E-002     8.2667532541602640E-011
   7.2500000000000009E-002     1.2367350199493643E-010
   7.3600000000000027E-002     1.0531689409454259E-010
   7.4700000000000016E-002     3.0915815046883566E-011
   7.5800000000000006E-002    -6.1719435118234856E-011
   7.6900000000000024E-002    -1.2219003586722010E-010
   7.8000000000000014E-002    -1.2065481946876844E-010
   7.9100000000000004E-002    -6.9023897708575532E-011
   8.0200000000000021E-002    -1.2122650105972355E-011
   8.1300000000000011E-002     8.2414856189538810E-012
   8.2400000000000029E-002    -9.6912027014450786E-012
   8.3500000000000019E-002    -2.1310862796664054E-011
   8.4600000000000009E-002     2.8587694711479372E-011
   8.5700000000000026E-002     1.5107341766462667E-010
   8.6800000000000016E-002     2.8393504214463405E-010
   8.7900000000000006E-002     3.1971378322559474E-010
   8.9000000000000024E-002     1.8002586921195274E-010
   9.0100000000000013E-002    -1.1534122962286730E-010
   9.1200000000000003E-002    -4.4014483724374998E-010
   9.2300000000000021E-002    -6.2895388897032944E-010
   9.3400000000000011E-002    -5.7755450422192212E-010
   9.4500000000000028E-002    -3.0586155830292228E-010
   9.5600000000000018E-002     6.1587915323180198E-011
   9.6700000000000008E-002     3.8076752861826435E-010
   9.7800000000000026E-002     5.7289079036237922E-010
   9.8900000000000016E-002     6.4593425053161013E-010
  0.10000000000000001          6.4368088636967968E-010
  0.10110000000000002          5.7327376179472367E-010
  0.10220000000000001          3.7978778455460827E-010
  0.10330000000000003         -3.5690408961563946E-012
  0.10440000000000002         -5.6617294186267486E-010
  0.10550000000000001         -1.1660856724660107E-009
  0.10660000000000003         -1.5660378549497977E-009
  0.10770000000000002         -1.5504282302458705E-009
  0.10880000000000001         -1.0543736994605979E-009
  0.10990000000000003         -2.2161078527815903E-010
  0.11100000000000002          6.5153071826529185E-010
  0.11210000000000001          1.2614527200582870E-009
  0.11320000000000002          1.4551128080242393E-009
  0.11430000000000001          1.3165352141797371E-009
  0.11540000000000003          1.1389301723951917E-009
  0.11650000000000002          1.3045627911267843E-009
  0.11760000000000001          2.1476416200982840E-009
  0.11870000000000003          3.8841276861489860E-009
  0.11980000000000002          6.6467142900705767E-009
  0.12090000000000001          1.0587735133071874E-008
  0.12200000000000003          1.5958363519530394E-008
  0.12310000000000001          2.3085767963948456E-008
  0.12420000000000003          3.2253463899678536E-008
  0.12530000000000002          4.3588094911228836E-008
  0.12640000000000001          5.7085987492655477E-008
  0.12750000000000003          7.2832577302506252E-008
  0.12860000000000002          9.1321290085488727E-008
  0.12970000000000001          1.1367663432793051E-007
  0.13080000000000003          1.4162328909606003E-007
  0.13190000000000002          1.7721043832352734E-007
  0.13300000000000001          2.2247975550726551E-007
  0.13410000000000000          2.7931449153584254E-007
  0.13520000000000004          3.4957733419105352E-007
  0.13630000000000003          4.3543440142457257E-007
  0.13740000000000002          5.3963862001182861E-007
  0.13850000000000001          6.6561125322550652E-007
  0.13960000000000000          8.1736135371102137E-007
  0.14070000000000005          9.9944838893861743E-007
  0.14180000000000004          1.2171821026640828E-006
  0.14290000000000003          1.4770636198591092E-006
  0.14400000000000002          1.7872591797640780E-006
  0.14510000000000001          2.1578382529696682E-006
  0.14620000000000000          2.6006516691268189E-006
  0.14730000000000004          3.1289753223973094E-006
  0.14840000000000003          3.7572060591628542E-006
  0.14950000000000002          4.5008773668087088E-006
  0.15060000000000001          5.3770640988659579E-006
  0.15170000000000000          6.4050491346279159E-006
  0.15280000000000005          7.6070105023973156E-006
  0.15390000000000004          9.0085331976297311E-006
  0.15500000000000003          1.0638892490533181E-005
  0.15610000000000002          1.2531171705632005E-005
  0.15720000000000001          1.4722365449415520E-005
  0.15830000000000000          1.7253565602004528E-005
  0.15940000000000004          2.0170213247183710E-005
  0.16050000000000003          2.3522328774561174E-005
  0.16160000000000002          2.7364574634702876E-005
  0.16270000000000001          3.1756080716149881E-005
  0.16380000000000000          3.6760156945092604E-005
  0.16490000000000005          4.2444185964995995E-005
  0.16600000000000004          4.8879901441978291E-005
  0.16710000000000003          5.6144028349081054E-005
  0.16820000000000002          6.4318999648094177E-005
  0.16930000000000001          7.3493247327860445E-005
  0.17040000000000000          8.3760780398733914E-005
  0.17150000000000004          9.5220086222980171E-005
  0.17260000000000003          1.0797278810059652E-004
  0.17370000000000002          1.2212262663524598E-004
  0.17480000000000001          1.3777487038169056E-004
  0.17590000000000000          1.5503579925280064E-004
  0.17700000000000005          1.7401187506038696E-004
  0.17810000000000004          1.9480835180729628E-004
  0.17920000000000003          2.1752748580183834E-004
  0.18030000000000002          2.4226694949902594E-004
  0.18140000000000001          2.6911855093203485E-004
  0.18250000000000000          2.9816737514920533E-004
  0.18360000000000004          3.2949031447060406E-004
  0.18470000000000003          3.6315433681011200E-004
  0.18580000000000002          3.9921366260387003E-004
  0.18690000000000001          4.3770699994638562E-004
  0.18800000000000000          4.7865507076494396E-004
  0.18910000000000005          5.2205834072083235E-004
  0.19020000000000004          5.6789512746036053E-004
  0.19130000000000003          6.1612040735781193E-004
  0.19240000000000002          6.6666444763541222E-004
  0.19350000000000001          7.1943120565265417E-004
  0.19460000000000005          7.7429634984582663E-004
  0.19570000000000004          8.3110621199011803E-004
  0.19680000000000003          8.8967673946171999E-004
  0.19790000000000002          9.4979302957653999E-004
  0.19900000000000001          1.0112092131748796E-003
  0.20010000000000000          1.0736490366980433E-003
  0.20120000000000005          1.1368072591722012E-003
  0.20230000000000004          1.2003495357930660E-003
  0.20340000000000003          1.2639139313250780E-003
  0.20450000000000002          1.3271125499159098E-003
  0.20560000000000000          1.3895345618948340E-003
  0.20670000000000005          1.4507498126477003E-003
  0.20780000000000004          1.5103133628144860E-003
  0.20890000000000003          1.5677694464102387E-003
