 -0.12000000000000000          0.0000000000000000
 -0.11889999999999999          0.0000000000000000
 -0.11780000000000000          0.0000000000000000
 -0.11670000000000000          0.0000000000000000
 -0.11559999999999999          0.0000000000000000
 -0.11449999999999999          0.0000000000000000
 -0.11340000000000000          0.0000000000000000
 -0.11230000000000000          0.0000000000000000
 -0.11119999999999999          0.0000000000000000
 -0.11009999999999999          0.0000000000000000
 -0.10900000000000000          0.0000000000000000
 -0.10790000000000000         -9.8036529785132589E-030
 -0.10679999999999999          1.8562001461179269E-029
 -0.10569999999999999          4.6283476570677677E-028
 -0.10460000000000000          7.7676211701387397E-028
 -0.10349999999999999         -5.8927767101193697E-027
 -0.10239999999999999         -2.3368052194580844E-026
 -0.10130000000000000          2.1006273518571088E-026
 -0.10020000000000000          3.1219017482321156E-025
  -9.9099999999999994E-002     5.9237345240463181E-025
  -9.7999999999999990E-002    -1.1595809600337424E-024
  -9.6899999999999986E-002    -7.4866504999810880E-024
  -9.5799999999999996E-002    -1.0762887658116197E-023
  -9.4699999999999993E-002     2.0716658040687118E-023
  -9.3599999999999989E-002     1.1287035715854169E-022
  -9.2499999999999999E-002     1.5697944525421490E-022
  -9.1399999999999995E-002    -2.0353949262797359E-022
  -9.0299999999999991E-002    -1.2210296557437240E-021
  -8.9200000000000002E-002    -1.8744785097503909E-021
  -8.8099999999999984E-002     9.9176158459882467E-022
  -8.6999999999999994E-002     9.8402148839389763E-021
  -8.5899999999999990E-002     1.7810167940547021E-020
  -8.4799999999999986E-002     2.1646508836945788E-021
  -8.3699999999999997E-002    -5.8833919001475935E-020
  -8.2599999999999993E-002    -1.3243701859311547E-019
  -8.1499999999999989E-002    -8.4132856757846688E-020
  -8.0399999999999999E-002     2.4689358636177163E-019
  -7.9299999999999995E-002     7.6696346662160408E-019
  -7.8199999999999992E-002     8.2620836514054816E-019
  -7.7100000000000002E-002    -5.4975286880038571E-019
  -7.5999999999999984E-002    -3.4154827227664204E-018
  -7.4899999999999994E-002    -5.2616119176176349E-018
  -7.3799999999999991E-002    -1.2633978241004702E-018
  -7.2699999999999987E-002     1.1131577125459844E-017
  -7.1599999999999997E-002     2.4640109026288792E-017
  -7.0499999999999993E-002     1.9771340484413922E-017
  -6.9399999999999989E-002    -2.1581469745031063E-017
  -6.8300000000000000E-002    -8.6903310604690369E-017
  -6.7199999999999996E-002    -1.1277329161805770E-016
  -6.6099999999999992E-002    -1.4215052504609478E-017
  -6.5000000000000002E-002     2.2104625748268391E-016
  -6.3899999999999985E-002     4.3365630503873140E-016
  -6.2799999999999995E-002     3.2033589631119642E-016
  -6.1699999999999991E-002    -3.1773624631695457E-016
  -6.0599999999999994E-002    -1.2134712586977722E-015
  -5.9499999999999990E-002    -1.5188635879952715E-015
  -5.8399999999999994E-002    -3.1188568387115071E-016
  -5.7299999999999990E-002     2.3501198054531316E-015
  -5.6199999999999986E-002     4.6503705461366663E-015
  -5.5099999999999996E-002     3.6740985823397257E-015
  -5.3999999999999992E-002    -2.1156699794990875E-015
  -5.2899999999999989E-002    -1.0074120289599135E-014
  -5.1799999999999985E-002    -1.3220736727332771E-014
  -5.0699999999999995E-002    -4.8121254634585046E-015
  -4.9599999999999991E-002     1.4198364367361792E-014
  -4.8499999999999988E-002     3.1114708384663917E-014
  -4.7399999999999998E-002     2.7458070539498891E-014
  -4.6299999999999994E-002    -5.3039322743921383E-015
  -4.5199999999999990E-002    -5.1189392622722624E-014
  -4.4099999999999986E-002    -7.2304656836483239E-014
  -4.2999999999999997E-002    -3.5369131262024192E-014
  -4.1899999999999993E-002     5.2570733953104937E-014
  -4.0799999999999989E-002     1.3120955060300088E-013
  -3.9699999999999985E-002     1.2131890273197471E-013
  -3.8599999999999995E-002    -5.8304462603395169E-015
  -3.7499999999999992E-002    -1.7775989285141042E-013
  -3.6399999999999988E-002    -2.4822919869778304E-013
  -3.5299999999999984E-002    -1.0967745131150106E-013
  -3.4199999999999994E-002     1.8520577324369902E-013
  -3.3099999999999991E-002     4.1002021656383336E-013
  -3.1999999999999987E-002     3.1715331316045647E-013
  -3.0899999999999997E-002    -1.2754627540766117E-013
  -2.9799999999999993E-002    -6.2641206241206837E-013
  -2.8699999999999989E-002    -7.0929866797728169E-013
  -2.7599999999999986E-002    -1.2199797921018385E-013
  -2.6499999999999996E-002     8.4534668761543363E-013
  -2.5399999999999992E-002     1.4261788364861028E-012
  -2.4299999999999988E-002     9.1899513172954972E-013
  -2.3199999999999985E-002    -6.4100732100752511E-013
  -2.2099999999999995E-002    -2.2580067156330319E-012
  -2.0999999999999991E-002    -2.5463880136411543E-012
  -1.9899999999999987E-002    -8.2257128625889964E-013
  -1.8799999999999983E-002     2.1042796411602227E-012
  -1.7699999999999994E-002     4.2176340545041491E-012
  -1.6599999999999990E-002     3.6751574006288479E-012
  -1.5499999999999986E-002     3.5119335824868037E-013
  -1.4399999999999996E-002    -3.7402446591283667E-012
  -1.3299999999999992E-002    -5.7145308450523569E-012
  -1.2199999999999989E-002    -3.9987813407749151E-012
  -1.1099999999999985E-002     2.7521724049045515E-013
  -9.9999999999999950E-003     3.9680619901005798E-012
  -8.8999999999999913E-003     4.4072007328310736E-012
  -7.7999999999999875E-003     1.7178713963492132E-012
  -6.6999999999999837E-003    -1.0861668552422654E-012
  -5.5999999999999939E-003    -6.8734026716782415E-013
  -4.4999999999999901E-003     3.1840667255589317E-012
  -3.3999999999999864E-003     6.6079954008646524E-012
  -2.2999999999999826E-003     4.1373935527611039E-012
  -1.1999999999999927E-003    -6.2111231956263335E-012
  -9.9999999999988987E-005    -1.9528456976503072E-011
   1.0000000000000148E-003    -2.5606771911212967E-011
   2.1000000000000185E-003    -1.5588450669179466E-011
   3.2000000000000084E-003     1.0433192504377686E-011
   4.3000000000000121E-003     4.0599915790417995E-011
   5.4000000000000159E-003     5.6454903252234345E-011
   6.5000000000000058E-003     4.3910170638428170E-011
   7.6000000000000234E-003     3.3060004386853414E-012
   8.7000000000000133E-003    -4.8394815932439883E-011
   9.8000000000000032E-003    -8.5587099907247222E-011
   1.0900000000000021E-002    -8.7841629803353527E-011
   1.2000000000000011E-002    -5.1147343305135706E-011
   1.3100000000000001E-002     1.0318075387150127E-011
   1.4200000000000018E-002     7.2492817304592450E-011
   1.5300000000000008E-002     1.1370673846933244E-010
   1.6400000000000026E-002     1.2263179360871845E-010
   1.7500000000000016E-002     9.7749447425243829E-011
   1.8600000000000005E-002     4.1617702339902252E-011
   1.9700000000000023E-002    -4.2092437174678921E-011
   2.0800000000000013E-002    -1.4342811660572607E-010
   2.1900000000000003E-002    -2.3631588352834854E-010
   2.3000000000000020E-002    -2.7563634708016593E-010
   2.4100000000000010E-002    -2.1213988898871605E-010
   2.5200000000000000E-002    -2.4268642651037453E-011
   2.6300000000000018E-002     2.5028459860187979E-010
   2.7400000000000008E-002     5.0837722920249462E-010
   2.8500000000000025E-002     6.1599286782509921E-010
   2.9600000000000015E-002     4.7436543582080049E-010
   3.0700000000000005E-002     8.3980558618357293E-011
   3.1800000000000023E-002    -4.3330489196691246E-010
   3.2900000000000013E-002    -8.7400608972387772E-010
   3.4000000000000002E-002    -1.0393865768065780E-009
   3.5100000000000020E-002    -8.2519341360054455E-010
   3.6200000000000010E-002    -2.6949534270848119E-010
   3.7300000000000028E-002     4.6147158316856007E-010
   3.8400000000000017E-002     1.1351858342223409E-009
   3.9500000000000007E-002     1.5280736676004381E-009
   4.0600000000000025E-002     1.4848834384295628E-009
   4.1700000000000015E-002     9.5415830791978351E-010
   4.2800000000000005E-002     7.9539985708976246E-012
   4.3900000000000022E-002    -1.1491551044073844E-009
   4.5000000000000012E-002    -2.1941319872098575E-009
   4.6100000000000002E-002    -2.7460047569149992E-009
   4.7200000000000020E-002    -2.4826927180754410E-009
   4.8300000000000010E-002    -1.2870756682659135E-009
   4.9400000000000027E-002     6.4157140711174065E-010
   5.0500000000000017E-002     2.7815250103202516E-009
   5.1600000000000007E-002     4.4217434158611013E-009
   5.2700000000000025E-002     4.9018136216716357E-009
   5.3800000000000014E-002     3.8671337243556536E-009
   5.4900000000000004E-002     1.4308705331700367E-009
   5.6000000000000022E-002    -1.8282979574735236E-009
   5.7100000000000012E-002    -5.0313069266394450E-009
   5.8200000000000002E-002    -7.2575909726424470E-009
   5.9300000000000019E-002    -7.8005584214224655E-009
   6.0400000000000009E-002    -6.3434559827157955E-009
   6.1500000000000027E-002    -3.0284681429293414E-009
   6.2600000000000017E-002     1.5669150421615541E-009
   6.3700000000000007E-002     6.5230851831188374E-009
   6.4800000000000024E-002     1.0734820143909474E-008
   6.5900000000000014E-002     1.3136305376804103E-008
   6.7000000000000004E-002     1.2975823970862166E-008
   6.8100000000000022E-002     1.0064074906779297E-008
   6.9200000000000012E-002     4.8724637657926451E-009
   7.0300000000000029E-002    -1.6254282364513983E-009
   7.1400000000000019E-002    -8.3742426326693931E-009
   7.2500000000000009E-002    -1.4781384116702156E-008
   7.3600000000000027E-002    -2.1153494955683527E-008
   7.4700000000000016E-002    -2.8821668607292850E-008
   7.5800000000000006E-002    -3.9902857906781719E-008
   7.6900000000000024E-002    -5.6830895545090243E-008
   7.8000000000000014E-002    -8.1894370396184968E-008
   7.9100000000000004E-002    -1.1697768798057950E-007
   8.0200000000000021E-002    -1.6355559750991233E-007
   8.1300000000000011E-002    -2.2285321676918102E-007
   8.2400000000000029E-002    -2.9605268991872435E-007
   8.3500000000000019E-002    -3.8451048567367252E-007
   8.4600000000000009E-002    -4.9005734581442084E-007
   8.5700000000000026E-002    -6.1547535779027385E-007
   8.6800000000000016E-002    -7.6514021429829882E-007
   8.7900000000000006E-002    -9.4565041308669606E-007
   8.9000000000000024E-002    -1.1661758207992534E-006
   9.0100000000000013E-002    -1.4383322195499204E-006
   9.1200000000000003E-002    -1.7756236729837838E-006
   9.2300000000000021E-002    -2.1927455691184150E-006
   9.3400000000000011E-002    -2.7051710276282392E-006
   9.4500000000000028E-002    -3.3293483738816576E-006
   9.5600000000000018E-002    -4.0835698200680781E-006
   9.6700000000000008E-002    -4.9892805691342801E-006
   9.7800000000000026E-002    -6.0724255490640644E-006
   9.8900000000000016E-002    -7.3644969234010205E-006
  0.10000000000000001         -8.9031336756306700E-006
  0.10110000000000002         -1.0732430382631719E-005
  0.10220000000000001         -1.2903199603897519E-005
  0.10330000000000003         -1.5473418898181990E-005
  0.10440000000000002         -1.8508882931200787E-005
  0.10550000000000001         -2.2083879230194725E-005
  0.10660000000000003         -2.6281841201125644E-005
  0.10770000000000002         -3.1195846531772986E-005
  0.10880000000000001         -3.6929224734194577E-005
  0.10990000000000003         -4.3596490286290646E-005
  0.11100000000000002         -5.1324521336937323E-005
  0.11210000000000001         -6.0253936680965126E-005
  0.11320000000000002         -7.0540103479288518E-005
  0.11430000000000001         -8.2353617472108454E-005
  0.11540000000000003         -9.5880051958374679E-005
  0.11650000000000002         -1.1131951032439247E-004
  0.11760000000000001         -1.2888610945083201E-004
  0.11870000000000003         -1.4880784146953374E-004
  0.11980000000000002         -1.7132624634541571E-004
  0.12090000000000001         -1.9669602625072002E-004
  0.12200000000000003         -2.2518375772051513E-004
  0.12310000000000001         -2.5706583983264863E-004
  0.12420000000000003         -2.9262594762258232E-004
  0.12530000000000002         -3.3215188886970282E-004
  0.12640000000000001         -3.7593205343000591E-004
  0.12750000000000003         -4.2425128049217165E-004
  0.12860000000000002         -4.7738620196469128E-004
  0.12970000000000001         -5.3559965454041958E-004
  0.13080000000000003         -5.9913459699600935E-004
  0.13190000000000002         -6.6820741631090641E-004
  0.13300000000000001         -7.4300164123997092E-004
  0.13410000000000000         -8.2366063725203276E-004
  0.13520000000000004         -9.1028044698759913E-004
  0.13630000000000003         -1.0029019322246313E-003
  0.13740000000000002         -1.1015031486749649E-003
  0.13850000000000001         -1.2059893924742937E-003
  0.13960000000000000         -1.3161849929019809E-003
  0.14070000000000005         -1.4318239409476519E-003
  0.14180000000000004         -1.5525425551459193E-003
  0.14290000000000003         -1.6778716817498207E-003
  0.14400000000000002         -1.8072308739647269E-003
  0.14510000000000001         -1.9399232696741819E-003
  0.14620000000000000         -2.0751317497342825E-003
  0.14730000000000004         -2.2119167260825634E-003
  0.14840000000000003         -2.3492143955081701E-003
  0.14950000000000002         -2.4858396500349045E-003
  0.15060000000000001         -2.6204891037195921E-003
  0.15170000000000000         -2.7517480775713921E-003
  0.15280000000000005         -2.8780987486243248E-003
  0.15390000000000004         -2.9979301616549492E-003
  0.15500000000000003         -3.1095512676984072E-003
  0.15610000000000002         -3.2112079206854105E-003
  0.15720000000000001         -3.3010991755872965E-003
  0.15830000000000000         -3.3773996401578188E-003
  0.15940000000000004         -3.4382815938442945E-003
  0.16050000000000003         -3.4819403663277626E-003
  0.16160000000000002         -3.5066211130470037E-003
  0.16270000000000001         -3.5106476861983538E-003
  0.16380000000000000         -3.4924501087516546E-003
  0.16490000000000005         -3.4505936782807112E-003
  0.16600000000000004         -3.3838080707937479E-003
  0.16710000000000003         -3.2910166773945093E-003
  0.16820000000000002         -3.1713631469756365E-003
  0.16930000000000001         -3.0242369975894690E-003
  0.17040000000000000         -2.8492959681898355E-003
  0.17150000000000004         -2.6464865077286959E-003
  0.17260000000000003         -2.4160607717931271E-003
  0.17370000000000002         -2.1585884969681501E-003
  0.17480000000000001         -1.8749677110463381E-003
  0.17590000000000000         -1.5664254315197468E-003
  0.17700000000000005         -1.2345176655799150E-003
  0.17810000000000004         -8.8112108642235398E-004
  0.17920000000000003         -5.0842075143009424E-004
  0.18030000000000002         -1.1889218149008229E-004
  0.18140000000000001          2.8472128906287253E-004
  0.18250000000000000          6.9943658309057355E-004
  0.18360000000000004          1.1220631422474980E-003
  0.18470000000000003          1.5492400852963328E-003
  0.18580000000000002          1.9774772226810455E-003
  0.18690000000000001          2.4031982757151127E-003
  0.18800000000000000          2.8227881994098425E-003
  0.18910000000000005          3.2326369546353817E-003
  0.19020000000000004          3.6291885189712048E-003
  0.19130000000000003          4.0089883841574192E-003
  0.19240000000000002          4.3687303550541401E-003
  0.19350000000000001          4.7053000889718533E-003
  0.19460000000000005          5.0158170051872730E-003
  0.19570000000000004          5.2976743318140507E-003
  0.19680000000000003          5.5485726334154606E-003
  0.19790000000000002          5.7665477506816387E-003
  0.19900000000000001          5.9499959461390972E-003
  0.20010000000000000          6.0976929962635040E-003
  0.20120000000000005          6.2088067643344402E-003
  0.20230000000000004          6.2829046510159969E-003
  0.20340000000000003          6.3199503347277641E-003
  0.20450000000000002          6.3202981837093830E-003
  0.20560000000000000          6.2846858054399490E-003
  0.20670000000000005          6.2142126262187958E-003
  0.20780000000000004          6.1103170737624168E-003
  0.20890000000000003          5.9747532941401005E-003
