 -0.12000000000000000          0.0000000000000000
 -0.11889999999999999          0.0000000000000000
 -0.11780000000000000          0.0000000000000000
 -0.11670000000000000          2.6836144417785590E-010
 -0.11559999999999999          9.1323637541051994E-010
 -0.11449999999999999          8.8428342426283280E-010
 -0.11340000000000000         -1.6768982868953231E-009
 -0.11230000000000000         -6.8369385708422215E-009
 -0.11119999999999999         -1.0786712856258873E-008
 -0.11009999999999999         -8.2626083752757040E-009
 -0.10900000000000000          1.2398611026753770E-009
 -0.10790000000000000          1.0354932911127435E-008
 -0.10679999999999999          9.7012922140038427E-009
 -0.10569999999999999         -1.2921734793280848E-009
 -0.10460000000000000         -1.0922632576182423E-008
 -0.10349999999999999         -6.3363327917898005E-009
 -0.10239999999999999          9.8929122671620462E-009
 -0.10130000000000000          1.6810812297762823E-008
 -0.10020000000000000         -6.1675686779949501E-009
  -9.9099999999999994E-002    -5.4770676882753833E-008
  -9.7999999999999990E-002    -9.6635432100811158E-008
  -9.6899999999999986E-002    -9.7999389936376247E-008
  -9.5799999999999996E-002    -5.6697778916259267E-008
  -9.4699999999999993E-002    -6.5858176689914671E-009
  -9.3599999999999989E-002     1.4891475608180826E-008
  -9.2499999999999999E-002     4.2139642886240836E-009
  -9.1399999999999995E-002    -6.9243228928428380E-009
  -9.0299999999999991E-002     8.4956255363977107E-009
  -8.9200000000000002E-002     3.3730099602280461E-008
  -8.8099999999999984E-002     1.6916493095209262E-008
  -8.6999999999999994E-002    -7.4245413372864277E-008
  -8.5899999999999990E-002    -2.0728290905935864E-007
  -8.4799999999999986E-002    -3.0275694484771520E-007
  -8.3699999999999997E-002    -3.0540289230884810E-007
  -8.2599999999999993E-002    -2.3788570047145186E-007
  -8.1499999999999989E-002    -1.7671966645593784E-007
  -8.0399999999999999E-002    -1.6881537590052176E-007
  -7.9299999999999995E-002    -1.7465107760017418E-007
  -7.8199999999999992E-002    -1.0367254787979618E-007
  -7.7100000000000002E-002     8.7884714616848214E-008
  -7.5999999999999984E-002     3.3927202025552106E-007
  -7.4899999999999994E-002     5.3726620308225392E-007
  -7.3799999999999991E-002     6.3450778498008731E-007
  -7.2699999999999987E-002     7.1357641218128265E-007
  -7.1599999999999997E-002     9.2308431476340047E-007
  -7.0499999999999993E-002     1.3432346577246790E-006
  -6.9399999999999989E-002     1.9185783912689658E-006
  -6.8300000000000000E-002     2.5338240448036231E-006
  -6.7199999999999996E-002     3.1602578474121401E-006
  -6.6099999999999992E-002     3.9195238059619442E-006
  -6.5000000000000002E-002     4.9905952437256929E-006
  -6.3899999999999985E-002     6.4507885326747783E-006
  -6.2799999999999995E-002     8.2202441262779757E-006
  -6.1699999999999991E-002     1.0180271601711866E-005
  -6.0599999999999994E-002     1.2353536476439331E-005
  -5.9499999999999990E-002     1.4958996871428099E-005
  -5.8399999999999994E-002     1.8274815374752507E-005
  -5.7299999999999990E-002     2.2442607587436214E-005
  -5.6199999999999986E-002     2.7417549063102342E-005
  -5.5099999999999996E-002     3.3127238566521555E-005
  -5.3999999999999992E-002     3.9685670344624668E-005
  -5.2899999999999989E-002     4.7442044888157398E-005
  -5.1799999999999985E-002     5.6806024076649919E-005
  -5.0699999999999995E-002     6.8021472543478012E-005
  -4.9599999999999991E-002     8.1121572293341160E-005
  -4.8499999999999988E-002     9.6118019428104162E-005
  -4.7399999999999998E-002     1.1323612125124782E-004
  -4.6299999999999994E-002     1.3295517419464886E-004
  -4.5199999999999990E-002     1.5581010666210204E-004
  -4.4099999999999986E-002     1.8215668387711048E-004
  -4.2999999999999997E-002     2.1214330627117306E-004
  -4.1899999999999993E-002     2.4591962574049830E-004
  -4.0799999999999989E-002     2.8386380290612578E-004
  -3.9699999999999985E-002     3.2658420968800783E-004
  -3.8599999999999995E-002     3.7468125810846686E-004
  -3.7499999999999992E-002     4.2850291356444359E-004
  -3.6399999999999988E-002     4.8813695320859551E-004
  -3.5299999999999984E-002     5.5364024592563510E-004
  -3.4199999999999994E-002     6.2525819521397352E-004
  -3.3099999999999991E-002     7.0339505327865481E-004
  -3.1999999999999987E-002     7.8834983287379146E-004
  -3.0899999999999997E-002     8.8007148588076234E-004
  -2.9799999999999993E-002     9.7816099878400564E-004
  -2.8699999999999989E-002     1.0820885654538870E-003
  -2.7599999999999986E-002     1.1913672788068652E-003
  -2.6499999999999996E-002     1.3054736191406846E-003
  -2.5399999999999992E-002     1.4235653216019273E-003
  -2.4299999999999988E-002     1.5442617004737258E-003
  -2.3199999999999985E-002     1.6656744992360473E-003
  -2.2099999999999995E-002     1.7856138292700052E-003
  -2.0999999999999991E-002     1.9017085433006287E-003
  -1.9899999999999987E-002     2.0112793426960707E-003
  -1.8799999999999983E-002     2.1110642701387405E-003
  -1.7699999999999994E-002     2.1970598027110100E-003
  -1.6599999999999990E-002     2.2646137513220310E-003
  -1.5499999999999986E-002     2.3086450528353453E-003
  -1.4399999999999996E-002     2.3237315472215414E-003
  -1.3299999999999992E-002     2.3039605002850294E-003
  -1.2199999999999989E-002     2.2426990326493979E-003
  -1.1099999999999985E-002     2.1325370762497187E-003
  -9.9999999999999950E-003     1.9654813222587109E-003
  -8.8999999999999913E-003     1.7332249553874135E-003
  -7.7999999999999875E-003     1.4272471889853477E-003
  -6.6999999999999837E-003     1.0387012735009193E-003
  -5.5999999999999939E-003     5.5829877965152264E-004
  -4.4999999999999901E-003    -2.3574903025291860E-005
  -3.3999999999999864E-003    -7.1650336030870676E-004
  -2.2999999999999826E-003    -1.5296754427254200E-003
  -1.1999999999999927E-003    -2.4717440828680992E-003
  -9.9999999999988987E-005    -3.5508801229298115E-003
   1.0000000000000148E-003    -4.7747716307640076E-003
   2.1000000000000185E-003    -6.1503504402935505E-003
   3.2000000000000084E-003    -7.6833064667880535E-003
   4.3000000000000121E-003    -9.3776620924472809E-003
   5.4000000000000159E-003    -1.1235607787966728E-002
   6.5000000000000058E-003    -1.3257537968456745E-002
   7.6000000000000234E-003    -1.5441991388797760E-002
   8.7000000000000133E-003    -1.7785329371690750E-002
   9.8000000000000032E-003    -2.0281251519918442E-002
   1.0900000000000021E-002    -2.2920452058315277E-002
   1.2000000000000011E-002    -2.5690576061606407E-002
   1.3100000000000001E-002    -2.8576388955116272E-002
   1.4200000000000018E-002    -3.1559828668832779E-002
   1.5300000000000008E-002    -3.4619845449924469E-002
   1.6400000000000026E-002    -3.7732172757387161E-002
   1.7500000000000016E-002    -4.0869280695915222E-002
   1.8600000000000005E-002    -4.4000681489706039E-002
   1.9700000000000023E-002    -4.7093380242586136E-002
   2.0800000000000013E-002    -5.0112236291170120E-002
   2.1900000000000003E-002    -5.3020093590021133E-002
   2.3000000000000020E-002    -5.5777925997972488E-002
   2.4100000000000010E-002    -5.8345265686511993E-002
   2.5200000000000000E-002    -6.0680866241455078E-002
   2.6300000000000018E-002    -6.2743462622165680E-002
   2.7400000000000008E-002    -6.4492404460906982E-002
   2.8500000000000025E-002    -6.5888047218322754E-002
   2.9600000000000015E-002    -6.6892296075820923E-002
   3.0700000000000005E-002    -6.7469246685504913E-002
   3.1800000000000023E-002    -6.7586109042167664E-002
   3.2900000000000013E-002    -6.7213989794254303E-002
   3.4000000000000002E-002    -6.6328458487987518E-002
   3.5100000000000020E-002    -6.4909867942333221E-002
   3.6200000000000010E-002    -6.2943771481513977E-002
   3.7300000000000028E-002    -6.0421571135520935E-002
   3.8400000000000017E-002    -5.7341124862432480E-002
   3.9500000000000007E-002    -5.3707115352153778E-002
   4.0600000000000025E-002    -4.9531087279319763E-002
   4.1700000000000015E-002    -4.4831309467554092E-002
   4.2800000000000005E-002    -3.9632715284824371E-002
   4.3900000000000022E-002    -3.3967006951570511E-002
   4.5000000000000012E-002    -2.7872668579220772E-002
   4.6100000000000002E-002    -2.1394625306129456E-002
   4.7200000000000020E-002    -1.4583515934646130E-002
   4.8300000000000010E-002    -7.4948482215404510E-003
   4.9400000000000027E-002    -1.8834618094842881E-004
   5.0500000000000017E-002     7.2725173085927963E-003
   5.1600000000000007E-002     1.4821090735495090E-002
   5.2700000000000025E-002     2.2388489916920662E-002
   5.3800000000000014E-002     2.9904849827289581E-002
   5.4900000000000004E-002     3.7300545722246170E-002
   5.6000000000000022E-002     4.4507101178169250E-002
   5.7100000000000012E-002     5.1457803696393967E-002
   5.8200000000000002E-002     5.8088399469852448E-002
   5.9300000000000019E-002     6.4338088035583496E-002
   6.0400000000000009E-002     7.0150673389434814E-002
   6.1500000000000027E-002     7.5475603342056274E-002
   6.2600000000000017E-002     8.0268450081348419E-002
   6.3700000000000007E-002     8.4491185843944550E-002
   6.4800000000000024E-002     8.8112361729145050E-002
   6.5900000000000014E-002     9.1107659041881561E-002
   6.7000000000000004E-002     9.3460410833358765E-002
   6.8100000000000022E-002     9.5161914825439453E-002
   6.9200000000000012E-002     9.6211187541484833E-002
   7.0300000000000029E-002     9.6614465117454529E-002
   7.1400000000000019E-002     9.6384756267070770E-002
   7.2500000000000009E-002     9.5541730523109436E-002
   7.3600000000000027E-002     9.4111584126949310E-002
   7.4700000000000016E-002     9.2126525938510895E-002
   7.5800000000000006E-002     8.9623950421810150E-002
   7.6900000000000024E-002     8.6645387113094330E-002
   7.8000000000000014E-002     8.3235695958137512E-002
   7.9100000000000004E-002     7.9442597925662994E-002
   8.0200000000000021E-002     7.5316235423088074E-002
   8.1300000000000011E-002     7.0908434689044952E-002
   8.2400000000000029E-002     6.6271603107452393E-002
   8.3500000000000019E-002     6.1457704752683640E-002
   8.4600000000000009E-002     5.6517552584409714E-002
   8.5700000000000026E-002     5.1500555127859116E-002
   8.6800000000000016E-002     4.6454418450593948E-002
   8.7900000000000006E-002     4.1424565017223358E-002
   8.9000000000000024E-002     3.6453332751989365E-002
   9.0100000000000013E-002     3.1579323112964630E-002
   9.1200000000000003E-002     2.6837205514311790E-002
   9.2300000000000021E-002     2.2257916629314423E-002
   9.3400000000000011E-002     1.7868772149085999E-002
   9.4500000000000028E-002     1.3693256303668022E-002
   9.5600000000000018E-002     9.7506158053874969E-003
   9.6700000000000008E-002     6.0557150281965733E-003
   9.7800000000000026E-002     2.6193547528237104E-003
   9.8900000000000016E-002    -5.5115367285907269E-004
  0.10000000000000001         -3.4515913575887680E-003
  0.10110000000000002         -6.0808216221630573E-003
  0.10220000000000001         -8.4409220144152641E-003
  0.10330000000000003         -1.0537019930779934E-002
  0.10440000000000002         -1.2376710772514343E-002
  0.10550000000000001         -1.3969331048429012E-002
  0.10660000000000003         -1.5325544402003288E-002
  0.10770000000000002         -1.6457350924611092E-002
  0.10880000000000001         -1.7378192394971848E-002
  0.10990000000000003         -1.8102699890732765E-002
  0.11100000000000002         -1.8646091222763062E-002
  0.11210000000000001         -1.9023517146706581E-002
  0.11320000000000002         -1.9249834120273590E-002
  0.11430000000000001         -1.9339803606271744E-002
  0.11540000000000003         -1.9308287650346756E-002
  0.11650000000000002         -1.9170053303241730E-002
  0.11760000000000001         -1.8939223140478134E-002
  0.11870000000000003         -1.8628809601068497E-002
  0.11980000000000002         -1.8250705674290657E-002
  0.12090000000000001         -1.7816079780459404E-002
  0.12200000000000003         -1.7335688695311546E-002
  0.12310000000000001         -1.6819719225168228E-002
  0.12420000000000003         -1.6277326270937920E-002
  0.12530000000000002         -1.5716306865215302E-002
  0.12640000000000001         -1.5143274329602718E-002
  0.12750000000000003         -1.4564149081707001E-002
  0.12860000000000002         -1.3984487392008305E-002
  0.12970000000000001         -1.3409334234893322E-002
  0.13080000000000003         -1.2842814438045025E-002
  0.13190000000000002         -1.2287935242056847E-002
  0.13300000000000001         -1.1746867559850216E-002
  0.13410000000000000         -1.1221462860703468E-002
  0.13520000000000004         -1.0713519528508186E-002
  0.13630000000000003         -1.0224575176835060E-002
  0.13740000000000002         -9.7555238753557205E-003
  0.13850000000000001         -9.3065109103918076E-003
  0.13960000000000000         -8.8772792369127274E-003
  0.14070000000000005         -8.4676370024681091E-003
  0.14180000000000004         -8.0775897949934006E-003
  0.14290000000000003         -7.7070584520697594E-003
  0.14400000000000002         -7.3555139824748039E-003
  0.14510000000000001         -7.0219743065536022E-003
  0.14620000000000000         -6.7054051905870438E-003
  0.14730000000000004         -6.4051188528537750E-003
  0.14840000000000003         -6.1207693070173264E-003
  0.14950000000000002         -5.8519565500319004E-003
  0.15060000000000001         -5.5978829041123390E-003
  0.15170000000000000         -5.3574442863464355E-003
  0.15280000000000005         -5.1296781748533249E-003
  0.15390000000000004         -4.9141012132167816E-003
  0.15500000000000003         -4.7105643898248672E-003
  0.15610000000000002         -4.5187706127762794E-003
  0.15720000000000001         -4.3379589915275574E-003
  0.15830000000000000         -4.1670990176498890E-003
  0.15940000000000004         -4.0053995326161385E-003
  0.16050000000000003         -3.8526018615812063E-003
  0.16160000000000002         -3.7087432574480772E-003
  0.16270000000000001         -3.5736220888793468E-003
  0.16380000000000000         -3.4465217031538486E-003
  0.16490000000000005         -3.3264830708503723E-003
  0.16600000000000004         -3.2128479797393084E-003
  0.16710000000000003         -3.1055109575390816E-003
  0.16820000000000002         -3.0046135652810335E-003
  0.16930000000000001         -2.9099932871758938E-003
  0.17040000000000000         -2.8209576848894358E-003
  0.17150000000000004         -2.7366129215806723E-003
  0.17260000000000003         -2.6564111467450857E-003
  0.17370000000000002         -2.5803514290601015E-003
  0.17480000000000001         -2.5086353998631239E-003
  0.17590000000000000         -2.4411405902355909E-003
  0.17700000000000005         -2.3772574495524168E-003
  0.17810000000000004         -2.3162553552538157E-003
  0.17920000000000003         -2.2577836643904448E-003
  0.18030000000000002         -2.2019923198968172E-003
  0.18140000000000001         -2.1491495426744223E-003
  0.18250000000000000         -2.0991631317883730E-003
  0.18360000000000004         -2.0514980424195528E-003
  0.18470000000000003         -2.0055642817169428E-003
  0.18580000000000002         -1.9611536990851164E-003
  0.18690000000000001         -1.9184675766155124E-003
  0.18800000000000000         -1.8777134828269482E-003
  0.18910000000000005         -1.8387060845270753E-003
  0.19020000000000004         -1.8008949700742960E-003
  0.19130000000000003         -1.7637837445363402E-003
  0.19240000000000002         -1.7272955738008022E-003
  0.19350000000000001         -1.6916973982006311E-003
  0.19460000000000005         -1.6571669839322567E-003
  0.19570000000000004         -1.6234633512794971E-003
  0.19680000000000003         -1.5900519210845232E-003
  0.19790000000000002         -1.5565487556159496E-003
  0.19900000000000001         -1.5230141580104828E-003
  0.20010000000000000         -1.4897864311933517E-003
  0.20120000000000005         -1.4570325147360563E-003
  0.20230000000000004         -1.4244945487007499E-003
  0.20340000000000003         -1.3917088508605957E-003
  0.20450000000000002         -1.3584695989266038E-003
  0.20560000000000000         -1.3250564225018024E-003
  0.20670000000000005         -1.2919825967401266E-003
  0.20780000000000004         -1.2595255393534899E-003
  0.20890000000000003         -1.2275238987058401E-003
