 -0.12000000000000000          0.0000000000000000     
 -0.11889999999999999          0.0000000000000000     
 -0.11780000000000000          0.0000000000000000     
 -0.11670000000000000          0.0000000000000000     
 -0.11559999999999999          0.0000000000000000     
 -0.11449999999999999          0.0000000000000000     
 -0.11340000000000000          2.2009761499247257E-015
 -0.11230000000000000         -1.8630481601888960E-009
 -0.11119999999999999          1.3848103108671239E-008
 -0.11009999999999999          1.7766248561201792E-007
 -0.10900000000000000          6.5706979057722492E-007
 -0.10790000000000000          7.9447005418842309E-007
 -0.10679999999999999         -2.1306127564457711E-006
 -0.10569999999999999         -1.0857412235054653E-005
 -0.10460000000000000         -1.8919310605269857E-005
 -0.10349999999999999         -1.9576905287976842E-006
 -0.10239999999999999          6.5257911046501249E-005
 -0.10130000000000000          1.5178759349510074E-004
 -0.10020000000000000          1.2511410750448704E-004
  -9.9099999999999994E-002    -1.6562541713938117E-004
  -9.7999999999999990E-002    -6.3679774757474661E-004
  -9.6899999999999986E-002    -7.7544851228594780E-004
  -9.5799999999999996E-002     6.6811138822231442E-005
  -9.4699999999999993E-002     1.7800602363422513E-003
  -9.3599999999999989E-002     2.7844072319567204E-003
  -9.2499999999999999E-002     8.5945631144568324E-004
  -9.1399999999999995E-002    -4.1549485176801682E-003
  -9.0299999999999991E-002    -8.0466400831937790E-003
  -8.9200000000000002E-002    -4.1581131517887115E-003
  -8.8099999999999984E-002     9.3412538990378380E-003
  -8.6999999999999994E-002     2.2511659190058708E-002
  -8.5899999999999990E-002     1.7049157992005348E-002
  -8.4799999999999986E-002    -1.6130311414599419E-002
  -8.3699999999999997E-002    -5.7525295764207840E-002
  -8.2599999999999993E-002    -6.1909109354019165E-002
  -8.1499999999999989E-002     4.2402110993862152E-003
  -8.0399999999999999E-002    0.11382694542407990     
  -7.9299999999999995E-002    0.17112599313259125     
  -7.8199999999999992E-002     7.9748719930648804E-002
  -7.7100000000000002E-002   -0.14843125641345978     
  -7.5999999999999984E-002   -0.34624728560447693     
  -7.4899999999999994E-002   -0.29256838560104370     
  -7.3799999999999991E-002     7.6295971870422363E-002
  -7.2699999999999987E-002    0.52554017305374146     
  -7.1599999999999997E-002    0.63705760240554810     
  -7.0499999999999993E-002    0.16804252564907074     
  -6.9399999999999989E-002   -0.62898063659667969     
  -6.8300000000000000E-002    -1.0782457590103149     
  -6.7199999999999996E-002   -0.61675363779067993     
  -6.6099999999999992E-002    0.59690046310424805     
  -6.5000000000000002E-002     1.6045374870300293     
  -6.3899999999999985E-002     1.3548822402954102     
  -6.2799999999999995E-002   -0.27972382307052612     
  -6.1699999999999991E-002    -2.1120676994323730     
  -6.0599999999999994E-002    -2.4444975852966309     
  -5.9499999999999990E-002   -0.58804994821548462     
  -5.8399999999999994E-002     2.2282459735870361     
  -5.7299999999999990E-002     3.6015710830688477     
  -5.6199999999999986E-002     1.9984400272369385     
  -5.5099999999999996E-002    -1.6214979887008667     
  -5.3999999999999992E-002    -4.2654976844787598     
  -5.2899999999999989E-002    -3.3972070217132568     
  -5.1799999999999985E-002    0.59821480512619019     
  -5.0699999999999995E-002     4.3638820648193359     
  -4.9599999999999991E-002     4.3618640899658203     
  -4.8499999999999988E-002    0.22159215807914734     
  -4.7399999999999998E-002    -4.5212807655334473     
  -4.6299999999999994E-002    -5.3594264984130859     
  -4.5199999999999990E-002    -1.0383540391921997     
  -4.4099999999999986E-002     4.8754143714904785     
  -4.2999999999999997E-002     6.9070529937744141     
  -4.1899999999999993E-002     2.7216823101043701     
  -4.0799999999999989E-002    -4.3693637847900391     
  -3.9699999999999985E-002    -8.0993623733520508     
  -3.8599999999999995E-002    -4.9571981430053711     
  -3.7499999999999992E-002     2.3839046955108643     
  -3.6399999999999988E-002     7.3783411979675293     
  -3.5299999999999984E-002     5.7137889862060547     
  -3.4199999999999994E-002   -0.58915412425994873     
  -3.3099999999999991E-002    -5.1978192329406738     
  -3.1999999999999987E-002    -3.7967751026153564     
  -3.0899999999999997E-002     1.5359605550765991     
  -2.9799999999999993E-002     4.4842133522033691     
  -2.8699999999999989E-002     1.2373083829879761     
  -2.7599999999999986E-002    -5.0682144165039062     
  -2.6499999999999996E-002    -7.1705946922302246     
  -2.5399999999999992E-002    -1.3791661262512207     
  -2.4299999999999988E-002     7.7220678329467773     
  -2.3199999999999985E-002     11.034509658813477     
  -2.2099999999999995E-002     4.1328482627868652     
  -2.0999999999999991E-002    -7.3411555290222168     
  -1.9899999999999987E-002    -12.324247360229492     
  -1.8799999999999983E-002    -5.2905740737915039     
  -1.7699999999999994E-002     7.3426189422607422     
  -1.6599999999999990E-002     12.657610893249512     
  -1.5499999999999986E-002     4.1409535408020020     
  -1.4399999999999996E-002    -10.683718681335449     
  -1.3299999999999992E-002    -16.500690460205078     
  -1.2199999999999989E-002    -5.3433279991149902     
  -1.1099999999999985E-002     14.159491539001465     
  -9.9999999999999950E-003     23.642530441284180     
  -8.8999999999999913E-003     12.563785552978516     
  -7.7999999999999875E-003    -10.448627471923828     
  -6.6999999999999837E-003    -24.524686813354492     
  -5.5999999999999939E-003    -16.217376708984375     
  -4.4999999999999901E-003     6.9531316757202148     
  -3.3999999999999864E-003     23.009609222412109     
  -2.2999999999999826E-003     16.629568099975586     
  -1.1999999999999927E-003    -5.5918607711791992     
  -9.9999999999988987E-005    -21.230674743652344     
   1.0000000000000148E-003    -14.067683219909668     
   2.1000000000000185E-003     9.6489572525024414     
   3.2000000000000084E-003     27.252819061279297     
   4.3000000000000121E-003     22.302888870239258     
   5.4000000000000159E-003     1.0452319383621216     
   6.5000000000000058E-003    -14.241662025451660     
   7.6000000000000234E-003    -8.3762769699096680     
   8.7000000000000133E-003     11.041170120239258     
   9.8000000000000032E-003     22.042123794555664     
   1.0900000000000021E-002     12.281926155090332     
   1.2000000000000011E-002    -6.8528151512145996     
   1.3100000000000001E-002    -11.746006965637207     
   1.4200000000000018E-002     7.5570745468139648     
   1.5300000000000008E-002     34.923660278320312     
   1.6400000000000026E-002     43.860881805419922     
   1.7500000000000016E-002     26.274108886718750     
   1.8600000000000005E-002     3.2370684146881104     
   1.9700000000000023E-002     4.1085338592529297     
   2.0800000000000013E-002     34.057033538818359     
   2.1900000000000003E-002     64.836654663085938     
   2.3000000000000020E-002     62.037670135498047     
   2.4100000000000010E-002     22.966110229492188     
   2.5200000000000000E-002    -14.968937873840332     
   2.6300000000000018E-002    -8.3233098983764648     
   2.7400000000000008E-002     47.971591949462891     
   2.8500000000000025E-002     110.98577880859375     
   2.9600000000000015E-002     129.10412597656250     
   3.0700000000000005E-002     92.848838806152344     
   3.1800000000000023E-002     45.828594207763672     
   3.2900000000000013E-002     41.425792694091797     
   3.4000000000000002E-002     87.337188720703125     
   3.5100000000000020E-002     135.50617980957031     
   3.6200000000000010E-002     131.61636352539062     
   3.7300000000000028E-002     75.126899719238281     
   3.8400000000000017E-002     26.024087905883789     
   3.9500000000000007E-002     48.420215606689453     
   4.0600000000000025E-002     141.69418334960938     
   4.1700000000000015E-002     233.03746032714844     
   4.2800000000000005E-002     244.16836547851562     
   4.3900000000000022E-002     168.49665832519531     
   4.5000000000000012E-002     80.082283020019531     
   4.6100000000000002E-002     62.762138366699219     
   4.7200000000000020E-002     127.33869171142578     
   4.8300000000000010E-002     202.12937927246094     
   4.9400000000000027E-002     203.94210815429688     
   5.0500000000000017E-002     129.68269348144531     
   5.1600000000000007E-002     60.082218170166016     
   5.2700000000000025E-002     78.893325805664062     
   5.3800000000000014E-002     179.51806640625000     
   5.4900000000000004E-002     261.43594360351562     
   5.6000000000000022E-002     229.27214050292969     
   5.7100000000000012E-002     91.325508117675781     
   5.8200000000000002E-002    -34.916446685791016     
   5.9300000000000019E-002    -39.585327148437500     
   6.0400000000000009E-002     70.610733032226562     
   6.1500000000000027E-002     172.13444519042969     
   6.2600000000000017E-002     147.77998352050781     
   6.3700000000000007E-002     1.4484624862670898     
   6.4800000000000024E-002    -139.00434875488281     
   6.5900000000000014E-002    -146.50735473632812     
   6.7000000000000004E-002    -27.041049957275391     
   6.8100000000000022E-002     79.451408386230469     
   6.9200000000000012E-002     40.653350830078125     
   7.0300000000000029E-002    -136.88668823242188     
   7.1400000000000019E-002    -309.70919799804688     
   7.2500000000000009E-002    -329.19323730468750     
   7.3600000000000027E-002    -212.26478576660156     
   7.4700000000000016E-002    -105.90013885498047     
   7.5800000000000006E-002    -148.75822448730469     
   7.6900000000000024E-002    -320.10653686523438     
   7.8000000000000014E-002    -462.95791625976562     
   7.9100000000000004E-002    -435.93707275390625     
   8.0200000000000021E-002    -265.14300537109375     
   8.1300000000000011E-002    -136.31393432617188     
   8.2400000000000029E-002    -208.52229309082031     
   8.3500000000000019E-002    -441.64538574218750     
   8.4600000000000009E-002    -636.16290283203125     
   8.5700000000000026E-002    -634.17401123046875     
   8.6800000000000016E-002    -453.81671142578125     
   8.7900000000000006E-002    -301.46170043945312     
   8.9000000000000024E-002    -329.77972412109375     
   9.0100000000000013E-002    -513.32305908203125     
   9.1200000000000003E-002    -659.54827880859375     
   9.2300000000000021E-002    -613.26641845703125     
   9.3400000000000011E-002    -420.65991210937500     
   9.4500000000000028E-002    -296.65277099609375     
   9.5600000000000018E-002    -395.10397338867188     
   9.6700000000000008E-002    -647.90594482421875     
   9.7800000000000026E-002    -826.02227783203125     
   9.8900000000000016E-002    -764.84356689453125     
  0.10000000000000001         -528.70849609375000     
  0.10110000000000002         -362.11526489257812     
  0.10220000000000001         -435.80651855468750     
  0.10330000000000003         -684.10913085937500     
  0.10440000000000002         -869.69171142578125     
  0.10550000000000001         -822.87817382812500     
  0.10660000000000003         -609.26245117187500     
  0.10770000000000002         -461.39898681640625     
  0.10880000000000001         -540.19860839843750     
  0.10990000000000003         -762.66485595703125     
  0.11100000000000002         -891.82586669921875     
  0.11210000000000001         -772.48706054687500     
  0.11320000000000002         -507.29849243164062     
  0.11430000000000001         -339.55065917968750     
  0.11540000000000003         -413.69635009765625     
  0.11650000000000002         -619.86578369140625     
  0.11760000000000001         -694.01922607421875     
  0.11870000000000003         -489.23306274414062     
  0.11980000000000002         -133.05194091796875     
  0.12090000000000001          116.38895416259766     
  0.12200000000000003          110.73014068603516     
  0.12310000000000001         -36.248764038085938     
  0.12420000000000003         -39.820049285888672     
  0.12530000000000002          245.21162414550781     
  0.12640000000000001          660.71203613281250     
  0.12750000000000003          997.76263427734375     
  0.12860000000000002          1088.7305908203125     
  0.12970000000000001          1044.2778320312500     
  0.13080000000000003          1121.4814453125000     
  0.13190000000000002          1404.7275390625000     
  0.13300000000000001          1795.8466796875000     
  0.13410000000000000          2080.9504394531250     
  0.13520000000000004          2149.1657714843750     
  0.13630000000000003          2081.0441894531250     
  0.13740000000000002          2177.8000488281250     
  0.13850000000000001          2465.1049804687500     
  0.13960000000000000          2856.5705566406250     
  0.14070000000000005          3010.5620117187500     
  0.14180000000000004          2931.5642089843750     
  0.14290000000000003          2720.8640136718750     
  0.14400000000000002          2582.1716308593750     
  0.14510000000000001          2593.5603027343750     
  0.14620000000000000          2729.4548339843750     
  0.14730000000000004          2756.8352050781250     
  0.14840000000000003          2557.1323242187500     
  0.14950000000000002          2253.7897949218750     
  0.15060000000000001          1975.2507324218750     
  0.15170000000000000          1781.7966308593750     
  0.15280000000000005          1628.0678710937500     
  0.15390000000000004          1351.1057128906250     
  0.15500000000000003          933.72796630859375     
  0.15610000000000002          457.59585571289062     
  0.15720000000000001          73.484642028808594     
  0.15830000000000000         -199.19744873046875     
  0.15940000000000004         -445.22219848632812     
  0.16050000000000003         -785.05505371093750     
  0.16160000000000002         -1241.2441406250000     
  0.16270000000000001         -1706.8791503906250     
  0.16380000000000000         -2081.1230468750000     
  0.16490000000000005         -2344.8881835937500     
  0.16600000000000004         -2548.9228515625000     
  0.16710000000000003         -2780.5791015625000     
  0.16820000000000002         -3027.6384277343750     
  0.16930000000000001         -3223.9951171875000     
  0.17040000000000000         -3342.9980468750000     
  0.17150000000000004         -3389.3962402343750     
  0.17260000000000003         -3475.3779296875000     
  0.17370000000000002         -3503.3571777343750     
  0.17480000000000001         -3519.6840820312500     
  0.17590000000000000         -3425.9160156250000     
  0.17700000000000005         -3197.5070800781250     
  0.17810000000000004         -2960.9365234375000     
  0.17920000000000003         -2837.9926757812500     
  0.18030000000000002         -2742.5666503906250     
  0.18140000000000001         -2541.7226562500000     
  0.18250000000000000         -2152.7290039062500     
  0.18360000000000004         -1705.2667236328125     
  0.18470000000000003         -1327.7495117187500     
  0.18580000000000002         -1035.2475585937500     
  0.18690000000000001         -890.52551269531250     
  0.18800000000000000         -643.51635742187500     
  0.18910000000000005         -296.47323608398438     
  0.19020000000000004          138.47261047363281     
  0.19130000000000003          453.59765625000000     
  0.19240000000000002          650.65093994140625     
  0.19350000000000001          822.75103759765625     
  0.19460000000000005          1088.7664794921875     
  0.19570000000000004          1394.4178466796875     
  0.19680000000000003          1636.6527099609375     
  0.19790000000000002          1724.1467285156250     
  0.19900000000000001          1729.7487792968750     
  0.20010000000000000          1763.9846191406250     
  0.20120000000000005          1886.6750488281250     
  0.20230000000000004          2002.0900878906250     
  0.20340000000000003          1986.8996582031250     
  0.20450000000000002          1819.6152343750000     
  0.20560000000000000          1619.6451416015625     
  0.20670000000000005          1537.4168701171875     
  0.20780000000000004          1635.8695068359375     
  0.20890000000000003          1764.7857666015625     
