 -0.12000000000000000          0.0000000000000000     
 -0.11889999999999999          0.0000000000000000     
 -0.11780000000000000          0.0000000000000000     
 -0.11670000000000000         -7.0642532622178233E-012
 -0.11559999999999999          3.5321266744769986E-011
 -0.11449999999999999          7.0642533489539971E-011
 -0.11340000000000000         -1.9426696362678797E-010
 -0.11230000000000000         -1.9779909654626948E-010
 -0.11119999999999999          5.6514026097742587E-011
 -0.11009999999999999          7.3468231498452496E-010
 -0.10900000000000000          6.4991129145042237E-010
 -0.10790000000000000          2.2605610439097035E-010
 -0.10679999999999999         -1.9214769775288687E-009
 -0.10569999999999999         -1.1302805358326395E-009
 -0.10460000000000000         -2.0910189135747714E-009
 -0.10349999999999999         -5.0862625222691804E-010
 -0.10239999999999999          3.1082714180286075E-009
 -0.10130000000000000          7.3185661975117000E-009
 -0.10020000000000000          6.8947110243300358E-009
  -9.9099999999999994E-002    -2.4866171344228860E-009
  -9.7999999999999990E-002    -6.7816832149958373E-009
  -9.6899999999999986E-002    -1.1302804914237186E-008
  -9.5799999999999996E-002    -1.3111254304476461E-008
  -9.4699999999999993E-002    -5.5383746477843943E-009
  -9.3599999999999989E-002     1.9440825838046294E-008
  -9.2499999999999999E-002     2.1701385577443943E-008
  -9.1399999999999995E-002     1.9440825838046294E-008
  -9.0299999999999991E-002    -4.5211221433305582E-009
  -8.9200000000000002E-002    -1.9101740633686859E-008
  -8.8099999999999984E-002    -3.9559818532097779E-008
  -8.6999999999999994E-002     1.8084488351277628E-009
  -8.5899999999999990E-002    -3.6168976702555256E-009
  -8.4799999999999986E-002     1.2659142178961247E-008
  -8.3699999999999997E-002     3.6168976702555256E-009
  -8.2599999999999993E-002    -7.0529502238514397E-008
  -8.1499999999999989E-002    -3.9785874150766176E-008
  -8.0399999999999999E-002     1.7180264322291805E-008
  -7.9299999999999995E-002     1.7632376625442703E-007
  -7.8199999999999992E-002     1.5462237001884205E-007
  -7.7100000000000002E-002     1.5733505165371753E-007
  -7.5999999999999984E-002     4.7019668159009598E-008
  -7.4899999999999994E-002    -3.3275458122261625E-007
  -7.3799999999999991E-002    -6.1487259017667384E-007
  -7.2699999999999987E-002    -6.2391484334511915E-007
  -7.1599999999999997E-002    -5.0636568715844987E-008
  -7.0499999999999993E-002     1.2261283472980722E-006
  -6.9399999999999989E-002     1.4033563502380275E-006
  -6.8300000000000000E-002     2.7488422915666888E-007
  -6.7199999999999996E-002    -1.1429397090978455E-006
  -6.6099999999999992E-002    -1.9386570784263313E-006
  -6.5000000000000002E-002    -5.6423601790811517E-007
  -6.3899999999999985E-002     9.2592580358541454E-007
  -6.2799999999999995E-002     1.8229163742944365E-006
  -6.1699999999999991E-002    -1.4467590858657786E-007
  -6.0599999999999994E-002     6.9444433847820619E-007
  -5.9499999999999990E-002     4.0509254972675990E-007
  -5.8399999999999994E-002     5.7870362724088409E-008
  -5.7299999999999990E-002    -2.7777773539128248E-006
  -5.6199999999999986E-002    -8.1018509945351980E-007
  -5.5099999999999996E-002    -2.3148145089635364E-007
  -5.3999999999999992E-002     1.9675924249895616E-006
  -5.2899999999999989E-002    -5.7870363434631145E-007
  -5.1799999999999985E-002    -2.3148145373852458E-006
  -5.0699999999999995E-002    -9.2592580358541454E-007
  -4.9599999999999991E-002     7.1759250204195268E-006
  -4.8499999999999988E-002     1.6898145986488089E-005
  -4.7399999999999998E-002     3.7037032143416582E-006
  -4.6299999999999994E-002    -2.0833331291214563E-005
  -4.5199999999999990E-002    -3.7962956412229687E-005
  -4.4099999999999986E-002    -2.4537033823435195E-005
  -4.2999999999999997E-002     1.0185183782596141E-005
  -4.1899999999999993E-002     4.0740735130384564E-005
  -4.0799999999999989E-002     4.4444437662605196E-005
  -3.9699999999999985E-002     1.4814812857366633E-005
  -3.8599999999999995E-002    -2.4074070097412914E-005
  -3.7499999999999992E-002    -3.8888883864274248E-005
  -3.6399999999999988E-002     0.0000000000000000     
  -3.5299999999999984E-002     5.1851846365025267E-005
  -3.4199999999999994E-002     5.1851846365025267E-005
  -3.3099999999999991E-002     7.4074064286833163E-006
  -3.1999999999999987E-002    -5.7407400163356215E-005
  -3.0899999999999997E-002    -7.9629622632637620E-005
  -2.9799999999999993E-002    -8.8888875325210392E-005
  -2.8699999999999989E-002    -8.5185172792989761E-005
  -2.7599999999999986E-002     3.7037032143416582E-006
  -2.6499999999999996E-002     9.2592577857431024E-005
  -2.5399999999999992E-002     1.4814813039265573E-004
  -2.4299999999999988E-002     9.9999990197829902E-005
  -2.3199999999999985E-002    -3.3333330065943301E-005
  -2.2099999999999995E-002    -1.1111109779449180E-004
  -2.0999999999999991E-002    -1.2592591519933194E-004
  -1.9899999999999987E-002    -7.7777767728548497E-005
  -1.8799999999999983E-002    -5.9259251429466531E-005
  -1.7699999999999994E-002     4.2222216143272817E-004
  -1.6599999999999990E-002     5.1111105130985379E-004
  -1.5499999999999986E-002    -5.1851846365025267E-005
  -1.4399999999999996E-002    -7.4074062285944819E-004
  -1.3299999999999992E-002    -7.1851845132187009E-004
  -1.2199999999999989E-002    -5.5555548897245899E-005
  -1.1099999999999985E-002     7.9999992158263922E-004
  -9.9999999999999950E-003     1.0407406371086836E-003
  -8.8999999999999913E-003     3.0370365129783750E-004
  -7.7999999999999875E-003    -8.5925916209816933E-004
  -6.6999999999999837E-003    -1.5870368806645274E-003
  -5.5999999999999939E-003    -6.8703695433214307E-004
  -4.4999999999999901E-003     9.4328692648559809E-004
  -3.3999999999999864E-003     1.9629627931863070E-003
  -2.2999999999999826E-003     1.7259257147088647E-003
  -1.1999999999999927E-003    -5.1481474656611681E-004
  -9.9999999999988987E-005    -2.1407403983175755E-003
   1.0000000000000148E-003    -1.6740738647058606E-003
   2.1000000000000185E-003    -2.5185183039866388E-004
   3.2000000000000084E-003     7.8518508234992623E-004
   4.3000000000000121E-003     1.3037035241723061E-003
   5.4000000000000159E-003     3.7037031142972410E-004
   6.5000000000000058E-003    -5.9259251429466531E-005
   7.6000000000000234E-003    -2.0740738546010107E-004
   8.7000000000000133E-003     3.5555550130084157E-004
   9.8000000000000032E-003     7.7037024311721325E-004
   1.0900000000000021E-002    -4.7407401143573225E-004
   1.2000000000000011E-002    -2.6666664052754641E-003
   1.3100000000000001E-002    -2.0740737672895193E-003
   1.4200000000000018E-002    -2.6666664052754641E-004
   1.5300000000000008E-002     1.5999998431652784E-003
   1.6400000000000026E-002     4.8592584207653999E-003
   1.7500000000000016E-002     2.1925922483205795E-003
   1.8600000000000005E-002    -1.8370368052273989E-003
   1.9700000000000023E-002    -2.7259255293756723E-003
   2.0800000000000013E-002    -2.4888885673135519E-003
   2.1900000000000003E-002     1.7777775065042078E-004
   2.3000000000000020E-002     2.4296292103827000E-003
   2.4100000000000010E-002     1.0074073215946555E-003
   2.5200000000000000E-002    -1.0074073215946555E-003
   2.6300000000000018E-002    -1.3037035241723061E-003
   2.7400000000000008E-002     1.0666665621101856E-003
   2.8500000000000025E-002     1.9851848483085632E-003
   2.9600000000000015E-002     2.9629626078531146E-004
   3.0700000000000005E-002    -1.3629627646878362E-003
   3.1800000000000023E-002    -2.1037033293396235E-003
   3.2900000000000013E-002     4.4444437662605196E-005
   3.4000000000000002E-002     1.2296295026317239E-003
   3.5100000000000020E-002     2.0666664931923151E-003
   3.6200000000000010E-002    -1.5175923472270370E-003
   3.7300000000000028E-002    -2.8370367363095284E-003
   3.8400000000000017E-002    -1.3777775457128882E-003
   3.9500000000000007E-002     1.1555553646758199E-003
   4.0600000000000025E-002     3.3777772914618254E-003
   4.1700000000000015E-002     2.3999996483325958E-003
   4.2800000000000005E-002    -1.7185183241963387E-003
   4.3900000000000022E-002    -3.3185181673616171E-003
   4.5000000000000012E-002    -9.4814802287146449E-004
   4.6100000000000002E-002     2.7851848863065243E-003
   4.7200000000000020E-002     5.0962958484888077E-003
   4.8300000000000010E-002     1.3629627646878362E-003
   4.9400000000000027E-002    -4.7407401725649834E-003
   5.0500000000000017E-002    -5.5111101828515530E-003
   5.1600000000000007E-002    -1.1851850431412458E-003
   5.2700000000000025E-002     3.4370366483926773E-003
   5.3800000000000014E-002     3.3185181673616171E-003
   5.4900000000000004E-002    -2.2518516052514315E-003
   5.6000000000000022E-002    -3.9111105725169182E-003
   5.7100000000000012E-002    -2.9629624914377928E-003
   5.8200000000000002E-002     9.4814802287146449E-004
   5.9300000000000019E-002     7.2888880968093872E-003
   6.0400000000000009E-002     8.3555541932582855E-003
   6.1500000000000027E-002     1.3629627646878362E-003
   6.2600000000000017E-002    -6.4592584967613220E-003
   6.3700000000000007E-002    -1.0903702117502689E-002
   6.4800000000000024E-002    -3.5555551294237375E-003
   6.5900000000000014E-002     6.9333324208855629E-003
   6.7000000000000004E-002     9.5407394692301750E-003
   6.8100000000000022E-002     1.3037035241723061E-003
   6.9200000000000012E-002    -7.5555546209216118E-003
   7.0300000000000029E-002    -8.7999990209937096E-003
   7.1400000000000019E-002    -1.4074072241783142E-003
   7.2500000000000009E-002     9.1407392174005508E-003
   7.3600000000000027E-002     1.3255554251372814E-002
   7.4700000000000016E-002     5.6111104786396027E-003
   7.5800000000000006E-002    -5.9111104346811771E-003
   7.6900000000000024E-002    -1.4755553565919399E-002
   7.8000000000000014E-002    -1.2355553917586803E-002
   7.9100000000000004E-002     1.0962961241602898E-003
   8.0200000000000021E-002     9.8370360210537910E-003
   8.1300000000000011E-002     7.8222211450338364E-003
   8.2400000000000029E-002     8.2962954184040427E-004
   8.3500000000000019E-002    -4.4444440864026546E-003
   8.4600000000000009E-002    -1.1259258026257157E-003
   8.5700000000000026E-002     3.9703696966171265E-003
   8.6800000000000016E-002     7.8222211450338364E-003
   8.7900000000000006E-002     2.4888885673135519E-003
   8.9000000000000024E-002    -8.2370359450578690E-003
   9.0100000000000013E-002    -1.5407405793666840E-002
   9.1200000000000003E-002    -1.2444443069398403E-002
   9.2300000000000021E-002    -4.1481477092020214E-004
   9.3400000000000011E-002     1.1792590841650963E-002
   9.4500000000000028E-002     1.5999997034668922E-002
   9.5600000000000018E-002     1.0192591696977615E-002
   9.6700000000000008E-002     1.5703701646998525E-003
   9.7800000000000026E-002    -3.1703698914498091E-003
   9.8900000000000016E-002    -3.9999992586672306E-003
  0.10000000000000001         -2.4296292103827000E-003
  0.10110000000000002         -3.4962957724928856E-003
  0.10220000000000001         -6.0444436967372894E-003
  0.10330000000000003         -8.7999990209937096E-003
  0.10440000000000002         -6.2814806587994099E-003
  0.10550000000000001          1.9703700672835112E-003
  0.10660000000000003          1.0503701865673065E-002
  0.10770000000000002          1.1777776293456554E-002
  0.10880000000000001          5.1259254105389118E-003
  0.10990000000000003         -2.5037033483386040E-003
  0.11100000000000002         -4.9111102707684040E-003
  0.11210000000000001         -1.2074072146788239E-003
  0.11320000000000002          1.9407405052334070E-003
  0.11430000000000001          1.1111109779449180E-004
  0.11540000000000003         -5.9925918467342854E-003
  0.11650000000000002         -8.5425917059183121E-003
  0.11760000000000001         -3.6074069794267416E-003
  0.11870000000000003          5.3370362147688866E-003
  0.11980000000000002          1.1101850308477879E-002
  0.12090000000000001          6.7759249359369278E-003
  0.12200000000000003         -2.5425923522561789E-003
  0.12310000000000001         -8.6703691631555557E-003
  0.12420000000000003         -5.1333326846361160E-003
  0.12530000000000002          5.0444439984858036E-003
  0.12640000000000001          1.1007405817508698E-002
  0.12750000000000003          5.6333327665925026E-003
  0.12860000000000002         -7.5777769088745117E-003
  0.12970000000000001         -1.5940738841891289E-002
  0.13080000000000003         -1.0670368559658527E-002
  0.13190000000000002          3.2481476664543152E-003
  0.13300000000000001          1.3751850463449955E-002
  0.13410000000000000          1.1470369063317776E-002
  0.13520000000000004          3.7777773104608059E-004
  0.13630000000000003         -9.1111101210117340E-003
  0.13740000000000002         -7.6962951570749283E-003
  0.13850000000000001          1.9962959922850132E-003
  0.13960000000000000          1.0477776639163494E-002
  0.14070000000000005          8.5407393053174019E-003
  0.14180000000000004         -2.2555552423000336E-003
  0.14290000000000003         -1.2407406233251095E-002
  0.14400000000000002         -1.2644442729651928E-002
  0.14510000000000001         -3.0481477733701468E-003
  0.14620000000000000          7.5962953269481659E-003
  0.14730000000000004          1.0768516920506954E-002
  0.14840000000000003          5.1574069075286388E-003
  0.14950000000000002         -2.3592589423060417E-003
  0.15060000000000001         -5.2481475286185741E-003
  0.15170000000000000         -2.0222219172865152E-003
  0.15280000000000005          3.1296291854232550E-003
  0.15390000000000004          5.1259254105389118E-003
  0.15500000000000003          2.2222220432013273E-003
  0.15610000000000002         -2.2777775302529335E-003
  0.15720000000000001         -5.2277771756052971E-003
  0.15830000000000000         -4.8481472767889500E-003
  0.15940000000000004         -2.5629627052694559E-003
  0.16050000000000003          3.0555551347788423E-005
  0.16160000000000002          2.6249997317790985E-003
  0.16270000000000001          4.3759252876043320E-003
  0.16380000000000000          3.9259255863726139E-003
  0.16490000000000005          1.1305554071441293E-003
  0.16600000000000004         -1.9435182912275195E-003
  0.16710000000000003         -2.1388886962085962E-003
  0.16820000000000002          1.3074072776362300E-003
  0.16930000000000001          5.0537032075226307E-003
  0.17040000000000000          3.6925920285284519E-003
  0.17150000000000004         -3.9777774363756180E-003
  0.17260000000000003         -1.2320831418037415E-002
  0.17370000000000002         -1.3181942515075207E-002
  0.17480000000000001         -3.6300921346992254E-003
  0.17590000000000000          9.9217575043439865E-003
  0.17700000000000005          1.6325924545526505E-002
  0.17810000000000004          1.0095831938087940E-002
  0.17920000000000003         -2.8356476686894894E-003
  0.18030000000000002         -1.0513424873352051E-002
  0.18140000000000001         -6.2388880178332329E-003
  0.18250000000000000          4.5995363034307957E-003
  0.18360000000000004          9.6476841717958450E-003
  0.18470000000000003          2.5893514975905418E-003
  0.18580000000000002         -1.0312035679817200E-002
  0.18690000000000001         -1.5819441527128220E-002
  0.18800000000000000         -7.2337952442467213E-003
  0.18910000000000005          8.4916651248931885E-003
  0.19020000000000004          1.7368284985423088E-002
  0.19130000000000003          1.1728239245712757E-002
  0.19240000000000002         -2.1638886537402868E-003
  0.19350000000000001         -1.0748147033154964E-002
  0.19460000000000005         -7.0370361208915710E-003
  0.19570000000000004          3.1347218900918961E-003
  0.19680000000000003          7.3266192339360714E-003
  0.19790000000000002          3.6759255453944206E-004
  0.19900000000000001         -9.9770817905664444E-003
  0.20010000000000000         -1.1625461280345917E-002
  0.20120000000000005         -1.1229164665564895E-003
  0.20230000000000004          1.1940276250243187E-002
  0.20340000000000003          1.4426618814468384E-002
  0.20450000000000002          3.7229161243885756E-003
  0.20560000000000000         -9.4585632905364037E-003
  0.20670000000000005         -1.1823724955320358E-002
  0.20780000000000004         -1.3459488982334733E-003
  0.20890000000000003          1.0388540104031563E-002
