 -0.12000000000000000          0.0000000000000000     
 -0.11889999999999999          0.0000000000000000     
 -0.11780000000000000          0.0000000000000000     
 -0.11670000000000000          0.0000000000000000     
 -0.11559999999999999          0.0000000000000000     
 -0.11449999999999999          0.0000000000000000     
 -0.11340000000000000          0.0000000000000000     
 -0.11230000000000000          0.0000000000000000     
 -0.11119999999999999          0.0000000000000000     
 -0.11009999999999999          0.0000000000000000     
 -0.10900000000000000         -7.6749247767865660E-024
 -0.10790000000000000          3.0043467808198251E-023
 -0.10679999999999999          2.8137487091141832E-022
 -0.10569999999999999         -5.1824814178427442E-022
 -0.10460000000000000         -6.9293590382227694E-021
 -0.10349999999999999         -9.4431811146105941E-021
 -0.10239999999999999          5.8643906567484555E-020
 -0.10130000000000000          2.3266067730248382E-019
 -0.10020000000000000          3.6535556298921416E-020
  -9.9099999999999994E-002    -1.7054736457338961E-018
  -9.7999999999999990E-002    -4.1380293305297059E-018
  -9.6899999999999986E-002     1.5510276516368232E-018
  -9.5799999999999996E-002     2.7925657184459617E-017
  -9.4699999999999993E-002     5.3689722683473212E-017
  -9.3599999999999989E-002    -2.4712202779756463E-017
  -9.2499999999999999E-002    -3.1269335625613728E-016
  -9.1399999999999995E-002    -5.6489341936438535E-016
  -9.0299999999999991E-002     1.3429658409624669E-016
  -8.9200000000000002E-002     2.5939759322864348E-015
  -8.8099999999999984E-002     4.9224375287947476E-015
  -8.6999999999999994E-002     5.6357289499961590E-016
  -8.5899999999999990E-002    -1.6424936158886648E-014
  -8.4799999999999986E-002    -3.5400230923715581E-014
  -8.3699999999999997E-002    -1.7146925020269585E-014
  -8.2599999999999993E-002     7.8628022062016134E-014
  -8.1499999999999989E-002     2.0868201643705481E-013
  -8.0399999999999999E-002     1.7527815407859110E-013
  -7.9299999999999995E-002    -2.6238123544512770E-013
  -7.8199999999999992E-002    -9.9909121774321985E-013
  -7.7100000000000002E-002    -1.1980719151136188E-012
  -7.5999999999999984E-002     3.7579135766727112E-013
  -7.4899999999999994E-002     3.8071507751924472E-012
  -7.3799999999999991E-002     6.1788490990366540E-012
  -7.2699999999999987E-002     2.1166696867469526E-012
  -7.1599999999999997E-002    -1.0931120592028165E-011
  -7.0499999999999993E-002    -2.4977625870392650E-011
  -6.9399999999999989E-002    -2.0337407105608385E-011
  -6.8300000000000000E-002     1.9315616814341574E-011
  -6.7199999999999996E-002     7.9256795570969985E-011
  -6.6099999999999992E-002     9.9533305208954204E-011
  -6.5000000000000002E-002     9.0407447153606491E-012
  -6.3899999999999985E-002    -1.8947164670546357E-010
  -6.2799999999999995E-002    -3.4846051044645776E-010
  -6.1699999999999991E-002    -2.2723453674267091E-010
  -6.0599999999999994E-002     2.8738450508214441E-010
  -5.9499999999999990E-002     9.2389618178145838E-010
  -5.8399999999999994E-002     1.0264118444069936E-009
  -5.7299999999999990E-002     2.7148047698766220E-011
  -5.6199999999999986E-002    -1.8068408991211982E-009
  -5.5099999999999996E-002    -3.0393711991649752E-009
  -5.3999999999999992E-002    -1.8486970843056838E-009
  -5.2899999999999989E-002     2.1808499450770569E-009
  -5.1799999999999985E-002     6.6245839924761185E-009
  -5.0699999999999995E-002     7.0127672557873666E-009
  -4.9599999999999991E-002     4.0114339627805862E-010
  -4.8499999999999988E-002    -1.0524245475096450E-008
  -4.7399999999999998E-002    -1.7000752805529373E-008
  -4.6299999999999994E-002    -1.0004217010362026E-008
  -4.5199999999999990E-002     1.0452154697304650E-008
  -4.4099999999999986E-002     3.0608013901201048E-008
  -4.2999999999999997E-002     3.0230800973640726E-008
  -4.1899999999999993E-002     2.4241691987114677E-010
  -4.0799999999999989E-002    -4.2743586448068527E-008
  -3.9699999999999985E-002    -6.1632363212993369E-008
  -3.8599999999999995E-002    -2.7521306122935130E-008
  -3.7499999999999992E-002     4.7296669691831994E-008
  -3.6399999999999988E-002     1.0419093854352468E-007
  -3.5299999999999984E-002     7.8273913572957099E-008
  -3.4199999999999994E-002    -3.8193295637256597E-008
  -3.3099999999999991E-002    -1.6412259640219418E-007
  -3.1999999999999987E-002    -1.7493374571131426E-007
  -3.0899999999999997E-002    -1.0239624259611446E-008
  -2.9799999999999993E-002     2.3947083604980435E-007
  -2.8699999999999989E-002     3.6170627026876900E-007
  -2.7599999999999986E-002     1.8196749351773178E-007
  -2.6499999999999996E-002    -2.5272427706113376E-007
  -2.5399999999999992E-002    -6.3551283346896525E-007
  -2.4299999999999988E-002    -5.9359268789194175E-007
  -2.3199999999999985E-002    -9.0747418468595242E-009
  -2.2099999999999995E-002     7.9109582884484553E-007
  -2.0999999999999991E-002     1.1900212939508492E-006
  -1.9899999999999987E-002     7.3830540259223199E-007
  -1.8799999999999983E-002    -4.1500751990497520E-007
  -1.7699999999999994E-002    -1.5066279956954531E-006
  -1.6599999999999990E-002    -1.6680156704751425E-006
  -1.5499999999999986E-002    -6.2704714309802512E-007
  -1.4399999999999996E-002     9.6872292942862259E-007
  -1.3299999999999992E-002     1.9553349375200924E-006
  -1.2199999999999989E-002     1.5541942275376641E-006
  -1.1099999999999985E-002     6.6011843102842249E-008
  -9.9999999999999950E-003    -1.2822745247831335E-006
  -8.8999999999999913E-003    -1.3279870927362936E-006
  -7.7999999999999875E-003    -4.1661838423578956E-008
  -6.6999999999999837E-003     1.2807120128854876E-006
  -5.5999999999999939E-003     1.0322069101675879E-006
  -4.4999999999999901E-003    -1.1816800906672142E-006
  -3.3999999999999864E-003    -3.7979250464559300E-006
  -2.2999999999999826E-003    -4.1771904761844780E-006
  -1.1999999999999927E-003    -7.0365808824135456E-007
  -9.9999999999988987E-005     5.4345882745110430E-006
   1.0000000000000148E-003     1.0357424798712600E-005
   2.1000000000000185E-003     9.8169221018906683E-006
   3.2000000000000084E-003     2.3472107386623975E-006
   4.3000000000000121E-003    -9.0129396994598210E-006
   5.4000000000000159E-003    -1.7930778994923458E-005
   6.5000000000000058E-003    -1.8465338143869303E-005
   7.6000000000000234E-003    -8.9421273514744826E-006
   8.7000000000000133E-003     6.6050852183252573E-006
   9.8000000000000032E-003     2.0536970623652451E-005
   1.0900000000000021E-002     2.5985564207076095E-005
   1.2000000000000011E-002     2.0645928088924848E-005
   1.3100000000000001E-002     7.5194693636149168E-006
   1.4200000000000018E-002    -7.6650476330542006E-006
   1.5300000000000008E-002    -2.0189108909107745E-005
   1.6400000000000026E-002    -2.8260104954824783E-005
   1.7500000000000016E-002    -3.1715615477878600E-005
   1.8600000000000005E-002    -2.9062352041364647E-005
   1.9700000000000023E-002    -1.6312878869939595E-005
   2.0800000000000013E-002     9.9430362752173096E-006
   2.1900000000000003E-002     4.6524666686309502E-005
   2.3000000000000020E-002     7.9707970144227147E-005
   2.4100000000000010E-002     8.8601809693500400E-005
   2.5200000000000000E-002     5.6621407566126436E-005
   2.6300000000000018E-002    -1.4911001926520839E-005
   2.7400000000000008E-002    -1.0084301902679726E-004
   2.8500000000000025E-002    -1.6068502736743540E-004
   2.9600000000000015E-002    -1.5913731476757675E-004
   3.0700000000000005E-002    -8.7082371464930475E-005
   3.1800000000000023E-002     3.0608291126554832E-005
   3.2900000000000013E-002     1.4645802730228752E-004
   3.4000000000000002E-002     2.1432836365420371E-004
   3.5100000000000020E-002     2.1083753381390125E-004
   3.6200000000000010E-002     1.4154119708109647E-004
   3.7300000000000028E-002     3.0823979614069685E-005
   3.8400000000000017E-002    -9.3677677796222270E-005
   3.9500000000000007E-002    -2.0885081903543323E-004
   4.0600000000000025E-002    -2.9192250804044306E-004
   4.1700000000000015E-002    -3.1321102869696915E-004
   4.2800000000000005E-002    -2.4003216822165996E-004
   4.3900000000000022E-002    -5.7602112065069377E-005
   4.5000000000000012E-002     2.0395251340232790E-004
   4.6100000000000002E-002     4.5902666170150042E-004
   4.7200000000000020E-002     5.9027347015216947E-004
   4.8300000000000010E-002     5.0371338147670031E-004
   4.9400000000000027E-002     1.8830655608326197E-004
   5.0500000000000017E-002    -2.5696001830510795E-004
   5.1600000000000007E-002    -6.5215816721320152E-004
   5.2700000000000025E-002    -8.1459066132083535E-004
   5.3800000000000014E-002    -6.4868887420743704E-004
   5.4900000000000004E-002    -1.9967573462054133E-004
   5.6000000000000022E-002     3.5981103428639472E-004
   5.7100000000000012E-002     8.0488214734941721E-004
   5.8200000000000002E-002     9.5615367172285914E-004
   5.9300000000000019E-002     7.4982474325224757E-004
   6.0400000000000009E-002     2.4857732933014631E-004
   6.1500000000000027E-002    -4.0144441300071776E-004
   6.2600000000000017E-002    -1.0318311396986246E-003
   6.3700000000000007E-002    -1.4918542001396418E-003
   6.4800000000000024E-002    -1.6528314445167780E-003
   6.5900000000000014E-002    -1.3970278669148684E-003
   6.7000000000000004E-002    -6.2717084074392915E-004
   6.8100000000000022E-002     6.8499369081109762E-004
   6.9200000000000012E-002     2.4327044375240803E-003
   7.0300000000000029E-002     4.3438277207314968E-003
   7.1400000000000019E-002     6.0329032130539417E-003
   7.2500000000000009E-002     7.1371071971952915E-003
   7.3600000000000027E-002     7.4813384562730789E-003
   7.4700000000000016E-002     7.1886437945067883E-003
   7.5800000000000006E-002     6.6754296422004700E-003
   7.6900000000000024E-002     6.5292958170175552E-003
   7.8000000000000014E-002     7.3251826688647270E-003
   7.9100000000000004E-002     9.4593586400151253E-003
   8.0200000000000021E-002     1.3061949051916599E-002
   8.1300000000000011E-002     1.8005359917879105E-002
   8.2400000000000029E-002     2.3992812260985374E-002
   8.3500000000000019E-002     3.0693158507347107E-002
   8.4600000000000009E-002     3.7886761128902435E-002
   8.5700000000000026E-002     4.5590881258249283E-002
   8.6800000000000016E-002     5.4129045456647873E-002
   8.7900000000000006E-002     6.4111106097698212E-002
   8.9000000000000024E-002     7.6324000954627991E-002
   9.0100000000000013E-002     9.1573096811771393E-002
   9.1200000000000003E-002    0.11052859574556351     
   9.2300000000000021E-002    0.13365581631660461     
   9.3400000000000011E-002    0.16125379502773285     
   9.4500000000000028E-002    0.19358907639980316     
   9.5600000000000018E-002    0.23104442656040192     
   9.6700000000000008E-002    0.27423468232154846     
   9.7800000000000026E-002    0.32401874661445618     
   9.8900000000000016E-002    0.38143059611320496     
  0.10000000000000001         0.44759505987167358     
  0.10110000000000002         0.52366048097610474     
  0.10220000000000001         0.61079543828964233     
  0.10330000000000003         0.71025711297988892     
  0.10440000000000002         0.82342445850372314     
  0.10550000000000001         0.95177489519119263     
  0.10660000000000003          1.0968155860900879     
  0.10770000000000002          1.2599308490753174     
  0.10880000000000001          1.4423626661300659     
  0.10990000000000003          1.6451905965805054     
  0.11100000000000002          1.8694926500320435     
  0.11210000000000001          2.1164927482604980     
  0.11320000000000002          2.3873729705810547     
  0.11430000000000001          2.6833074092864990     
  0.11540000000000003          3.0051581859588623     
  0.11650000000000002          3.3531138896942139     
  0.11760000000000001          3.7268474102020264     
  0.11870000000000003          4.1257271766662598     
  0.11980000000000002          4.5483360290527344     
  0.12090000000000001          4.9933590888977051     
  0.12200000000000003          5.4586968421936035     
  0.12310000000000001          5.9413743019104004     
  0.12420000000000003          6.4374427795410156     
  0.12530000000000002          6.9421172142028809     
  0.12640000000000001          7.4499053955078125     
  0.12750000000000003          7.9545359611511230     
  0.12860000000000002          8.4488878250122070     
  0.12970000000000001          8.9251918792724609     
  0.13080000000000003          9.3741226196289062     
  0.13190000000000002          9.7852315902709961     
  0.13300000000000001          10.146912574768066     
  0.13410000000000000          10.446102142333984     
  0.13520000000000004          10.670804977416992     
  0.13630000000000003          10.807322502136230     
  0.13740000000000002          10.842754364013672     
  0.13850000000000001          10.764616966247559     
  0.13960000000000000          10.559711456298828     
  0.14070000000000005          10.215459823608398     
  0.14180000000000004          9.7200241088867188     
  0.14290000000000003          9.0617065429687500     
  0.14400000000000002          8.2297639846801758     
  0.14510000000000001          7.2150564193725586     
  0.14620000000000000          6.0121293067932129     
  0.14730000000000004          4.6157698631286621     
  0.14840000000000003          3.0247113704681396     
  0.14950000000000002          1.2410513162612915     
  0.15060000000000001        -0.72999674081802368     
  0.15170000000000000         -2.8793897628784180     
  0.15280000000000005         -5.1948242187500000     
  0.15390000000000004         -7.6603264808654785     
  0.15500000000000003         -10.255997657775879     
  0.15610000000000002         -12.960587501525879     
  0.15720000000000001         -15.746286392211914     
  0.15830000000000000         -18.582204818725586     
  0.15940000000000004         -21.434696197509766     
  0.16050000000000003         -24.266143798828125     
  0.16160000000000002         -27.035224914550781     
  0.16270000000000001         -29.701160430908203     
  0.16380000000000000         -32.220310211181641     
  0.16490000000000005         -34.551128387451172     
  0.16600000000000004         -36.649436950683594     
  0.16710000000000003         -38.474994659423828     
  0.16820000000000002         -39.987617492675781     
  0.16930000000000001         -41.148777008056641     
  0.17040000000000000         -41.926040649414062     
  0.17150000000000004         -42.287986755371094     
  0.17260000000000003         -42.208999633789062     
  0.17370000000000002         -41.671436309814453     
  0.17480000000000001         -40.660072326660156     
  0.17590000000000000         -39.172176361083984     
  0.17700000000000005         -37.208637237548828     
  0.17810000000000004         -34.778968811035156     
  0.17920000000000003         -31.899808883666992     
  0.18030000000000002         -28.594394683837891     
  0.18140000000000001         -24.896406173706055     
  0.18250000000000000         -20.843219757080078     
  0.18360000000000004         -16.480401992797852     
  0.18470000000000003         -11.858674049377441     
  0.18580000000000002         -7.0330638885498047     
  0.18690000000000001         -2.0657262802124023     
  0.18800000000000000          2.9820008277893066     
  0.18910000000000005          8.0433197021484375     
  0.19020000000000004          13.051634788513184     
  0.19130000000000003          17.939033508300781     
  0.19240000000000002          22.642663955688477     
  0.19350000000000001          27.099302291870117     
  0.19460000000000005          31.252273559570312     
  0.19570000000000004          35.049003601074219     
  0.19680000000000003          38.441986083984375     
  0.19790000000000002          41.389358520507812     
  0.19900000000000001          43.857082366943359     
  0.20010000000000000          45.818508148193359     
  0.20120000000000005          47.256526947021484     
  0.20230000000000004          48.162021636962891     
  0.20340000000000003          48.529125213623047     
  0.20450000000000002          48.369781494140625     
  0.20560000000000000          47.696960449218750     
  0.20670000000000005          46.537376403808594     
  0.20780000000000004          44.918422698974609     
  0.20890000000000003          42.874027252197266     
