 -0.12000000000000000          0.0000000000000000     
 -0.11889999999999999          0.0000000000000000     
 -0.11780000000000000          0.0000000000000000     
 -0.11670000000000000          0.0000000000000000     
 -0.11559999999999999          0.0000000000000000     
 -0.11449999999999999          0.0000000000000000     
 -0.11340000000000000         -3.7892096144825915E-013
 -0.11230000000000000         -8.3257055763508170E-012
 -0.11119999999999999         -4.7754879911598991E-011
 -0.11009999999999999         -1.1592217463718413E-010
 -0.10900000000000000         -2.1305382805203443E-011
 -0.10790000000000000          6.9737138286285472E-010
 -0.10679999999999999          2.1609161127145171E-009
 -0.10569999999999999          2.6386006712897370E-009
 -0.10460000000000000         -2.0820567492307873E-009
 -0.10349999999999999         -1.4853644536572119E-008
 -0.10239999999999999         -2.8147987052307144E-008
 -0.10130000000000000         -1.8456843164926795E-008
 -0.10020000000000000          3.9927552819563061E-008
  -9.9099999999999994E-002     1.3626170414227090E-007
  -9.7999999999999990E-002     1.8734813522769400E-007
  -9.6899999999999986E-002     6.1187293454167957E-008
  -9.5799999999999996E-002    -3.0422035024457728E-007
  -9.4699999999999993E-002    -7.4366295166328200E-007
  -9.3599999999999989E-002    -8.3001771145063685E-007
  -9.2499999999999999E-002    -1.1640465658047106E-007
  -9.1399999999999995E-002     1.3875711601940566E-006
  -9.0299999999999991E-002     2.8466740786825540E-006
  -8.9200000000000002E-002     2.8125889457442099E-006
  -8.8099999999999984E-002     2.0646582754579867E-007
  -8.6999999999999994E-002    -4.4049256757716648E-006
  -8.5899999999999990E-002    -8.2974729593843222E-006
  -8.4799999999999986E-002    -7.7662643889198080E-006
  -8.3699999999999997E-002    -8.1572301269261516E-007
  -8.2599999999999993E-002     1.0297763765265699E-005
  -8.1499999999999989E-002     1.8974846170749515E-005
  -8.0399999999999999E-002     1.7754802684066817E-005
  -7.9299999999999995E-002     3.8143045912875095E-006
  -7.8199999999999992E-002    -1.7363556253258139E-005
  -7.7100000000000002E-002    -3.3676413295324892E-005
  -7.5999999999999984E-002    -3.3485113817732781E-005
  -7.4899999999999994E-002    -1.3702376236324199E-005
  -7.3799999999999991E-002     1.7122762073995546E-005
  -7.2699999999999987E-002     4.3485131755005568E-005
  -7.1599999999999997E-002     5.2097839216003194E-005
  -7.0499999999999993E-002     3.8663307350361720E-005
  -6.9399999999999989E-002     7.8320354077732190E-006
  -6.8300000000000000E-002    -3.1402749300468713E-005
  -6.7199999999999996E-002    -6.8530192947946489E-005
  -6.6099999999999992E-002    -8.9760593255050480E-005
  -6.5000000000000002E-002    -7.7132419392000884E-005
  -6.3899999999999985E-002    -1.7161170035251416E-005
  -6.2799999999999995E-002     8.1036028859671205E-005
  -6.1699999999999991E-002     1.7330258560832590E-004
  -6.0599999999999994E-002     1.9395725394133478E-004
  -5.9499999999999990E-002     9.8848409834317863E-005
  -5.8399999999999994E-002    -8.8351996964775026E-005
  -5.7299999999999990E-002    -2.6878464268520474E-004
  -5.6199999999999986E-002    -3.2144211581908166E-004
  -5.5099999999999996E-002    -1.8904944590758532E-004
  -5.3999999999999992E-002     6.8070636189077049E-005
  -5.2899999999999989E-002     3.0109795625321567E-004
  -5.1799999999999985E-002     3.7229506415314972E-004
  -5.0699999999999995E-002     2.5028863456100225E-004
  -4.9599999999999991E-002     2.4026938262977637E-005
  -4.8499999999999988E-002    -1.7410196596756577E-004
  -4.7399999999999998E-002    -2.6549983886070549E-004
  -4.6299999999999994E-002    -2.5652311160229146E-004
  -4.5199999999999990E-002    -1.8583748897071928E-004
  -4.4099999999999986E-002    -5.9160181990591809E-005
  -4.2999999999999997E-002     1.4163926243782043E-004
  -4.1899999999999993E-002     3.7275953218340874E-004
  -4.0799999999999989E-002     4.6943110646679997E-004
  -3.9699999999999985E-002     2.2541772341355681E-004
  -3.8599999999999995E-002    -4.0209136204794049E-004
  -3.7499999999999992E-002    -1.1305127991363406E-003
  -3.6399999999999988E-002    -1.4255685964599252E-003
  -3.5299999999999984E-002    -8.3550682757049799E-004
  -3.4199999999999994E-002     6.2802858883515000E-004
  -3.3099999999999991E-002     2.3703007027506828E-003
  -3.1999999999999987E-002     3.4981304779648781E-003
  -3.0899999999999997E-002     3.3409481402486563E-003
  -2.9799999999999993E-002     1.8407253082841635E-003
  -2.8699999999999989E-002    -4.6741665573790669E-004
  -2.7599999999999986E-002    -2.8514089062809944E-003
  -2.6499999999999996E-002    -4.8500299453735352E-003
  -2.5399999999999992E-002    -6.4912154339253902E-003
  -2.4299999999999988E-002    -8.1661343574523926E-003
  -2.3199999999999985E-002    -1.0319150984287262E-002
  -2.2099999999999995E-002    -1.3189126737415791E-002
  -2.0999999999999991E-002    -1.6725663095712662E-002
  -1.9899999999999987E-002    -2.0660379901528358E-002
  -1.8799999999999983E-002    -2.4673437699675560E-002
  -1.7699999999999994E-002    -2.8626378625631332E-002
  -1.6599999999999990E-002    -3.2815095037221909E-002
  -1.5499999999999986E-002    -3.8092900067567825E-002
  -1.4399999999999996E-002    -4.5670386403799057E-002
  -1.3299999999999992E-002    -5.6571666151285172E-002
  -1.2199999999999989E-002    -7.1060828864574432E-002
  -1.1099999999999985E-002    -8.8554657995700836E-002
  -9.9999999999999950E-003   -0.10827001184225082     
  -8.8999999999999913E-003   -0.13029487431049347     
  -7.7999999999999875E-003   -0.15626105666160583     
  -6.6999999999999837E-003   -0.18898339569568634     
  -5.5999999999999939E-003   -0.23116087913513184     
  -4.4999999999999901E-003   -0.28405043482780457     
  -3.3999999999999864E-003   -0.34716030955314636     
  -2.2999999999999826E-003   -0.41927418112754822     
  -1.1999999999999927E-003   -0.50012409687042236     
  -9.9999999999988987E-005   -0.59153443574905396     
   1.0000000000000148E-003   -0.69734275341033936     
   2.1000000000000185E-003   -0.82227385044097900     
   3.2000000000000084E-003   -0.97067582607269287     
   4.3000000000000121E-003    -1.1457922458648682     
   5.4000000000000159E-003    -1.3498913049697876     
   6.5000000000000058E-003    -1.5846657752990723     
   7.6000000000000234E-003    -1.8516942262649536     
   8.7000000000000133E-003    -2.1530108451843262     
   9.8000000000000032E-003    -2.4918015003204346     
   1.0900000000000021E-002    -2.8729274272918701     
   1.2000000000000011E-002    -3.3028392791748047     
   1.3100000000000001E-002    -3.7885179519653320     
   1.4200000000000018E-002    -4.3357181549072266     
   1.5300000000000008E-002    -4.9480180740356445     
   1.6400000000000026E-002    -5.6267938613891602     
   1.7500000000000016E-002    -6.3725123405456543     
   1.8600000000000005E-002    -7.1863732337951660     
   1.9700000000000023E-002    -8.0706281661987305     
   2.0800000000000013E-002    -9.0280132293701172     
   2.1900000000000003E-002    -10.061072349548340     
   2.3000000000000020E-002    -11.171053886413574     
   2.4100000000000010E-002    -12.357690811157227     
   2.5200000000000000E-002    -13.619094848632812     
   2.6300000000000018E-002    -14.950805664062500     
   2.7400000000000008E-002    -16.344038009643555     
   2.8500000000000025E-002    -17.786083221435547     
   2.9600000000000015E-002    -19.261316299438477     
   3.0700000000000005E-002    -20.754419326782227     
   3.1800000000000023E-002    -22.250663757324219     
   3.2900000000000013E-002    -23.734775543212891     
   3.4000000000000002E-002    -25.188493728637695     
   3.5100000000000020E-002    -26.588285446166992     
   3.6200000000000010E-002    -27.903537750244141     
   3.7300000000000028E-002    -29.098529815673828     
   3.8400000000000017E-002    -30.136440277099609     
   3.9500000000000007E-002    -30.980648040771484     
   4.0600000000000025E-002    -31.592233657836914     
   4.1700000000000015E-002    -31.933818817138672     
   4.2800000000000005E-002    -31.966440200805664     
   4.3900000000000022E-002    -31.652973175048828     
   4.5000000000000012E-002    -30.956352233886719     
   4.6100000000000002E-002    -29.838380813598633     
   4.7200000000000020E-002    -28.259996414184570     
   4.8300000000000010E-002    -26.177848815917969     
   4.9400000000000027E-002    -23.558471679687500     
   5.0500000000000017E-002    -20.373331069946289     
   5.1600000000000007E-002    -16.612264633178711     
   5.2700000000000025E-002    -12.266961097717285     
   5.3800000000000014E-002    -7.3372139930725098     
   5.4900000000000004E-002    -1.8275849819183350     
   5.6000000000000022E-002     4.2518215179443359     
   5.7100000000000012E-002     10.874991416931152     
   5.8200000000000002E-002     18.003686904907227     
   5.9300000000000019E-002     25.584381103515625     
   6.0400000000000009E-002     33.559104919433594     
   6.1500000000000027E-002     41.859252929687500     
   6.2600000000000017E-002     50.397918701171875     
   6.3700000000000007E-002     59.080123901367188     
   6.4800000000000024E-002     67.804672241210938     
   6.5900000000000014E-002     76.456550598144531     
   6.7000000000000004E-002     84.898231506347656     
   6.8100000000000022E-002     93.006332397460938     
   6.9200000000000012E-002     100.64494323730469     
   7.0300000000000029E-002     107.68939208984375     
   7.1400000000000019E-002     114.01277160644531     
   7.2500000000000009E-002     119.48233795166016     
   7.3600000000000027E-002     123.97586059570312     
   7.4700000000000016E-002     127.37905120849609     
   7.5800000000000006E-002     129.57705688476562     
   7.6900000000000024E-002     130.47810363769531     
   7.8000000000000014E-002     129.99963378906250     
   7.9100000000000004E-002     128.08674621582031     
   8.0200000000000021E-002     124.70013427734375     
   8.1300000000000011E-002     119.82860565185547     
   8.2400000000000029E-002     113.47657775878906     
   8.3500000000000019E-002     105.68058013916016     
   8.4600000000000009E-002     96.491897583007812     
   8.5700000000000026E-002     85.989379882812500     
   8.6800000000000016E-002     74.271575927734375     
   8.7900000000000006E-002     61.461978912353516     
   8.9000000000000024E-002     47.701091766357422     
   9.0100000000000013E-002     33.145595550537109     
   9.1200000000000003E-002     17.972145080566406     
   9.2300000000000021E-002     2.3695404529571533     
   9.3400000000000011E-002    -13.455760955810547     
   9.4500000000000028E-002    -29.288173675537109     
   9.5600000000000018E-002    -44.910511016845703     
   9.6700000000000008E-002    -60.112762451171875     
   9.7800000000000026E-002    -74.696052551269531     
   9.8900000000000016E-002    -88.473289489746094     
  0.10000000000000001         -101.26313018798828     
  0.10110000000000002         -112.89127349853516     
  0.10220000000000001         -123.19699096679688     
  0.10330000000000003         -132.05139160156250     
  0.10440000000000002         -139.34954833984375     
  0.10550000000000001         -145.01672363281250     
  0.10660000000000003         -149.00331115722656     
  0.10770000000000002         -151.26840209960938     
  0.10880000000000001         -151.79348754882812     
  0.10990000000000003         -150.60700988769531     
  0.11100000000000002         -147.76615905761719     
  0.11210000000000001         -143.35795593261719     
  0.11320000000000002         -137.47700500488281     
  0.11430000000000001         -130.24078369140625     
  0.11540000000000003         -121.78141784667969     
  0.11650000000000002         -112.24530029296875     
  0.11760000000000001         -101.79956054687500     
  0.11870000000000003         -90.619438171386719     
  0.11980000000000002         -78.874984741210938     
  0.12090000000000001         -66.738777160644531     
  0.12200000000000003         -54.387073516845703     
  0.12310000000000001         -41.996971130371094     
  0.12420000000000003         -29.742780685424805     
  0.12530000000000002         -17.788915634155273     
  0.12640000000000001         -6.2826361656188965     
  0.12750000000000003          4.6560292243957520     
  0.12860000000000002          14.911227226257324     
  0.12970000000000001          24.378545761108398     
  0.13080000000000003          32.956470489501953     
  0.13190000000000002          40.575344085693359     
  0.13300000000000001          47.191905975341797     
  0.13410000000000000          52.791103363037109     
  0.13520000000000004          57.367458343505859     
  0.13630000000000003          60.912006378173828     
  0.13740000000000002          63.420066833496094     
  0.13850000000000001          64.903427124023438     
  0.13960000000000000          65.409294128417969     
  0.14070000000000005          65.010856628417969     
  0.14180000000000004          63.786857604980469     
  0.14290000000000003          61.803539276123047     
  0.14400000000000002          59.118289947509766     
  0.14510000000000001          55.797637939453125     
  0.14620000000000000          51.931747436523438     
  0.14730000000000004          47.631092071533203     
  0.14840000000000003          42.999732971191406     
  0.14950000000000002          38.116195678710938     
  0.15060000000000001          33.039718627929688     
  0.15170000000000000          27.830778121948242     
  0.15280000000000005          22.569904327392578     
  0.15390000000000004          17.352619171142578     
  0.15500000000000003          12.264924049377441     
  0.15610000000000002          7.3681249618530273     
  0.15720000000000001          2.6992070674896240     
  0.15830000000000000         -1.7069479227066040     
  0.15940000000000004         -5.8033175468444824     
  0.16050000000000003         -9.5380249023437500     
  0.16160000000000002         -12.872653961181641     
  0.16270000000000001         -15.794634819030762     
  0.16380000000000000         -18.311012268066406     
  0.16490000000000005         -20.422439575195312     
  0.16600000000000004         -22.113727569580078     
  0.16710000000000003         -23.365983963012695     
  0.16820000000000002         -24.178838729858398     
  0.16930000000000001         -24.578430175781250     
  0.17040000000000000         -24.602563858032227     
  0.17150000000000004         -24.277141571044922     
  0.17260000000000003         -23.607482910156250     
  0.17370000000000002         -22.599540710449219     
  0.17480000000000001         -21.282670974731445     
  0.17590000000000000         -19.714626312255859     
  0.17700000000000005         -17.956657409667969     
  0.17810000000000004         -16.046634674072266     
  0.17920000000000003         -13.991042137145996     
  0.18030000000000002         -11.791094779968262     
  0.18140000000000001         -9.4779100418090820     
  0.18250000000000000         -7.1153917312622070     
  0.18360000000000004         -4.7701773643493652     
  0.18470000000000003         -2.4774143695831299     
  0.18580000000000002        -0.23395551741123199     
  0.18690000000000001          1.9704294204711914     
  0.18800000000000000          4.1163773536682129     
  0.18910000000000005          6.1496286392211914     
  0.19020000000000004          8.0122585296630859     
  0.19130000000000003          9.6806354522705078     
  0.19240000000000002          11.171598434448242     
  0.19350000000000001          12.512102127075195     
  0.19460000000000005          13.704183578491211     
  0.19570000000000004          14.718272209167480     
  0.19680000000000003          15.523190498352051     
  0.19790000000000002          16.116819381713867     
  0.19900000000000001          16.528909683227539     
  0.20010000000000000          16.790428161621094     
  0.20120000000000005          16.905897140502930     
  0.20230000000000004          16.855733871459961     
  0.20340000000000003          16.628305435180664     
  0.20450000000000002          16.242656707763672     
  0.20560000000000000          15.743057250976562     
  0.20670000000000005          15.162218093872070     
  0.20780000000000004          14.503226280212402     
  0.20890000000000003          13.752146720886230     
