 -0.12000000000000000          0.0000000000000000
 -0.11889999999999999          0.0000000000000000
 -0.11780000000000000          0.0000000000000000
 -0.11670000000000000          2.1259799476425201E-010
 -0.11559999999999999          7.8417400350971889E-010
 -0.11449999999999999          1.0115693838130824E-009
 -0.11340000000000000         -6.0733268414381314E-010
 -0.11230000000000000         -4.5266097536966754E-009
 -0.11119999999999999         -8.0650162104234369E-009
 -0.11009999999999999         -6.2745852957846182E-009
 -0.10900000000000000          3.3560607626270667E-009
 -0.10790000000000000          1.6323504326010152E-008
 -0.10679999999999999          2.2413420452949140E-008
 -0.10569999999999999          1.3856826797109534E-008
 -0.10460000000000000         -6.3452461063207011E-009
 -0.10349999999999999         -2.4794992725674092E-008
 -0.10239999999999999         -2.8368305038384278E-008
 -0.10130000000000000         -1.6144603876000474E-008
 -0.10020000000000000         -6.7584216001392861E-010
  -9.9099999999999994E-002     3.9865462042598665E-009
  -9.7999999999999990E-002    -3.2710509856315184E-009
  -9.6899999999999986E-002    -8.2548847757379917E-009
  -9.5799999999999996E-002     5.1429895897570077E-009
  -9.4699999999999993E-002     3.7684497300460862E-008
  -9.3599999999999989E-002     7.0330173684851616E-008
  -9.2499999999999999E-002     7.7732131842367380E-008
  -9.1399999999999995E-002     4.7757879428900196E-008
  -9.0299999999999991E-002    -1.0804441785694507E-008
  -8.9200000000000002E-002    -7.9161374344494106E-008
  -8.8099999999999984E-002    -1.4769632628031104E-007
  -8.6999999999999994E-002    -2.2639950714165025E-007
  -8.5899999999999990E-002    -3.3909861940628616E-007
  -8.4799999999999986E-002    -5.0953246955032228E-007
  -8.3699999999999997E-002    -7.5336890859034611E-007
  -8.2599999999999993E-002    -1.0820059515026514E-006
  -8.1499999999999989E-002    -1.5110525737327407E-006
  -8.0399999999999999E-002    -2.0622733245545533E-006
  -7.9299999999999995E-002    -2.7561175102164270E-006
  -7.8199999999999992E-002    -3.6036396977578988E-006
  -7.7100000000000002E-002    -4.6096283767838031E-006
  -7.5999999999999984E-002    -5.7899487728718668E-006
  -7.4899999999999994E-002    -7.1933945946511813E-006
  -7.3799999999999991E-002    -8.9126842794939876E-006
  -7.2699999999999987E-002    -1.1075263500970323E-005
  -7.1599999999999997E-002    -1.3817927538184449E-005
  -7.0499999999999993E-002    -1.7261007087654434E-005
  -6.9399999999999989E-002    -2.1500431103049777E-005
  -6.8300000000000000E-002    -2.6626714316080324E-005
  -6.7199999999999996E-002    -3.2763509807409719E-005
  -6.6099999999999992E-002    -4.0103928768076003E-005
  -6.5000000000000002E-002    -4.8922494897851720E-005
  -6.3899999999999985E-002    -5.9556958149187267E-005
  -6.2799999999999995E-002    -7.2377610194962472E-005
  -6.1699999999999991E-002    -8.7772881670389324E-005
  -6.0599999999999994E-002    -1.0616718645906076E-004
  -5.9499999999999990E-002    -1.2805851292796433E-004
  -5.8399999999999994E-002    -1.5404562873300165E-004
  -5.7299999999999990E-002    -1.8482476298231632E-004
  -5.6199999999999986E-002    -2.2116793843451887E-004
  -5.5099999999999996E-002    -2.6391676510684192E-004
  -5.3999999999999992E-002    -3.1401377054862678E-004
  -5.2899999999999989E-002    -3.7255670758895576E-004
  -5.1799999999999985E-002    -4.4083475950174034E-004
  -5.0699999999999995E-002    -5.2031950326636434E-004
  -4.9599999999999991E-002    -6.1262462986633182E-004
  -4.8499999999999988E-002    -7.1947905234992504E-004
  -4.7399999999999998E-002    -8.4274396067485213E-004
  -4.6299999999999994E-002    -9.8446139600127935E-004
  -4.5199999999999990E-002    -1.1468916200101376E-003
  -4.4099999999999986E-002    -1.3325124746188521E-003
  -4.2999999999999997E-002    -1.5439952258020639E-003
  -4.1899999999999993E-002    -1.7841957742348313E-003
  -4.0799999999999989E-002    -2.0561721175909042E-003
  -3.9699999999999985E-002    -2.3632035590708256E-003
  -3.8599999999999995E-002    -2.7087733615189791E-003
  -3.7499999999999992E-002    -3.0965092591941357E-003
  -3.6399999999999988E-002    -3.5301235038787127E-003
  -3.5299999999999984E-002    -4.0134014561772346E-003
  -3.4199999999999994E-002    -4.5502223074436188E-003
  -3.3099999999999991E-002    -5.1445593126118183E-003
  -3.1999999999999987E-002    -5.8003980666399002E-003
  -3.0899999999999997E-002    -6.5216054208576679E-003
  -2.9799999999999993E-002    -7.3118340224027634E-003
  -2.8699999999999989E-002    -8.1745060160756111E-003
  -2.7599999999999986E-002    -9.1128451749682426E-003
  -2.6499999999999996E-002    -1.0129841975867748E-002
  -2.5399999999999992E-002    -1.1228092946112156E-002
  -2.4299999999999988E-002    -1.2409555725753307E-002
  -2.3199999999999985E-002    -1.3675373978912830E-002
  -2.2099999999999995E-002    -1.5025838278234005E-002
  -2.0999999999999991E-002    -1.6460446640849113E-002
  -1.9899999999999987E-002    -1.7977898940443993E-002
  -1.8799999999999983E-002    -1.9575921818614006E-002
  -1.7699999999999994E-002    -2.1251002326607704E-002
  -1.6599999999999990E-002    -2.2998183965682983E-002
  -1.5499999999999986E-002    -2.4811068549752235E-002
  -1.4399999999999996E-002    -2.6681907474994659E-002
  -1.3299999999999992E-002    -2.8601652011275291E-002
  -1.2199999999999989E-002    -3.0559828504920006E-002
  -1.1099999999999985E-002    -3.2544337213039398E-002
  -9.9999999999999950E-003    -3.4541316330432892E-002
  -8.8999999999999913E-003    -3.6535244435071945E-002
  -7.7999999999999875E-003    -3.8509152829647064E-002
  -6.6999999999999837E-003    -4.0444824844598770E-002
  -5.5999999999999939E-003    -4.2322821915149689E-002
  -4.4999999999999901E-003    -4.4122446328401566E-002
  -3.3999999999999864E-003    -4.5821797102689743E-002
  -2.2999999999999826E-003    -4.7398079186677933E-002
  -1.1999999999999927E-003    -4.8827987164258957E-002
  -9.9999999999988987E-005    -5.0088007003068924E-002
   1.0000000000000148E-003    -5.1154572516679764E-002
   2.1000000000000185E-003    -5.2004177123308182E-002
   3.2000000000000084E-003    -5.2613656967878342E-002
   4.3000000000000121E-003    -5.2960656583309174E-002
   5.4000000000000159E-003    -5.3024146705865860E-002
   6.5000000000000058E-003    -5.2784770727157593E-002
   7.6000000000000234E-003    -5.2225016057491302E-002
   8.7000000000000133E-003    -5.1329404115676880E-002
   9.8000000000000032E-003    -5.0084844231605530E-002
   1.0900000000000021E-002    -4.8481136560440063E-002
   1.2000000000000011E-002    -4.6511448919773102E-002
   1.3100000000000001E-002    -4.4172506779432297E-002
   1.4200000000000018E-002    -4.1464526206254959E-002
   1.5300000000000008E-002    -3.8391180336475372E-002
   1.6400000000000026E-002    -3.4959804266691208E-002
   1.7500000000000016E-002    -3.1181748956441879E-002
   1.8600000000000005E-002    -2.7072647586464882E-002
   1.9700000000000023E-002    -2.2652253508567810E-002
   2.0800000000000013E-002    -1.7944023013114929E-002
   2.1900000000000003E-002    -1.2974741868674755E-002
   2.3000000000000020E-002    -7.7744368463754654E-003
   2.4100000000000010E-002    -2.3764329962432384E-003
   2.5200000000000000E-002     3.1827422790229321E-003
   2.6300000000000018E-002     8.8638709858059883E-003
   2.7400000000000008E-002     1.4625815674662590E-002
   2.8500000000000025E-002     2.0426198840141296E-002
   2.9600000000000015E-002     2.6221742853522301E-002
   3.0700000000000005E-002     3.1968437135219574E-002
   3.1800000000000023E-002     3.7621825933456421E-002
   3.2900000000000013E-002     4.3137714266777039E-002
   3.4000000000000002E-002     4.8473007977008820E-002
   3.5100000000000020E-002     5.3586423397064209E-002
   3.6200000000000010E-002     5.8438800275325775E-002
   3.7300000000000028E-002     6.2993228435516357E-002
   3.8400000000000017E-002     6.7215375602245331E-002
   3.9500000000000007E-002     7.1074038743972778E-002
   4.0600000000000025E-002     7.4541829526424408E-002
   4.1700000000000015E-002     7.7595539391040802E-002
   4.2800000000000005E-002     8.0216199159622192E-002
   4.3900000000000022E-002     8.2388900220394135E-002
   4.5000000000000012E-002     8.4102906286716461E-002
   4.6100000000000002E-002     8.5351921617984772E-002
   4.7200000000000020E-002     8.6134411394596100E-002
   4.8300000000000010E-002     8.6453497409820557E-002
   4.9400000000000027E-002     8.6316563189029694E-002
   5.0500000000000017E-002     8.5734695196151733E-002
   5.1600000000000007E-002     8.4722541272640228E-002
   5.2700000000000025E-002     8.3298400044441223E-002
   5.3800000000000014E-002     8.1484198570251465E-002
   5.4900000000000004E-002     7.9305082559585571E-002
   5.6000000000000022E-002     7.6788604259490967E-002
   5.7100000000000012E-002     7.3964014649391174E-002
   5.8200000000000002E-002     7.0861987769603729E-002
   5.9300000000000019E-002     6.7514717578887939E-002
   6.0400000000000009E-002     6.3955761492252350E-002
   6.1500000000000027E-002     6.0219477862119675E-002
   6.2600000000000017E-002     5.6340076029300690E-002
   6.3700000000000007E-002     5.2350975573062897E-002
   6.4800000000000024E-002     4.8284664750099182E-002
   6.5900000000000014E-002     4.4172916561365128E-002
   6.7000000000000004E-002     4.0046758949756622E-002
   6.8100000000000022E-002     3.5935986787080765E-002
   6.9200000000000012E-002     3.1868390738964081E-002
   7.0300000000000029E-002     2.7869293466210365E-002
   7.1400000000000019E-002     2.3961681872606277E-002
   7.2500000000000009E-002     2.0166587084531784E-002
   7.3600000000000027E-002     1.6503244638442993E-002
   7.4700000000000016E-002     1.2988744303584099E-002
   7.5800000000000006E-002     9.6375066787004471E-003
   7.6900000000000024E-002     6.4610838890075684E-003
   7.8000000000000014E-002     3.4685172140598297E-003
   7.9100000000000004E-002     6.6690164385363460E-004
   8.0200000000000021E-002    -1.9383698236197233E-003
   8.1300000000000011E-002    -4.3438449501991272E-003
   8.2400000000000029E-002    -6.5483553335070610E-003
   8.3500000000000019E-002    -8.5529666393995285E-003
   8.4600000000000009E-002    -1.0360440239310265E-002
   8.5700000000000026E-002    -1.1974634602665901E-002
   8.6800000000000016E-002    -1.3400318101048470E-002
   8.7900000000000006E-002    -1.4643437229096889E-002
   8.9000000000000024E-002    -1.5711376443505287E-002
   9.0100000000000013E-002    -1.6612758859992027E-002
   9.1200000000000003E-002    -1.7356814816594124E-002
   9.2300000000000021E-002    -1.7952837049961090E-002
   9.3400000000000011E-002    -1.8410122022032738E-002
   9.4500000000000028E-002    -1.8738361075520515E-002
   9.5600000000000018E-002    -1.8947886303067207E-002
   9.6700000000000008E-002    -1.9049404188990593E-002
   9.7800000000000026E-002    -1.9053317606449127E-002
   9.8900000000000016E-002    -1.8969275057315826E-002
  0.10000000000000001         -1.8806312233209610E-002
  0.10110000000000002         -1.8573373556137085E-002
  0.10220000000000001         -1.8279606476426125E-002
  0.10330000000000003         -1.7934054136276245E-002
  0.10440000000000002         -1.7544990405440331E-002
  0.10550000000000001         -1.7119552940130234E-002
  0.10660000000000003         -1.6664037480950356E-002
  0.10770000000000002         -1.6184519976377487E-002
  0.10880000000000001         -1.5687160193920135E-002
  0.10990000000000003         -1.5177860856056213E-002
  0.11100000000000002         -1.4661641791462898E-002
  0.11210000000000001         -1.4142383821308613E-002
  0.11320000000000002         -1.3623226433992386E-002
  0.11430000000000001         -1.3107219710946083E-002
  0.11540000000000003         -1.2597573921084404E-002
  0.11650000000000002         -1.2097282335162163E-002
  0.11760000000000001         -1.1608546599745750E-002
  0.11870000000000003         -1.1132625862956047E-002
  0.11980000000000002         -1.0670305229723454E-002
  0.12090000000000001         -1.0222513228654861E-002
  0.12200000000000003         -9.7904698923230171E-003
  0.12310000000000001         -9.3752518296241760E-003
  0.12420000000000003         -8.9772650972008705E-003
  0.12530000000000002         -8.5962098091840744E-003
  0.12640000000000001         -8.2315979525446892E-003
  0.12750000000000003         -7.8833010047674179E-003
  0.12860000000000002         -7.5515541248023510E-003
  0.12970000000000001         -7.2364555671811104E-003
  0.13080000000000003         -6.9374963641166687E-003
  0.13190000000000002         -6.6536534577608109E-003
  0.13300000000000001         -6.3839629292488098E-003
  0.13410000000000000         -6.1279782094061375E-003
  0.13520000000000004         -5.8856368996202946E-003
  0.13630000000000003         -5.6566833518445492E-003
  0.13740000000000002         -5.4402709938585758E-003
  0.13850000000000001         -5.2351704798638821E-003
  0.13960000000000000         -5.0403848290443420E-003
  0.14070000000000005         -4.8555284738540649E-003
  0.14180000000000004         -4.6805674210190773E-003
  0.14290000000000003         -4.5152013190090656E-003
  0.14400000000000002         -4.3585295788943768E-003
  0.14510000000000001         -4.2093736119568348E-003
  0.14620000000000000         -4.0669110603630543E-003
  0.14730000000000004         -3.9309738203883171E-003
  0.14840000000000003         -3.8016911130398512E-003
  0.14950000000000002         -3.6788627039641142E-003
  0.15060000000000001         -3.5617107059806585E-003
  0.15170000000000000         -3.4492739941924810E-003
  0.15280000000000005         -3.3410300966352224E-003
  0.15390000000000004         -3.2370907720178366E-003
  0.15500000000000003         -3.1377698760479689E-003
  0.15610000000000002         -3.0429763719439507E-003
  0.15720000000000001         -2.9520646203309298E-003
  0.15830000000000000         -2.8642951510846615E-003
  0.15940000000000004         -2.7794120833277702E-003
  0.16050000000000003         -2.6977350935339928E-003
  0.16160000000000002         -2.6196632534265518E-003
  0.16270000000000001         -2.5451215915381908E-003
  0.16380000000000000         -2.4735236074775457E-003
  0.16490000000000005         -2.4042828008532524E-003
  0.16600000000000004         -2.3373304866254330E-003
  0.16710000000000003         -2.2730906493961811E-003
  0.16820000000000002         -2.2119455970823765E-003
  0.16930000000000001         -2.1537514403462410E-003
  0.17040000000000000         -2.0979123655706644E-003
  0.17150000000000004         -2.0439301151782274E-003
  0.17260000000000003         -1.9918403122574091E-003
  0.17370000000000002         -1.9420817261561751E-003
  0.17480000000000001         -1.8949357327073812E-003
  0.17590000000000000         -1.8501336453482509E-003
  0.17700000000000005         -1.8070447258651257E-003
  0.17810000000000004         -1.7652470851317048E-003
  0.17920000000000003         -1.7248806543648243E-003
  0.18030000000000002         -1.6864148201420903E-003
  0.18140000000000001         -1.6500777564942837E-003
  0.18250000000000000         -1.6155497869476676E-003
  0.18360000000000004         -1.5822367276996374E-003
  0.18470000000000003         -1.5498286811634898E-003
  0.18580000000000002         -1.5185537049546838E-003
  0.18690000000000001         -1.4888612786307931E-003
  0.18800000000000000         -1.4608703786507249E-003
  0.18910000000000005         -1.4341657515615225E-003
  0.19020000000000004         -1.4081530971452594E-003
  0.19130000000000003         -1.3825998175889254E-003
  0.19240000000000002         -1.3577936915680766E-003
  0.19350000000000001         -1.3341588201001287E-003
  0.19460000000000005         -1.3117344351485372E-003
  0.19570000000000004         -1.2900610454380512E-003
  0.19680000000000003         -1.2685857946053147E-003
  0.19790000000000002         -1.2471554800868034E-003
  0.19900000000000001         -1.2260803487151861E-003
  0.20010000000000000         -1.2057081330567598E-003
  0.20120000000000005         -1.1859623482450843E-003
  0.20230000000000004         -1.1663266923278570E-003
  0.20340000000000003         -1.1462924303486943E-003
  0.20450000000000002         -1.1257990263402462E-003
  0.20560000000000000         -1.1052160989493132E-003
  0.20670000000000005         -1.0848998790606856E-003
  0.20780000000000004         -1.0647936724126339E-003
  0.20890000000000003         -1.0444857180118561E-003
