 -0.12000000000000000          0.0000000000000000     
 -0.11889999999999999          0.0000000000000000     
 -0.11780000000000000          0.0000000000000000     
 -0.11670000000000000          0.0000000000000000     
 -0.11559999999999999          0.0000000000000000     
 -0.11449999999999999          0.0000000000000000     
 -0.11340000000000000          0.0000000000000000     
 -0.11230000000000000          0.0000000000000000     
 -0.11119999999999999         -8.4212461259577553E-019
 -0.11009999999999999          6.3159346720164989E-018
 -0.10900000000000000          1.3473993801532408E-017
 -0.10790000000000000         -1.1452895268969945E-016
 -0.10679999999999999         -2.6947987603064817E-017
 -0.10569999999999999          2.4253189669938948E-016
 -0.10460000000000000          4.8506379339877895E-016
 -0.10349999999999999         -6.4675168923866580E-016
 -0.10239999999999999          0.0000000000000000     
 -0.10130000000000000          3.4493424131922966E-015
 -0.10020000000000000         -1.7246712065961483E-015
  -9.9099999999999994E-002    -1.7246712065961483E-015
  -9.7999999999999990E-002    -1.3797369652769186E-014
  -9.6899999999999986E-002    -1.0348027027818653E-014
  -9.5799999999999996E-002    -1.2072698763810393E-014
  -9.4699999999999993E-002     5.5189478611076745E-014
  -9.3599999999999989E-002     1.5177106533342810E-013
  -9.2499999999999999E-002     8.2784216222549223E-014
  -9.1399999999999995E-002    -9.6581590110483145E-014
  -9.0299999999999991E-002    -3.0354213066685620E-013
  -8.9200000000000002E-002    -7.7265272088386516E-013
  -8.8099999999999984E-002    -1.6556843244509845E-013
  -8.6999999999999994E-002     4.9670532444034965E-013
  -8.5899999999999990E-002     1.6280895902276438E-012
  -8.4799999999999986E-002     1.6556843786610931E-012
  -8.3699999999999997E-002     8.8303165777722792E-013
  -8.2599999999999993E-002    -1.1037895857740621E-012
  -8.1499999999999989E-002    -4.4151583430962482E-012
  -8.0399999999999999E-002    -4.6359162168829737E-012
  -7.9299999999999995E-002    -1.3245474595607876E-012
  -7.8199999999999992E-002     4.4151582888861396E-013
  -7.7100000000000002E-002     6.3467898471503137E-012
  -7.5999999999999984E-002     1.0154863928912850E-011
  -7.4899999999999994E-002     1.2362443534141843E-011
  -7.3799999999999991E-002     5.7397055858166013E-012
  -7.2699999999999987E-002    -5.0774319644564248E-012
  -7.1599999999999997E-002    -2.2075790848119503E-011
  -7.0499999999999993E-002    -3.1789140764182378E-011
  -6.9399999999999989E-002    -4.0619455715651398E-011
  -6.8300000000000000E-002    -2.1192759352972601E-011
  -6.7199999999999996E-002     1.9426696362678797E-011
  -6.6099999999999992E-002     9.8899548273134741E-011
  -6.5000000000000002E-002     1.2009231109555429E-010
  -6.3899999999999985E-002     9.1835289373065621E-011
  -6.2799999999999995E-002    -5.2981898382431503E-012
  -6.1699999999999991E-002    -1.3422081501790473E-010
  -6.0599999999999994E-002    -2.7197374907750316E-010
  -5.9499999999999990E-002    -3.2495564572521118E-010
  -5.8399999999999994E-002    -1.5894570382091189E-010
  -5.7299999999999990E-002     1.2009231109555429E-010
  -5.6199999999999986E-002     4.9096560150729829E-010
  -5.5099999999999996E-002     7.3468231498452496E-010
  -5.3999999999999992E-002     6.6403982312834842E-010
  -5.2899999999999989E-002     1.7660632678495602E-010
  -5.1799999999999985E-002    -6.9229683097304928E-010
  -5.0699999999999995E-002    -1.5258787566807541E-009
  -4.9599999999999991E-002    -1.8861556760896292E-009
  -4.8499999999999988E-002    -9.8899544109798398E-010
  -4.7399999999999998E-002     1.0172525044538361E-009
  -4.6299999999999994E-002     3.1577211956346218E-009
  -4.5199999999999990E-002     3.8146965586349779E-009
  -4.4099999999999986E-002     2.2181754211203497E-009
  -4.2999999999999997E-002    -1.5002707964839601E-009
  -4.1899999999999993E-002    -5.3688324896938866E-009
  -4.0799999999999989E-002    -6.7251693103287380E-009
  -3.9699999999999985E-002    -3.5886407179219759E-009
  -3.8599999999999995E-002     2.5360669120289003E-009
  -3.7499999999999992E-002     8.4771043518117040E-009
  -3.6399999999999988E-002     9.6073842215105287E-009
  -3.5299999999999984E-002     3.9559817643919359E-009
  -3.4199999999999994E-002    -5.7644307105420012E-009
  -3.3099999999999991E-002    -1.3026483003386602E-008
  -3.1999999999999987E-002    -1.1182712533752692E-008
  -3.0899999999999997E-002     2.6137736419684643E-010
  -2.9799999999999993E-002     1.4509976331567032E-008
  -2.8699999999999989E-002     1.9186511934776718E-008
  -2.7599999999999986E-002     8.0815061309635894E-009
  -2.6499999999999996E-002    -1.2659142178961247E-008
  -2.5399999999999992E-002    -2.8313527522527693E-008
  -2.4299999999999988E-002    -2.5219383914532045E-008
  -2.3199999999999985E-002    -4.2950660805729513E-009
  -2.2099999999999995E-002     2.1814413386778142E-008
  -2.0999999999999991E-002     3.8259994283862397E-008
  -1.9899999999999987E-002     3.4473554677560969E-008
  -1.8799999999999983E-002     1.7688890352474118E-008
  -1.7699999999999994E-002    -5.8209446152091004E-009
  -1.6599999999999990E-002    -1.9073484125442519E-008
  -1.5499999999999986E-002    -3.2326024523854358E-008
  -1.4399999999999996E-002    -6.4708558511483716E-008
  -1.3299999999999992E-002    -9.3361173014727683E-008
  -1.2199999999999989E-002    -8.4544986123091803E-008
  -1.1099999999999985E-002     3.8429536886042115E-008
  -9.9999999999999950E-003     2.3419411832037440E-007
  -8.8999999999999913E-003     3.4360527934040874E-007
  -7.7999999999999875E-003     1.9712092580448370E-007
  -6.6999999999999837E-003    -2.1430118124499131E-007
  -5.5999999999999939E-003    -6.6550916244523250E-007
  -4.4999999999999901E-003    -7.1072037144404021E-007
  -3.3999999999999864E-003    -2.4414057975263859E-007
  -2.2999999999999826E-003     6.8540208530976088E-007
  -1.1999999999999927E-003     1.4105901300354162E-006
  -9.9999999999988987E-005     1.3237845450930763E-006
   1.0000000000000148E-003     3.7977426359248057E-007
   2.1000000000000185E-003    -8.8613990101293894E-007
   3.2000000000000084E-003    -2.0978006887162337E-006
   4.3000000000000121E-003    -2.1918399397691246E-006
   5.4000000000000159E-003    -1.6493053180965944E-006
   6.5000000000000058E-003     1.1574072544817682E-007
   7.6000000000000234E-003     2.5173608264594804E-006
   8.7000000000000133E-003     4.8177075768762734E-006
   9.8000000000000032E-003     5.3674762057198677E-006
   1.0900000000000021E-002     2.4884257072699256E-006
   1.2000000000000011E-002    -4.6585641939600464E-006
   1.3100000000000001E-002    -1.0677082173060626E-005
   1.4200000000000018E-002    -1.0619211934681516E-005
   1.5300000000000008E-002    -3.7615736800944433E-006
   1.6400000000000026E-002     8.3912027548649348E-006
   1.7500000000000016E-002     1.4756942618987523E-005
   1.8600000000000005E-002     1.2673609489866067E-005
   1.9700000000000023E-002     3.4722216923910310E-007
   2.0800000000000013E-002    -8.1018506534746848E-006
   2.1900000000000003E-002    -8.6805548562551849E-006
   2.3000000000000020E-002    -5.7870361160894390E-006
   2.4100000000000010E-002    -2.7777773539128248E-006
   2.5200000000000000E-002    -6.7129622038919479E-006
   2.6300000000000018E-002    -1.5972220353432931E-005
   2.7400000000000008E-002    -6.9444436121557374E-006
   2.8500000000000025E-002     2.0833331291214563E-005
   2.9600000000000015E-002     4.0509254176868126E-005
   3.0700000000000005E-002     4.2129624489462003E-005
   3.1800000000000023E-002     1.3888887224311475E-005
   3.2900000000000013E-002    -2.1296293198247440E-005
   3.4000000000000002E-002    -5.2777770179091021E-005
   3.5100000000000020E-002    -8.1018508353736252E-005
   3.6200000000000010E-002    -3.7037032598163933E-005
   3.7300000000000028E-002     4.6296290747704916E-006
   3.8400000000000017E-002     3.8888883864274248E-005
   3.9500000000000007E-002     6.9444438850041479E-005
   4.0600000000000025E-002     7.6851843914482743E-005
   4.1700000000000015E-002     2.1296293198247440E-005
   4.2800000000000005E-002    -4.9074067646870390E-005
   4.3900000000000022E-002    -7.9629622632637620E-005
   4.5000000000000012E-002    -4.4444437662605196E-005
   4.6100000000000002E-002     1.6666665032971650E-005
   4.7200000000000020E-002     6.2962957599665970E-005
   4.8300000000000010E-002     6.4814805227797478E-005
   4.9400000000000027E-002    -2.2222218831302598E-005
   5.0500000000000017E-002    -2.4074070097412914E-005
   5.1600000000000007E-002     3.7037032143416582E-006
   5.2700000000000025E-002     8.3333325164858252E-005
   5.3800000000000014E-002     3.3333330065943301E-005
   5.4900000000000004E-002    -7.0370362664107233E-005
   5.6000000000000022E-002    -8.1481470260769129E-005
   5.7100000000000012E-002    -1.2592591519933194E-004
   5.8200000000000002E-002    -1.5555553545709699E-004
   5.9300000000000019E-002     9.6296280389651656E-005
   6.0400000000000009E-002     2.8518514591269195E-004
   6.1500000000000027E-002     2.8518514591269195E-004
   6.2600000000000017E-002     1.4444442058447748E-004
   6.3700000000000007E-002    -1.8518515571486205E-004
   6.4800000000000024E-002    -3.9259254117496312E-004
   6.5900000000000014E-002    -4.9259251682087779E-004
   6.7000000000000004E-002    -4.1851846617646515E-004
   6.8100000000000022E-002     2.0370367565192282E-004
   6.9200000000000012E-002     8.4074062760919333E-004
   7.0300000000000029E-002     6.9629622157663107E-004
   7.1400000000000019E-002     6.2962957599665970E-005
   7.2500000000000009E-002    -7.3703692760318518E-004
   7.3600000000000027E-002    -6.1481475131586194E-004
   7.4700000000000016E-002    -6.6666660131886601E-005
   7.5800000000000006E-002     2.7777775540016592E-004
   7.6900000000000024E-002     4.9999990733340383E-004
   7.8000000000000014E-002     1.4814813039265573E-004
   7.9100000000000004E-002    -1.7407405539415777E-004
   8.0200000000000021E-002    -2.5925922091118991E-004
   8.1300000000000011E-002    -1.6666665032971650E-004
   8.2400000000000029E-002     1.4814813039265573E-004
   8.3500000000000019E-002     2.5925923182512634E-005
   8.4600000000000009E-002    -1.2592591519933194E-004
   8.5700000000000026E-002    -1.5740738308522850E-004
   8.6800000000000016E-002     3.7037032598163933E-005
   8.7900000000000006E-002     4.3981475755572319E-004
   8.9000000000000024E-002     4.1388883255422115E-004
   9.0100000000000013E-002     5.0231476052431390E-005
   9.1200000000000003E-002    -1.7777775065042078E-004
   9.2300000000000021E-002    -4.4444439117796719E-004
   9.3400000000000011E-002    -2.0555552328005433E-004
   9.4500000000000028E-002     1.0740739526227117E-004
   9.5600000000000018E-002    -1.0370369273005053E-004
   9.6700000000000008E-002    -5.8518513105809689E-004
   9.7800000000000026E-002    -3.9999996079131961E-004
   9.8900000000000016E-002     4.5925920130684972E-004
  0.10000000000000001          1.3259256957098842E-003
  0.10110000000000002          1.2592590646818280E-003
  0.10220000000000001         -1.7777775065042078E-004
  0.10330000000000003         -1.3777775457128882E-003
  0.10440000000000002         -1.6148146241903305E-003
  0.10550000000000001         -6.3703698106110096E-004
  0.10660000000000003          9.9259242415428162E-004
  0.10770000000000002          1.6592590836808085E-003
  0.10880000000000001          1.8222220242023468E-003
  0.10990000000000003          5.3333328105509281E-004
  0.11100000000000002         -9.0370356338098645E-004
  0.11210000000000001         -2.1629626862704754E-003
  0.11320000000000002         -1.7185183241963387E-003
  0.11430000000000001         -6.8148138234391809E-004
  0.11540000000000003         -6.2222214182838798E-004
  0.11650000000000002          5.0370366079732776E-004
  0.11760000000000001          2.2518516052514315E-003
  0.11870000000000003          3.5555551294237375E-003
  0.11980000000000002          1.8666663672775030E-003
  0.12090000000000001         -1.7777775647118688E-003
  0.12200000000000003         -3.7629625294357538E-003
  0.12310000000000001         -3.2888883724808693E-003
  0.12420000000000003          1.4814812457188964E-003
  0.12530000000000002          3.3185181673616171E-003
  0.12640000000000001          2.1629626862704754E-003
  0.12750000000000003         -1.0666665621101856E-003
  0.12860000000000002         -2.8444440104067326E-003
  0.12970000000000001         -1.7481478862464428E-003
  0.13080000000000003          3.5555550130084157E-004
  0.13190000000000002          2.7555550914257765E-003
  0.13300000000000001          1.8962960457429290E-003
  0.13410000000000000         -2.3703700862824917E-003
  0.13520000000000004         -5.2444436587393284E-003
  0.13630000000000003         -7.9999992158263922E-004
  0.13740000000000002          3.0814809724688530E-003
  0.13850000000000001          5.2740732207894325E-003
  0.13960000000000000          2.6814811863005161E-003
  0.14070000000000005         -1.5999998431652784E-003
  0.14180000000000004         -3.8074068725109100E-003
  0.14290000000000003         -1.7629627836868167E-003
  0.14400000000000002          1.1444443371146917E-003
  0.14510000000000001          1.9680552650243044E-003
  0.14620000000000000          1.1518517276272178E-003
  0.14730000000000004         -1.4518516836687922E-003
  0.14840000000000003         -2.3111107293516397E-003
  0.14950000000000002         -1.1407405836507678E-003
  0.15060000000000001          3.0222218483686447E-003
  0.15170000000000000          3.9407401345670223E-003
  0.15280000000000005          1.7777775065042078E-004
  0.15390000000000004         -3.3777772914618254E-003
  0.15500000000000003         -4.4148140586912632E-003
  0.15610000000000002         -2.6074070483446121E-003
  0.15720000000000001          4.2666662484407425E-003
  0.15830000000000000          5.6888880208134651E-003
  0.15940000000000004          1.5999998431652784E-003
  0.16050000000000003         -4.5629623346030712E-003
  0.16160000000000002         -6.6962954588234425E-003
  0.16270000000000001         -2.2518516052514315E-003
  0.16380000000000000          6.3407397828996181E-003
  0.16490000000000005          9.2444429174065590E-003
  0.16600000000000004          2.0740737672895193E-003
  0.16710000000000003         -8.5333324968814850E-003
  0.16820000000000002         -1.0370369069278240E-002
  0.16930000000000001         -1.7777775647118688E-003
  0.17040000000000000          6.5185176208615303E-003
  0.17150000000000004          7.9407393932342529E-003
  0.17260000000000003          1.6592590836808085E-003
  0.17370000000000002         -6.9925915449857712E-003
  0.17480000000000001         -6.9333324208855629E-003
  0.17590000000000000          2.9629626078531146E-004
  0.17700000000000005          1.4340738765895367E-002
  0.17810000000000004          1.5940738841891289E-002
  0.17920000000000003         -2.3703700571786612E-004
  0.18030000000000002         -1.6592590138316154E-002
  0.18140000000000001         -1.9674072042107582E-002
  0.18250000000000000         -5.5407402105629444E-003
  0.18360000000000004          1.0237035341560841E-002
  0.18470000000000003          1.7214812338352203E-002
  0.18580000000000002          5.6296288967132568E-003
  0.18690000000000001         -1.1207405477762222E-002
  0.18800000000000000         -1.4777775853872299E-002
  0.18910000000000005         -6.3703698106110096E-004
  0.19020000000000004          1.7214812338352203E-002
  0.19130000000000003          1.5585183165967464E-002
  0.19240000000000002         -2.7851848863065243E-003
  0.19350000000000001         -1.9911108538508415E-002
  0.19460000000000005         -1.7511108890175819E-002
  0.19570000000000004          1.0370368836447597E-003
  0.19680000000000003          1.6414811834692955E-002
  0.19790000000000002          1.3866664841771126E-002
  0.19900000000000001         -2.9629625714733265E-005
  0.20010000000000000         -1.1911109089851379E-002
  0.20120000000000005         -7.3185176588594913E-003
  0.20230000000000004          8.4740733727812767E-003
  0.20340000000000003          1.4844442717730999E-002
  0.20450000000000002          3.2296292483806610E-003
  0.20560000000000000         -1.4577776193618774E-002
  0.20670000000000005         -2.0088886842131615E-002
  0.20780000000000004         -6.1629619449377060E-003
  0.20890000000000003          1.4577776193618774E-002
