 -0.12000000000000000          0.0000000000000000
 -0.11889999999999999          0.0000000000000000
 -0.11780000000000000          0.0000000000000000
 -0.11670000000000000          0.0000000000000000
 -0.11559999999999999          0.0000000000000000
 -0.11449999999999999          0.0000000000000000
 -0.11340000000000000          0.0000000000000000
 -0.11230000000000000          0.0000000000000000
 -0.11119999999999999          0.0000000000000000
 -0.11009999999999999          0.0000000000000000
 -0.10900000000000000          0.0000000000000000
 -0.10790000000000000          0.0000000000000000
 -0.10679999999999999          0.0000000000000000
 -0.10569999999999999          0.0000000000000000
 -0.10460000000000000          4.4852201248176416E-035
 -0.10349999999999999         -1.5391783576780308E-034
 -0.10239999999999999         -5.9440454169007482E-033
 -0.10130000000000000         -3.5176890263435330E-032
 -0.10020000000000000         -4.7582722380475671E-032
  -9.9099999999999994E-002     3.9316441724030123E-031
  -9.7999999999999990E-002     2.2184345876142255E-030
  -9.6899999999999986E-002     3.4955680650459901E-030
  -9.5799999999999996E-002    -1.0503098428478158E-029
  -9.4699999999999993E-002    -6.4822758466913016E-029
  -9.3599999999999989E-002    -1.1266193800945023E-028
  -9.2499999999999999E-002     1.5176875429890383E-028
  -9.1399999999999995E-002     1.2187657185974613E-027
  -9.0299999999999991E-002     2.4536103891500439E-027
  -8.9200000000000002E-002    -6.0146633414186378E-028
  -8.8099999999999984E-002    -1.5615496848894798E-026
  -8.6999999999999994E-002    -3.8517712012330214E-026
  -8.5899999999999990E-002    -2.2071267956195184E-026
  -8.4799999999999986E-002     1.2801459152159249E-025
  -8.3699999999999997E-002     4.2680363646647958E-025
  -8.2599999999999993E-002     5.1406952856795931E-025
  -8.1499999999999989E-002    -4.9945630608832365E-025
  -8.0399999999999999E-002    -3.2513158217644316E-024
  -7.9299999999999995E-002    -5.8958253257574239E-024
  -7.8199999999999992E-002    -2.0831043018088752E-024
  -7.7100000000000002E-002     1.5801945614681239E-023
  -7.5999999999999984E-002     4.3359504718531216E-023
  -7.4899999999999994E-002     4.6969162772537321E-023
  -7.3799999999999991E-002    -3.1067735706341054E-023
  -7.2699999999999987E-002    -2.1167066449253178E-022
  -7.1599999999999997E-002    -3.7190999438665111E-022
  -7.0499999999999993E-002    -2.0089016962001926E-022
  -6.9399999999999989E-002     5.9984115460806399E-022
  -6.8300000000000000E-002     1.8116981669688272E-021
  -6.7199999999999996E-002     2.2342646031699673E-021
  -6.6099999999999992E-002     4.0455480861083844E-023
  -6.5000000000000002E-002    -5.4381765577298866E-021
  -6.3899999999999985E-002    -1.1192582470725407E-020
  -6.2799999999999995E-002    -9.9066415183472989E-021
  -6.1699999999999991E-002     5.6440649808692299E-021
  -6.0599999999999994E-002     3.3224734149827510E-020
  -5.9499999999999990E-002     5.3410609373868841E-020
  -5.8399999999999994E-002     3.4754772975062918E-020
  -5.7299999999999990E-002    -4.1877128689802939E-020
  -5.6199999999999986E-002    -1.5060092026605819E-019
  -5.5099999999999996E-002    -2.0881773149296653E-019
  -5.3999999999999992E-002    -1.1535767882056644E-019
  -5.2899999999999989E-002     1.6533001734816872E-019
  -5.1799999999999985E-002     5.2577558457667266E-019
  -5.0699999999999995E-002     7.1960231683965590E-019
  -4.9599999999999991E-002     4.8063739665772974E-019
  -4.8499999999999988E-002    -2.9585174037590674E-019
  -4.7399999999999998E-002    -1.4188478867175581E-018
  -4.6299999999999994E-002    -2.3867197247688284E-018
  -4.5199999999999990E-002    -2.4753956620110780E-018
  -4.4099999999999986E-002    -9.0620978696556913E-019
  -4.2999999999999997E-002     2.7929875521260701E-018
  -4.1899999999999993E-002     8.0362430965979833E-018
  -4.0799999999999989E-002     1.2186248838775073E-017
  -3.9699999999999985E-002     1.0321821640926510E-017
  -3.8599999999999995E-002    -2.6054739973190201E-018
  -3.7499999999999992E-002    -2.6544558071424698E-017
  -3.6399999999999988E-002    -5.0516637635812408E-017
  -3.5299999999999984E-002    -5.2273081235379557E-017
  -3.4199999999999994E-002    -9.5056363395580005E-018
  -3.3099999999999991E-002     7.8426792029870761E-017
  -3.1999999999999987E-002     1.7148189817325939E-016
  -3.0899999999999997E-002     1.9372450224093847E-016
  -2.9799999999999993E-002     7.4917014948805676E-017
  -2.8699999999999989E-002    -1.8477121803864302E-016
  -2.7599999999999986E-002    -4.7080277873399043E-016
  -2.6499999999999996E-002    -5.8115039769589459E-016
  -2.5399999999999992E-002    -3.3777084175680192E-016
  -2.4299999999999988E-002     2.6901587471443367E-016
  -2.3199999999999985E-002     1.0024902279515631E-015
  -2.2099999999999995E-002     1.4480287179246113E-015
  -2.0999999999999991E-002     1.2186948072866613E-015
  -1.9899999999999987E-002     1.8789756434088088E-016
  -1.8799999999999983E-002    -1.3886578132907273E-015
  -1.7699999999999994E-002    -2.9233443851289313E-015
  -1.6599999999999990E-002    -3.6674356361237689E-015
  -1.5499999999999986E-002    -2.9149087217016961E-015
  -1.4399999999999996E-002    -2.3558811729338184E-016
  -1.3299999999999992E-002     4.1762370807438421E-015
  -1.2199999999999989E-002     9.0462544035432814E-015
  -1.1099999999999985E-002     1.1790494410590493E-014
  -9.9999999999999950E-003     9.1294406143844946E-015
  -8.8999999999999913E-003    -1.0524399326505665E-015
  -7.7999999999999875E-003    -1.7133656250454480E-014
  -6.6999999999999837E-003    -3.2193778843515866E-014
  -5.5999999999999939E-003    -3.5573174987142176E-014
  -4.4999999999999901E-003    -1.8327793012372844E-014
  -3.3999999999999864E-003     1.9468809356139546E-014
  -2.2999999999999826E-003     6.4185956138733898E-014
  -1.1999999999999927E-003     9.1462271236667760E-014
  -9.9999999999988987E-005     7.7396876382857785E-014
   1.0000000000000148E-003     1.3503333084219590E-014
   2.1000000000000185E-003    -8.3083100363256343E-014
   3.2000000000000084E-003    -1.7159665523456924E-013
   4.3000000000000121E-003    -2.0314210433627735E-013
   5.4000000000000159E-003    -1.4342746737464197E-013
   6.5000000000000058E-003     7.6839131164767083E-015
   7.6000000000000234E-003     2.0853320337249033E-013
   8.7000000000000133E-003     3.8322333673869618E-013
   9.8000000000000032E-003     4.4282625231896692E-013
   1.0900000000000021E-002     3.1673766893200840E-013
   1.2000000000000011E-002    -1.0714902324660919E-014
   1.3100000000000001E-002    -4.6832528793766053E-013
   1.4200000000000018E-002    -8.8909259686263469E-013
   1.5300000000000008E-002    -1.0464314170894230E-012
   1.6400000000000026E-002    -7.4505850992001923E-013
   1.7500000000000016E-002     5.6005987561984814E-014
   1.8600000000000005E-002     1.1483036932056200E-012
   1.9700000000000023E-002     2.0810985268765849E-012
   2.0800000000000013E-002     2.3130565308251560E-012
   2.1900000000000003E-002     1.4749020730754610E-012
   2.3000000000000020E-002    -3.7238901168148542E-013
   2.4100000000000010E-002    -2.6334418753143468E-012
   2.5200000000000000E-002    -4.3292902327775279E-012
   2.6300000000000018E-002    -4.4849653913944449E-012
   2.7400000000000008E-002    -2.6051907370578390E-012
   2.8500000000000025E-002     9.7991362093083410E-013
   2.9600000000000015E-002     5.0839441628461705E-012
   3.0700000000000005E-002     8.0103409749102240E-012
   3.1800000000000023E-002     8.1827654955411650E-012
   3.2900000000000013E-002     4.8442588860631594E-012
   3.4000000000000002E-002    -1.4404004220361097E-012
   3.5100000000000020E-002    -8.7123427255808124E-012
   3.6200000000000010E-002    -1.4100727501467533E-011
   3.7300000000000028E-002    -1.4809018959894278E-011
   3.8400000000000017E-002    -9.3397597806111131E-012
   3.9500000000000007E-002     1.4998610163795447E-012
   4.0600000000000025E-002     1.4332968538762929E-011
   4.1700000000000015E-002     2.4043072404850094E-011
   4.2800000000000005E-002     2.5639209954044667E-011
   4.3900000000000022E-002     1.6561536908948179E-011
   4.5000000000000012E-002    -1.5655902733327098E-012
   4.6100000000000002E-002    -2.2721689143643661E-011
   4.7200000000000020E-002    -3.8287279059336978E-011
   4.8300000000000010E-002    -4.0430635107476748E-011
   4.9400000000000027E-002    -2.5798160242454769E-011
   5.0500000000000017E-002     2.1709065997461886E-012
   5.1600000000000007E-002     3.3623135885423507E-011
   5.2700000000000025E-002     5.5627031880402387E-011
   5.3800000000000014E-002     5.7399740741386676E-011
   5.4900000000000004E-002     3.5345028636883950E-011
   5.6000000000000022E-002    -4.3668613820295119E-012
   5.7100000000000012E-002    -4.7141657891666080E-011
   5.8200000000000002E-002    -7.5147470349413867E-011
   5.9300000000000019E-002    -7.4585034334606798E-011
   6.0400000000000009E-002    -4.2165919512609459E-011
   6.1500000000000027E-002     1.2096207197134643E-011
   6.2600000000000017E-002     6.7467969223603668E-011
   6.3700000000000007E-002     1.0005766346076965E-010
   6.4800000000000024E-002     9.2762539552001970E-011
   6.5900000000000014E-002     4.3607594321428905E-011
   6.7000000000000004E-002    -3.1394722868598069E-011
   6.8100000000000022E-002    -1.0288734735408368E-010
   6.9200000000000012E-002    -1.3929497999252714E-010
   7.0300000000000029E-002    -1.2035459305154386E-010
   7.1400000000000019E-002    -4.7302431858279859E-011
   7.2500000000000009E-002     5.5289892535402306E-011
   7.3600000000000027E-002     1.4785740066569471E-010
   7.4700000000000016E-002     1.9171669901116595E-010
   7.5800000000000006E-002     1.6601929399147020E-010
   7.6900000000000024E-002     7.8091146258285454E-011
   7.8000000000000014E-002    -3.8296513034844941E-011
   7.9100000000000004E-002    -1.3711285321328259E-010
   8.0200000000000021E-002    -1.8125063234732918E-010
   8.1300000000000011E-002    -1.6123200821530730E-010
   8.2400000000000029E-002    -1.0183913974816303E-010
   8.3500000000000019E-002    -5.1414691655339922E-011
   8.4600000000000009E-002    -5.6108308331418113E-011
   8.5700000000000026E-002    -1.2923243669925146E-010
   8.6800000000000016E-002    -2.3064814474725138E-010
   8.7900000000000006E-002    -2.6987204656024041E-010
   8.9000000000000024E-002    -1.3850471990251079E-010
   9.0100000000000013E-002     2.3532025925111109E-010
   9.1200000000000003E-002     8.3059033325315012E-010
   9.2300000000000021E-002     1.5018384618603896E-009
   9.3400000000000011E-002     1.9944916524072452E-009
   9.4500000000000028E-002     2.0132710871848228E-009
   9.5600000000000018E-002     1.3274492883250450E-009
   9.6700000000000008E-002    -1.2235937406421180E-010
   9.7800000000000026E-002    -2.1575367518318640E-009
   9.8900000000000016E-002    -4.3654743613585443E-009
  0.10000000000000001         -6.1796701692024541E-009
  0.10110000000000002         -7.0128289357919907E-009
  0.10220000000000001         -6.4008982450356031E-009
  0.10330000000000003         -4.1150174702141838E-009
  0.10440000000000002         -2.1499317523709941E-010
  0.10550000000000001          4.9568610228494794E-009
  0.10660000000000003          1.0821331254313382E-008
  0.10770000000000002          1.6618629263500487E-008
  0.10880000000000001          2.1451900346207386E-008
  0.10990000000000003          2.4306884280726806E-008
  0.11100000000000002          2.4047909524696934E-008
  0.11210000000000001          1.9395504282762644E-008
  0.11320000000000002          8.8914198691329182E-009
  0.11430000000000001         -9.1421268619304144E-009
  0.11540000000000003         -3.6638473107858961E-008
  0.11650000000000002         -7.5803977832075038E-008
  0.11760000000000001         -1.2910952647294008E-007
  0.11870000000000003         -1.9926915045072756E-007
  0.11980000000000002         -2.8924954751261007E-007
  0.12090000000000001         -4.0237607736610859E-007
  0.12200000000000003         -5.4259596093647418E-007
  0.12310000000000001         -7.1491606285242871E-007
  0.12420000000000003         -9.2596604391579642E-007
  0.12530000000000002         -1.1845797014537454E-006
  0.12640000000000001         -1.5022759258216307E-006
  0.12750000000000003         -1.8935744275130610E-006
  0.12860000000000002         -2.3761817854405051E-006
  0.12970000000000001         -2.9711776916917194E-006
  0.13080000000000003         -3.7033697603646184E-006
  0.13190000000000002         -4.6019345201959465E-006
  0.13300000000000001         -5.7013568860100905E-006
  0.13410000000000000         -7.0425514169624734E-006
  0.13520000000000004         -8.6740176064600050E-006
  0.13630000000000003         -1.0652923735657707E-005
  0.13740000000000002         -1.3046155821191650E-005
  0.13850000000000001         -1.5931509263387703E-005
  0.13960000000000000         -1.9399198264137819E-005
  0.14070000000000005         -2.3553845474538385E-005
  0.14180000000000004         -2.8516865930830048E-005
  0.14290000000000003         -3.4429073944981836E-005
  0.14400000000000002         -4.1453201165825281E-005
  0.14510000000000001         -4.9776192295653338E-005
  0.14620000000000000         -5.9611258880528704E-005
  0.14730000000000004         -7.1199907806515717E-005
  0.14840000000000003         -8.4814302594770710E-005
  0.14950000000000002         -1.0076009705593141E-004
  0.15060000000000001         -1.1937956207283505E-004
  0.15170000000000000         -1.4105501946906198E-004
  0.15280000000000005         -1.6621183763031123E-004
  0.15390000000000004         -1.9532101244781631E-004
  0.15500000000000003         -2.2890101240907745E-004
  0.15610000000000002         -2.6751936140559070E-004
  0.15720000000000001         -3.1179362499868929E-004
  0.15830000000000000         -3.6239252270936647E-004
  0.15940000000000004         -4.2003638823542584E-004
  0.16050000000000003         -4.8549681566582587E-004
  0.16160000000000002         -5.5959550366062728E-004
  0.16270000000000001         -6.4320087400508230E-004
  0.16380000000000000         -7.3722354313808264E-004
  0.16490000000000005         -8.4260981717790002E-004
  0.16600000000000004         -9.6033457122920432E-004
  0.16710000000000003         -1.0913919771906211E-003
  0.16820000000000002         -1.2367854379232244E-003
  0.16930000000000001         -1.3975150767751793E-003
  0.17040000000000000         -1.5745635885072973E-003
  0.17150000000000004         -1.7688794202243138E-003
  0.17260000000000003         -1.9813573810522414E-003
  0.17370000000000002         -2.2128177445678394E-003
  0.17480000000000001         -2.4639839759874292E-003
  0.17590000000000000         -2.7354573569254833E-003
  0.17700000000000005         -3.0276915070424149E-003
  0.17810000000000004         -3.3409649017416372E-003
  0.17920000000000003         -3.6753524843261744E-003
  0.18030000000000002         -4.0306976549966747E-003
  0.18140000000000001         -4.4065839900121716E-003
  0.18250000000000000         -4.8023063418445033E-003
  0.18360000000000004         -5.2168466939533035E-003
  0.18470000000000003         -5.6488478419232744E-003
  0.18580000000000002         -6.0965926124008345E-003
  0.18690000000000001         -6.5579830950623502E-003
  0.18800000000000000         -7.0305233291626593E-003
  0.18910000000000005         -7.5113091116140243E-003
  0.19020000000000004         -7.9970262552130980E-003
  0.19130000000000003         -8.4839501374835771E-003
  0.19240000000000002         -8.9679564641582041E-003
  0.19350000000000001         -9.4445425022733169E-003
  0.19460000000000005         -9.9088427066111318E-003
  0.19570000000000004         -1.0355666678656440E-002
  0.19680000000000003         -1.0779531776510573E-002
  0.19790000000000002         -1.1174717307991779E-002
  0.19900000000000001         -1.1535318200303998E-002
  0.20010000000000000         -1.1855316261325279E-002
  0.20120000000000005         -1.2128650561580814E-002
  0.20230000000000004         -1.2349304798121144E-002
  0.20340000000000003         -1.2511387651292876E-002
  0.20450000000000002         -1.2609225302708318E-002
  0.20560000000000000         -1.2637452502457049E-002
  0.20670000000000005         -1.2591108720774295E-002
  0.20780000000000004         -1.2465729557030729E-002
  0.20890000000000003         -1.2257444618038625E-002
