 -0.12000000000000000          0.0000000000000000
 -0.11889999999999999          0.0000000000000000
 -0.11780000000000000          0.0000000000000000
 -0.11670000000000000          0.0000000000000000
 -0.11559999999999999          0.0000000000000000
 -0.11449999999999999          0.0000000000000000
 -0.11340000000000000          0.0000000000000000
 -0.11230000000000000         -1.2737134297568282E-025
 -0.11119999999999999          1.8150415418773550E-024
 -0.11009999999999999         -2.1016272145655490E-024
 -0.10900000000000000         -1.0603664761867294E-023
 -0.10790000000000000         -3.1333350051543231E-023
 -0.10679999999999999          2.1302859001635041E-023
 -0.10569999999999999          6.5787301315508708E-023
 -0.10460000000000000          2.8961057876192568E-022
 -0.10349999999999999          7.7429042973141350E-022
 -0.10239999999999999          8.0247131805629442E-022
 -0.10130000000000000         -1.8105198385002824E-021
 -0.10020000000000000         -6.2495066436868951E-021
  -9.9099999999999994E-002    -6.5147888783495497E-021
  -9.7999999999999990E-002    -1.5629414095992151E-021
  -9.6899999999999986E-002     1.5910019366826210E-020
  -9.5799999999999996E-002     3.9643535585398831E-020
  -9.4699999999999993E-002     5.7116498179359782E-020
  -9.3599999999999989E-002     1.0940468496211072E-020
  -9.2499999999999999E-002    -8.5320009570876601E-020
  -9.1399999999999995E-002    -2.2749123791372781E-019
  -9.0299999999999991E-002    -3.1749115104709388E-019
  -8.9200000000000002E-002    -2.7393254377308743E-019
  -8.8099999999999984E-002     3.0386019682919739E-019
  -8.6999999999999994E-002     1.1153802641338532E-018
  -8.5899999999999990E-002     1.5930040691941688E-018
  -8.4799999999999986E-002     1.0021595042003512E-018
  -8.3699999999999997E-002    -9.2427031656597988E-019
  -8.2599999999999993E-002    -3.3849345291545308E-018
  -8.1499999999999989E-002    -5.5784816492295483E-018
  -8.0399999999999999E-002    -5.1008580509643858E-018
  -7.9299999999999995E-002    -3.4936117927784321E-019
  -7.8199999999999992E-002     8.1417749875981659E-018
  -7.7100000000000002E-002     1.5564442164034582E-017
  -7.5999999999999984E-002     1.2035310822162817E-017
  -7.4899999999999994E-002    -1.1100358501961480E-018
  -7.3799999999999991E-002    -1.6392319262663380E-017
  -7.2699999999999987E-002    -2.9537663453480507E-017
  -7.1599999999999997E-002    -2.9060039441625038E-017
  -7.0499999999999993E-002    -1.2555392360499408E-017
  -6.9399999999999989E-002     2.7455557207455930E-017
  -6.8300000000000000E-002     6.2925515168705436E-017
  -6.7199999999999996E-002     8.3436927529725652E-017
  -6.6099999999999992E-002     6.1209605088580535E-017
  -6.5000000000000002E-002     1.7479355355927491E-017
  -6.3899999999999985E-002    -2.1977022550870246E-017
  -6.2799999999999995E-002    -4.0064033056585316E-017
  -6.1699999999999991E-002    -6.4561850473902736E-017
  -6.0599999999999994E-002    -9.7607411542930772E-017
  -5.9499999999999990E-002    -1.0500974496554941E-016
  -5.8399999999999994E-002    -3.1208482264053917E-017
  -5.7299999999999990E-002     2.0019186956991961E-016
  -5.6199999999999986E-002     5.5980841588422177E-016
  -5.5099999999999996E-002     8.5104301298483901E-016
  -5.3999999999999992E-002     7.6617677029618093E-016
  -5.2899999999999989E-002     1.2570699503170824E-016
  -5.1799999999999985E-002    -1.0019842841855553E-015
  -5.0699999999999995E-002    -2.0954847608495438E-015
  -4.9599999999999991E-002    -2.3769493622991748E-015
  -4.8499999999999988E-002    -1.3249653585119085E-015
  -4.7399999999999998E-002     9.5789410169860086E-016
  -4.6299999999999994E-002     3.5441986683399903E-015
  -4.5199999999999990E-002     4.9680100189393971E-015
  -4.4099999999999986E-002     3.9300702449340807E-015
  -4.2999999999999997E-002     3.4490218112217608E-016
  -4.1899999999999993E-002    -4.5651670784558826E-015
  -4.0799999999999989E-002    -8.2999199960825942E-015
  -3.9699999999999985E-002    -8.5471934773415949E-015
  -3.8599999999999995E-002    -4.6146185559824832E-015
  -3.7499999999999992E-002     2.0190440607663427E-015
  -3.6399999999999988E-002     8.3620828970486401E-015
  -3.5299999999999984E-002     1.1815984253321296E-014
  -3.4199999999999994E-002     1.1252444763183538E-014
  -3.3099999999999991E-002     7.0133752050251935E-015
  -3.1999999999999987E-002    -1.6611957221992135E-016
  -3.0899999999999997E-002    -9.5338369360611908E-015
  -2.9799999999999993E-002    -1.8593835171098853E-014
  -2.8699999999999989E-002    -2.1978129900864993E-014
  -2.7599999999999986E-002    -1.3122053153812908E-014
  -2.6499999999999996E-002     8.9317422002303110E-015
  -2.5399999999999992E-002     3.2489944301562421E-014
  -2.4299999999999988E-002     3.7174717514368294E-014
  -2.3199999999999985E-002     1.2044952505557184E-014
  -2.2099999999999995E-002    -2.8265608034488618E-014
  -2.0999999999999991E-002    -4.9634365492439922E-014
  -1.9899999999999987E-002    -2.4212760363850026E-014
  -1.8799999999999983E-002     3.3690281467380068E-014
  -1.7699999999999994E-002     6.2052312344452326E-014
  -1.6599999999999990E-002    -5.7307098248662175E-015
  -1.5499999999999986E-002    -1.6172648073173312E-013
  -1.4399999999999996E-002    -3.0267821127076544E-013
  -1.3299999999999992E-002    -2.9401020463712402E-013
  -1.2199999999999989E-002    -8.9496254374391015E-014
  -1.1099999999999985E-002     1.8011735495020859E-013
  -9.9999999999999950E-003     2.5826142982000866E-013
  -8.8999999999999913E-003    -1.6718980258394189E-014
  -7.7999999999999875E-003    -4.9246891287157979E-013
  -6.6999999999999837E-003    -7.5596121159801632E-013
  -5.5999999999999939E-003    -4.1112751224259281E-013
  -4.4999999999999901E-003     4.6106792429140286E-013
  -3.3999999999999864E-003     1.2851225075424799E-012
  -2.2999999999999826E-003     1.3958164051669497E-012
  -1.1999999999999927E-003     5.0211587275181269E-013
  -9.9999999999988987E-005    -1.0743102371243984E-012
   1.0000000000000148E-003    -2.5238194780591305E-012
   2.1000000000000185E-003    -3.1768155814293486E-012
   3.2000000000000084E-003    -2.8888757705458623E-012
   4.3000000000000121E-003    -1.5680946124918549E-012
   5.4000000000000159E-003     3.7414187958710599E-013
   6.5000000000000058E-003     2.4564248204961281E-012
   7.6000000000000234E-003     4.0310398248533108E-012
   8.7000000000000133E-003     3.8900879045788983E-012
   9.8000000000000032E-003     1.7009592519212635E-012
   1.0900000000000021E-002    -1.4684932957143015E-012
   1.2000000000000011E-002    -2.3972052641541008E-012
   1.3100000000000001E-002     5.6036664024261551E-013
   1.4200000000000018E-002     6.1438063837793155E-012
   1.5300000000000008E-002     9.3814712942563716E-012
   1.6400000000000026E-002     5.7568680725261778E-012
   1.7500000000000016E-002    -4.3798862106592118E-012
   1.8600000000000005E-002    -1.9908420398340176E-011
   1.9700000000000023E-002    -3.1795750060625849E-011
   2.0800000000000013E-002    -3.3459703757676706E-011
   2.1900000000000003E-002    -2.4620189567614581E-011
   2.3000000000000020E-002    -1.2979747485153403E-011
   2.4100000000000010E-002    -5.5406942055247210E-012
   2.5200000000000000E-002    -5.2440014136623248E-012
   2.6300000000000018E-002    -5.5074937665988699E-012
   2.7400000000000008E-002     1.5114194618082166E-012
   2.8500000000000025E-002     1.3852091348964812E-011
   2.9600000000000015E-002     1.9470543233257587E-011
   3.0700000000000005E-002     1.5565848957010964E-011
   3.1800000000000023E-002     2.1380063518205983E-012
   3.2900000000000013E-002    -1.2065040806696903E-012
   3.4000000000000002E-002     1.3374908819363540E-011
   3.5100000000000020E-002     2.7396137441959567E-011
   3.6200000000000010E-002     4.0857182220799260E-011
   3.7300000000000028E-002     4.9276558528044134E-011
   3.8400000000000017E-002     3.6408903669737924E-011
   3.9500000000000007E-002     8.9764341792974989E-012
   4.0600000000000025E-002    -6.7752324584002821E-011
   4.1700000000000015E-002    -1.9377738302850389E-010
   4.2800000000000005E-002    -3.0075614221303226E-010
   4.3900000000000022E-002    -2.9569788284611320E-010
   4.5000000000000012E-002    -1.7188039880267070E-010
   4.6100000000000002E-002    -4.3581426661942757E-011
   4.7200000000000020E-002    -5.4208356553564485E-011
   4.8300000000000010E-002    -2.6426116850331027E-010
   4.9400000000000027E-002    -5.5273996490967647E-010
   5.0500000000000017E-002    -7.4262612725917165E-010
   5.1600000000000007E-002    -5.8071614184029841E-010
   5.2700000000000025E-002    -1.0510244063954843E-010
   5.3800000000000014E-002     4.3101125446476374E-010
   5.4900000000000004E-002     6.4893984630387536E-010
   5.6000000000000022E-002     4.6353515470443085E-010
   5.7100000000000012E-002    -4.0054695671365437E-011
   5.8200000000000002E-002    -4.5849646301832081E-010
   5.9300000000000019E-002    -6.1701233011746126E-010
   6.0400000000000009E-002    -6.5004668314827541E-010
   6.1500000000000027E-002    -7.3237732545194945E-010
   6.2600000000000017E-002    -9.0881907555129260E-010
   6.3700000000000007E-002    -1.1076682904231916E-009
   6.4800000000000024E-002    -1.1586286374765109E-009
   6.5900000000000014E-002    -9.1829271964272152E-010
   6.7000000000000004E-002    -3.5529015840474187E-010
   6.8100000000000022E-002     2.8389759987312857E-010
   6.9200000000000012E-002     6.9004846281472965E-010
   7.0300000000000029E-002     6.9734751306782528E-010
   7.1400000000000019E-002     5.0297987996827942E-010
   7.2500000000000009E-002     5.1476040097142572E-010
   7.3600000000000027E-002     8.4920748211203545E-010
   7.4700000000000016E-002     8.6546941835408120E-010
   7.5800000000000006E-002     6.1620430980013907E-011
   7.6900000000000024E-002    -1.1186729320655786E-009
   7.8000000000000014E-002    -1.8508182764165326E-009
   7.9100000000000004E-002    -1.7494081738789191E-009
   8.0200000000000021E-002    -1.0295536645443804E-009
   8.1300000000000011E-002    -3.4106956148249878E-010
   8.2400000000000029E-002    -3.1584465598477607E-010
   8.3500000000000019E-002    -8.8665669251142276E-010
   8.4600000000000009E-002    -1.6456908058515296E-009
   8.5700000000000026E-002    -1.9901880143891049E-009
   8.6800000000000016E-002    -1.4809631299073089E-009
   8.7900000000000006E-002    -3.3984937086728451E-010
   8.9000000000000024E-002     4.2481998474563909E-010
   9.0100000000000013E-002     3.0159594266443435E-010
   9.1200000000000003E-002    -4.3755157830283053E-010
   9.2300000000000021E-002    -7.8456957597339283E-010
   9.3400000000000011E-002    -3.2268029914739316E-010
   9.4500000000000028E-002     8.5176449227120088E-010
   9.5600000000000018E-002     2.1830610652529003E-009
   9.6700000000000008E-002     2.9003950352546326E-009
   9.7800000000000026E-002     2.5735440445373570E-009
   9.8900000000000016E-002     1.4938039694101235E-009
  0.10000000000000001          2.7065666374781472E-010
  0.10110000000000002         -7.1049072181139650E-010
  0.10220000000000001         -1.0463048205622272E-009
  0.10330000000000003         -5.4856352793564156E-010
  0.10440000000000002          5.7658511298797066E-010
  0.10550000000000001          1.7913632799348989E-009
  0.10660000000000003          2.4325117475854086E-009
  0.10770000000000002          2.4462529779611941E-009
  0.10880000000000001          1.7967349830172452E-009
  0.10990000000000003          9.6795782500436189E-010
  0.11100000000000002          5.5147686417456043E-010
  0.11210000000000001          6.5484773159596443E-010
  0.11320000000000002          1.9771813075664113E-009
  0.11430000000000001          3.4070706256272842E-009
  0.11540000000000003          4.0123668831881787E-009
  0.11650000000000002          3.0760338720625668E-009
  0.11760000000000001          4.1881242918151429E-010
  0.11870000000000003         -2.5252238078365963E-009
  0.11980000000000002         -3.8200753671446819E-009
  0.12090000000000001         -2.0675199330355554E-009
  0.12200000000000003          1.9078501001246195E-009
  0.12310000000000001          5.0586272948294209E-009
  0.12420000000000003          5.1261457301166047E-009
  0.12530000000000002          1.4650725077558491E-009
  0.12640000000000001         -2.5545197068765901E-009
  0.12750000000000003         -3.8852232542296861E-009
  0.12860000000000002         -3.0648157345325444E-009
  0.12970000000000001         -1.4198160425138440E-009
  0.13080000000000003         -2.0503845843400370E-010
  0.13190000000000002          1.1889984552482247E-009
  0.13300000000000001          3.3717759695406357E-009
  0.13410000000000000          5.4469979637872257E-009
  0.13520000000000004          4.6899240047082458E-009
  0.13630000000000003          2.2836652568969384E-009
  0.13740000000000002          1.0246654635892583E-009
  0.13850000000000001          9.1292484682981012E-010
  0.13960000000000000          2.1635544467102363E-009
  0.14070000000000005          2.4103323781332620E-009
  0.14180000000000004          1.2051104558707948E-009
  0.14290000000000003         -3.5862984804069242E-010
  0.14400000000000002         -1.0708888220634094E-009
  0.14510000000000001         -4.9248127798051655E-010
  0.14620000000000000          4.9598181117715967E-010
  0.14730000000000004          6.4192656745731824E-010
  0.14840000000000003         -4.6694337285657639E-010
  0.14950000000000002         -1.8088502917734672E-009
  0.15060000000000001         -1.3402388088223915E-009
  0.15170000000000000          2.0392798560919800E-010
  0.15280000000000005          9.2350227465232138E-010
  0.15390000000000004          1.0144712847548476E-010
  0.15500000000000003         -2.7641633426611634E-009
  0.15610000000000002         -6.4902181406978343E-009
  0.15720000000000001         -6.9179035833144553E-009
  0.15830000000000000         -1.7527008733253524E-009
  0.15940000000000004          5.2050945775761193E-009
  0.16050000000000003          8.6494083006982692E-009
  0.16160000000000002          7.2178716337134574E-009
  0.16270000000000001          4.4956682820895821E-009
  0.16380000000000000          4.3547974115654142E-009
  0.16490000000000005          5.2894821855886676E-009
  0.16600000000000004          3.3560194623305506E-009
  0.16710000000000003         -2.5928503788463786E-009
  0.16820000000000002         -9.9040899925739723E-009
  0.16930000000000001         -1.2769701740467099E-008
  0.17040000000000000         -7.6762027845234115E-009
  0.17150000000000004         -9.3351859575818708E-010
  0.17260000000000003          3.5968539258135479E-010
  0.17370000000000002         -5.4457762743709281E-009
  0.17480000000000001         -1.1107830211187775E-008
  0.17590000000000000         -1.0101441461074501E-008
  0.17700000000000005          7.2835337761034680E-010
  0.17810000000000004          1.2848815345023468E-008
  0.17920000000000003          1.7763055026875918E-008
  0.18030000000000002          1.0451816301326744E-008
  0.18140000000000001         -3.7788288054230179E-009
  0.18250000000000000         -1.2739252319704519E-008
  0.18360000000000004         -1.0209157963458892E-008
  0.18470000000000003         -2.7404722935386872E-009
  0.18580000000000002          2.6756952209439078E-009
  0.18690000000000001          2.8252826744790127E-009
  0.18800000000000000         -2.4656472419337661E-009
  0.18910000000000005         -7.0216144010259995E-009
  0.19020000000000004         -4.6761012839624527E-009
  0.19130000000000003          2.4556332522962521E-009
  0.19240000000000002          5.8946270087290031E-009
  0.19350000000000001         -3.4637714918517304E-010
  0.19460000000000005         -1.1606639205297142E-008
  0.19570000000000004         -1.8743937957310663E-008
  0.19680000000000003         -1.6452201379024700E-008
  0.19790000000000002         -6.4881700012620058E-009
  0.19900000000000001          2.1334367605874149E-010
  0.20010000000000000         -1.1159566604135307E-009
  0.20120000000000005         -6.0304419235990281E-009
  0.20230000000000004         -4.9935202639517229E-009
  0.20340000000000003          7.0857693046377790E-009
  0.20450000000000002          2.3503131885149742E-008
  0.20560000000000000          2.9415904378993218E-008
  0.20670000000000005          1.7653716710697154E-008
  0.20780000000000004         -5.5810631671704414E-009
  0.20890000000000003         -2.3294658646477728E-008
