 -0.12000000000000000          0.0000000000000000
 -0.11889999999999999          0.0000000000000000
 -0.11780000000000000          0.0000000000000000
 -0.11670000000000000          2.6836141642228029E-010
 -0.11559999999999999          9.1323637541051994E-010
 -0.11449999999999999          8.8428320221822787E-010
 -0.11340000000000000         -1.6768991750737428E-009
 -0.11230000000000000         -6.8369390149314313E-009
 -0.11119999999999999         -1.0786713744437293E-008
 -0.11009999999999999         -8.2626083752757040E-009
 -0.10900000000000000          1.2398631010768213E-009
 -0.10790000000000000          1.0354934687484274E-008
 -0.10679999999999999          9.7012939903606821E-009
 -0.10569999999999999         -1.2921734793280848E-009
 -0.10460000000000000         -1.0922636128896102E-008
 -0.10349999999999999         -6.3363363445034793E-009
 -0.10239999999999999          9.8929131553404659E-009
 -0.10130000000000000          1.6810819403190180E-008
 -0.10020000000000000         -6.1675660134596910E-009
  -9.9099999999999994E-002    -5.4770691093608548E-008
  -9.7999999999999990E-002    -9.6635439206238516E-008
  -9.6899999999999986E-002    -9.7999397041803604E-008
  -9.5799999999999996E-002    -5.6697807337968698E-008
  -9.4699999999999993E-002    -6.5858505315929960E-009
  -9.3599999999999989E-002     1.4891481825429764E-008
  -9.2499999999999999E-002     4.2140193556861050E-009
  -9.1399999999999995E-002    -6.9242620526210885E-009
  -9.0299999999999991E-002     8.4956432999661047E-009
  -8.9200000000000002E-002     3.3730056969716316E-008
  -8.8099999999999984E-002     1.6916455791715634E-008
  -8.6999999999999994E-002    -7.4245306791453913E-008
  -8.5899999999999990E-002    -2.0728271010739263E-007
  -8.4799999999999986E-002    -3.0275688800429634E-007
  -8.3699999999999997E-002    -3.0540314810423297E-007
  -8.2599999999999993E-002    -2.3788605574281974E-007
  -8.1499999999999989E-002    -1.7671956697995483E-007
  -8.0399999999999999E-002    -1.6881472220120486E-007
  -7.9299999999999995E-002    -1.7465080759393459E-007
  -7.8199999999999992E-002    -1.0367381264586584E-007
  -7.7100000000000002E-002     8.7882092714153259E-008
  -7.5999999999999984E-002     3.3927014442269865E-007
  -7.4899999999999994E-002     5.3726745363746886E-007
  -7.3799999999999991E-002     6.3451250298385276E-007
  -7.2699999999999987E-002     7.1358192599291215E-007
  -7.1599999999999997E-002     9.2308721377776237E-007
  -7.0499999999999993E-002     1.3432330661089509E-006
  -6.9399999999999989E-002     1.9185736164217815E-006
  -6.8300000000000000E-002     2.5338197247037897E-006
  -6.7199999999999996E-002     3.1602562557964120E-006
  -6.6099999999999992E-002     3.9195233512145933E-006
  -6.5000000000000002E-002     4.9905952437256929E-006
  -6.3899999999999985E-002     6.4507880779274274E-006
  -6.2799999999999995E-002     8.2202423072885722E-006
  -6.1699999999999991E-002     1.0180265235248953E-005
  -6.0599999999999994E-002     1.2353528290987015E-005
  -5.9499999999999990E-002     1.4958995961933397E-005
  -5.8399999999999994E-002     1.8274824469699524E-005
  -5.7299999999999990E-002     2.2442623958340846E-005
  -5.6199999999999986E-002     2.7417565434006974E-005
  -5.5099999999999996E-002     3.3127242204500362E-005
  -5.3999999999999992E-002     3.9685630326857790E-005
  -5.2899999999999989E-002     4.7441972128581256E-005
  -5.1799999999999985E-002     5.6805958593031392E-005
  -5.0699999999999995E-002     6.8021472543478012E-005
  -4.9599999999999991E-002     8.1121652328874916E-005
  -4.8499999999999988E-002     9.6118092187680304E-005
  -4.7399999999999998E-002     1.1323609942337498E-004
  -4.6299999999999994E-002     1.3295508688315749E-004
  -4.5199999999999990E-002     1.5581004845444113E-004
  -4.4099999999999986E-002     1.8215671298094094E-004
  -4.2999999999999997E-002     2.1214336447883397E-004
  -4.1899999999999993E-002     2.4591962574049830E-004
  -4.0799999999999989E-002     2.8386368649080396E-004
  -3.9699999999999985E-002     3.2658409327268600E-004
  -3.8599999999999995E-002     3.7468134541995823E-004
  -3.7499999999999992E-002     4.2850314639508724E-004
  -3.6399999999999988E-002     4.8813715693540871E-004
  -3.5299999999999984E-002     5.5364030413329601E-004
  -3.4199999999999994E-002     6.2525819521397352E-004
  -3.3099999999999991E-002     7.0339516969397664E-004
  -3.1999999999999987E-002     7.8835029853507876E-004
  -3.0899999999999997E-002     8.8007218437269330E-004
  -2.9799999999999993E-002     9.7816158086061478E-004
  -2.8699999999999989E-002     1.0820884490385652E-003
  -2.7599999999999986E-002     1.1913666967302561E-003
  -2.6499999999999996E-002     1.3054724549874663E-003
  -2.5399999999999992E-002     1.4235642738640308E-003
  -2.4299999999999988E-002     1.5442614676430821E-003
  -2.3199999999999985E-002     1.6656753141433001E-003
  -2.2099999999999995E-002     1.7856151098385453E-003
  -2.0999999999999991E-002     1.9017099402844906E-003
  -1.9899999999999987E-002     2.0112802740186453E-003
  -1.8799999999999983E-002     2.1110649686306715E-003
  -1.7699999999999994E-002     2.1970600355416536E-003
  -1.6599999999999990E-002     2.2646137513220310E-003
  -1.5499999999999986E-002     2.3086445871740580E-003
  -1.4399999999999996E-002     2.3237294517457485E-003
  -1.3299999999999992E-002     2.3039567749947309E-003
  -1.2199999999999989E-002     2.2426946088671684E-003
  -1.1099999999999985E-002     2.1325335837900639E-003
  -9.9999999999999950E-003     1.9654799252748489E-003
  -8.8999999999999913E-003     1.7332264687865973E-003
  -7.7999999999999875E-003     1.4272500993683934E-003
  -6.6999999999999837E-003     1.0387037182226777E-003
  -5.5999999999999939E-003     5.5829936172813177E-004
  -4.4999999999999901E-003    -2.3576198145747185E-005
  -3.3999999999999864E-003    -7.1650545578449965E-004
  -2.2999999999999826E-003    -1.5296781202778220E-003
  -1.1999999999999927E-003    -2.4717464111745358E-003
  -9.9999999999988987E-005    -3.5508808214217424E-003
   1.0000000000000148E-003    -4.7747702337801456E-003
   2.1000000000000185E-003    -6.1503481119871140E-003
   3.2000000000000084E-003    -7.6833041384816170E-003
   4.3000000000000121E-003    -9.3776602298021317E-003
   5.4000000000000159E-003    -1.1235608719289303E-002
   6.5000000000000058E-003    -1.3257539831101894E-002
   7.6000000000000234E-003    -1.5441994182765484E-002
   8.7000000000000133E-003    -1.7785331234335899E-002
   9.8000000000000032E-003    -2.0281253382563591E-002
   1.0900000000000021E-002    -2.2920450195670128E-002
   1.2000000000000011E-002    -2.5690577924251556E-002
   1.3100000000000001E-002    -2.8576392680406570E-002
   1.4200000000000018E-002    -3.1559832394123077E-002
   1.5300000000000008E-002    -3.4619849175214767E-002
   1.6400000000000026E-002    -3.7732169032096863E-002
   1.7500000000000016E-002    -4.0869269520044327E-002
   1.8600000000000005E-002    -4.4000666588544846E-002
   1.9700000000000023E-002    -4.7093372792005539E-002
   2.0800000000000013E-002    -5.0112236291170120E-002
   2.1900000000000003E-002    -5.3020093590021133E-002
   2.3000000000000020E-002    -5.5777918547391891E-002
   2.4100000000000010E-002    -5.8345247060060501E-002
   2.5200000000000000E-002    -6.0680843889713287E-002
   2.6300000000000018E-002    -6.2743455171585083E-002
   2.7400000000000008E-002    -6.4492411911487579E-002
   2.8500000000000025E-002    -6.5888062119483948E-002
   2.9600000000000015E-002    -6.6892288625240326E-002
   3.0700000000000005E-002    -6.7469209432601929E-002
   3.1800000000000023E-002    -6.7586071789264679E-002
   3.2900000000000013E-002    -6.7213982343673706E-002
   3.4000000000000002E-002    -6.6328488290309906E-002
   3.5100000000000020E-002    -6.4909905195236206E-002
   3.6200000000000010E-002    -6.2943793833255768E-002
   3.7300000000000028E-002    -6.0421559959650040E-002
   3.8400000000000017E-002    -5.7341087609529495E-002
   3.9500000000000007E-002    -5.3707085549831390E-002
   4.0600000000000025E-002    -4.9531091004610062E-002
   4.1700000000000015E-002    -4.4831350445747375E-002
   4.2800000000000005E-002    -3.9632763713598251E-002
   4.3900000000000022E-002    -3.3967036753892899E-002
   4.5000000000000012E-002    -2.7872668579220772E-002
   4.6100000000000002E-002    -2.1394612267613411E-002
   4.7200000000000020E-002    -1.4583514072000980E-002
   4.8300000000000010E-002    -7.4948617257177830E-003
   4.9400000000000027E-002    -1.8835961236618459E-004
   5.0500000000000017E-002     7.2725219652056694E-003
   5.1600000000000007E-002     1.4821112155914307E-002
   5.2700000000000025E-002     2.2388506680727005E-002
   5.3800000000000014E-002     2.9904838651418686E-002
   5.4900000000000004E-002     3.7300508469343185E-002
   5.6000000000000022E-002     4.4507049024105072E-002
   5.7100000000000012E-002     5.1457758992910385E-002
   5.8200000000000002E-002     5.8088373392820358E-002
   5.9300000000000019E-002     6.4338065683841705E-002
   6.0400000000000009E-002     7.0150651037693024E-002
   6.1500000000000027E-002     7.5475580990314484E-002
   6.2600000000000017E-002     8.0268450081348419E-002
   6.3700000000000007E-002     8.4491200745105743E-002
   6.4800000000000024E-002     8.8112384080886841E-002
   6.5900000000000014E-002     9.1107659041881561E-002
   6.7000000000000004E-002     9.3460373580455780E-002
   6.8100000000000022E-002     9.5161862671375275E-002
   6.9200000000000012E-002     9.6211150288581848E-002
   7.0300000000000029E-002     9.6614450216293335E-002
   7.1400000000000019E-002     9.6384763717651367E-002
   7.2500000000000009E-002     9.5541730523109436E-002
   7.3600000000000027E-002     9.4111569225788116E-002
   7.4700000000000016E-002     9.2126518487930298E-002
   7.5800000000000006E-002     8.9623972773551941E-002
   7.6900000000000024E-002     8.6645431816577911E-002
   7.8000000000000014E-002     8.3235710859298706E-002
   7.9100000000000004E-002     7.9442560672760010E-002
   8.0200000000000021E-002     7.5316160917282104E-002
   8.1300000000000011E-002     7.0908382534980774E-002
   8.2400000000000029E-002     6.6271603107452393E-002
   8.3500000000000019E-002     6.1457730829715729E-002
   8.4600000000000009E-002     5.6517556309700012E-002
   8.5700000000000026E-002     5.1500495523214340E-002
   8.6800000000000016E-002     4.6454321593046188E-002
   8.7900000000000006E-002     4.1424497961997986E-002
   8.9000000000000024E-002     3.6453340202569962E-002
   9.0100000000000013E-002     3.1579378992319107E-002
   9.1200000000000003E-002     2.6837250217795372E-002
   9.2300000000000021E-002     2.2257905453443527E-002
   9.3400000000000011E-002     1.7868718132376671E-002
   9.4500000000000028E-002     1.3693204149603844E-002
   9.5600000000000018E-002     9.7506055608391762E-003
   9.6700000000000008E-002     6.0557425022125244E-003
   9.7800000000000026E-002     2.6193773373961449E-003
   9.8900000000000016E-002    -5.5116933071985841E-004
  0.10000000000000001         -3.4516358282417059E-003
  0.10110000000000002         -6.0808546841144562E-003
  0.10220000000000001         -8.4409117698669434E-003
  0.10330000000000003         -1.0536978021264076E-002
  0.10440000000000002         -1.2376676313579082E-002
  0.10550000000000001         -1.3969333842396736E-002
  0.10660000000000003         -1.5325577929615974E-002
  0.10770000000000002         -1.6457384452223778E-002
  0.10880000000000001         -1.7378197982907295E-002
  0.10990000000000003         -1.8102688714861870E-002
  0.11100000000000002         -1.8646087497472763E-002
  0.11210000000000001         -1.9023528322577477E-002
  0.11320000000000002         -1.9249845296144485E-002
  0.11430000000000001         -1.9339798018336296E-002
  0.11540000000000003         -1.9308265298604965E-002
  0.11650000000000002         -1.9170040264725685E-002
  0.11760000000000001         -1.8939238041639328E-002
  0.11870000000000003         -1.8628839403390884E-002
  0.11980000000000002         -1.8250718712806702E-002
  0.12090000000000001         -1.7816061154007912E-002
  0.12200000000000003         -1.7335653305053711E-002
  0.12310000000000001         -1.6819709911942482E-002
  0.12420000000000003         -1.6277365386486053E-002
  0.12530000000000002         -1.5716373920440674E-002
  0.12640000000000001         -1.5143320895731449E-002
  0.12750000000000003         -1.4564144425094128E-002
  0.12860000000000002         -1.3984446413815022E-002
  0.12970000000000001         -1.3409300707280636E-002
  0.13080000000000003         -1.2842817232012749E-002
  0.13190000000000002         -1.2287956662476063E-002
  0.13300000000000001         -1.1746868491172791E-002
  0.13410000000000000         -1.1221426539123058E-002
  0.13520000000000004         -1.0713472962379456E-002
  0.13630000000000003         -1.0224564932286739E-002
  0.13740000000000002         -9.7555676475167274E-003
  0.13850000000000001         -9.3065788969397545E-003
  0.13960000000000000         -8.8773211464285851E-003
  0.14070000000000005         -8.4676258265972137E-003
  0.14180000000000004         -8.0775488168001175E-003
  0.14290000000000003         -7.7070314437150955E-003
  0.14400000000000002         -7.3555209673941135E-003
  0.14510000000000001         -7.0219961926341057E-003
  0.14620000000000000         -6.7054093815386295E-003
  0.14730000000000004         -6.4050988294184208E-003
  0.14840000000000003         -6.1207539401948452E-003
  0.14950000000000002         -5.8519775047898293E-003
  0.15060000000000001         -5.5979392491281033E-003
  0.15170000000000000         -5.3574992343783379E-003
  0.15280000000000005         -5.1296954043209553E-003
  0.15390000000000004         -4.9140797927975655E-003
  0.15500000000000003         -4.7105387784540653E-003
  0.15610000000000002         -4.5187720097601414E-003
  0.15720000000000001         -4.3379836715757847E-003
  0.15830000000000000         -4.1671120561659336E-003
  0.15940000000000004         -4.0053753182291985E-003
  0.16050000000000003         -3.8525555282831192E-003
  0.16160000000000002         -3.7087183445692062E-003
  0.16270000000000001         -3.5736465360969305E-003
  0.16380000000000000         -3.4465775825083256E-003
  0.16490000000000005         -3.3265231177210808E-003
  0.16600000000000004         -3.2128416933119297E-003
  0.16710000000000003         -3.1054751016199589E-003
  0.16820000000000002         -3.0045930761843920E-003
  0.16930000000000001         -2.9100161045789719E-003
  0.17040000000000000         -2.8210054151713848E-003
  0.17150000000000004         -2.7366415597498417E-003
  0.17260000000000003         -2.6563960127532482E-003
  0.17370000000000002         -2.5803111493587494E-003
  0.17480000000000001         -2.5086104869842529E-003
  0.17590000000000000         -2.4411501362919807E-003
  0.17700000000000005         -2.3772816639393568E-003
  0.17810000000000004         -2.3162569850683212E-003
  0.17920000000000003         -2.2577501367777586E-003
  0.18030000000000002         -2.2019499447196722E-003
  0.18140000000000001         -2.1491355728358030E-003
  0.18250000000000000         -2.0991868805140257E-003
  0.18360000000000004         -2.0515308715403080E-003
  0.18470000000000003         -2.0055687054991722E-003
  0.18580000000000002         -1.9611211027950048E-003
  0.18690000000000001         -1.9184248521924019E-003
  0.18800000000000000         -1.8776939250528812E-003
  0.18910000000000005         -1.8387159798294306E-003
  0.19020000000000004         -1.8009108025580645E-003
  0.19130000000000003         -1.7637825803831220E-003
  0.19240000000000002         -1.7272830009460449E-003
  0.19350000000000001         -1.6917024040594697E-003
  0.19460000000000005         -1.6572090098634362E-003
  0.19570000000000004         -1.6235281946137547E-003
  0.19680000000000003         -1.5901025617495179E-003
  0.19790000000000002         -1.5565616777166724E-003
  0.19900000000000001         -1.5230014687404037E-003
  0.20010000000000000         -1.4897804940119386E-003
  0.20120000000000005         -1.4570498606190085E-003
  0.20230000000000004         -1.4245185302570462E-003
  0.20340000000000003         -1.3917098985984921E-003
  0.20450000000000002         -1.3584414264187217E-003
  0.20560000000000000         -1.3250274350866675E-003
  0.20670000000000005         -1.2919892324134707E-003
  0.20780000000000004         -1.2595736188814044E-003
  0.20890000000000003         -1.2275801273062825E-003
