 -0.12000000000000000          0.0000000000000000
 -0.11889999999999999          0.0000000000000000
 -0.11780000000000000          0.0000000000000000
 -0.11670000000000000         -1.7426069268133837E-012
 -0.11559999999999999         -3.0767554302923994E-012
 -0.11449999999999999          1.7930154973602730E-012
 -0.11340000000000000         -2.3394346355953832E-012
 -0.11230000000000000         -6.2024871350097044E-011
 -0.11119999999999999         -1.8189413864000414E-010
 -0.11009999999999999         -2.1507799707887187E-010
 -0.10900000000000000          7.5649875252992160E-011
 -0.10790000000000000          6.7871769315885899E-010
 -0.10679999999999999          1.0274628925444063E-009
 -0.10569999999999999          2.9057017902900384E-010
 -0.10460000000000000         -1.6550151249461464E-009
 -0.10349999999999999         -3.4579299423853627E-009
 -0.10239999999999999         -2.9432789538930137E-009
 -0.10130000000000000          7.9153361642880782E-010
 -0.10020000000000000          5.6653077784574180E-009
  -9.9099999999999994E-002     7.5087402962026317E-009
  -9.7999999999999990E-002     3.5892206984300401E-009
  -9.6899999999999986E-002    -4.2618113482717490E-009
  -9.5799999999999996E-002    -1.0423991447794378E-008
  -9.4699999999999993E-002    -1.0226006708080604E-008
  -9.3599999999999989E-002    -4.3309462682827871E-009
  -9.2499999999999999E-002     1.9630812531090669E-009
  -9.1399999999999995E-002     4.3192756038479274E-009
  -9.0299999999999991E-002     4.0367029718879621E-009
  -8.9200000000000002E-002     6.1163420994603257E-009
  -8.8099999999999984E-002     1.1950342049260598E-008
  -8.6999999999999994E-002     1.4768403389098239E-008
  -8.5899999999999990E-002     4.6446322343740576E-009
  -8.4799999999999986E-002    -1.9937630213462398E-008
  -8.3699999999999997E-002    -4.5625426992046414E-008
  -8.2599999999999993E-002    -5.1769873721241311E-008
  -8.1499999999999989E-002    -2.7625103982131805E-008
  -8.0399999999999999E-002     1.6303379979376587E-008
  -7.9299999999999995E-002     5.4570055141311968E-008
  -7.8199999999999992E-002     6.6078300164917891E-008
  -7.7100000000000002E-002     4.8473332014964399E-008
  -7.5999999999999984E-002     1.4199983411344874E-008
  -7.4899999999999994E-002    -2.6570305067252775E-008
  -7.3799999999999991E-002    -7.7270328802114818E-008
  -7.2699999999999987E-002    -1.4819292459833378E-007
  -7.1599999999999997E-002    -2.4006993726288783E-007
  -7.0499999999999993E-002    -3.3880252203744021E-007
  -6.9399999999999989E-002    -4.3114366121699277E-007
  -6.8300000000000000E-002    -5.2681104989460437E-007
  -6.7199999999999996E-002    -6.6158997924503637E-007
  -6.6099999999999992E-002    -8.7315117980324430E-007
  -6.5000000000000002E-002    -1.1710177432178170E-006
  -6.3899999999999985E-002    -1.5324711739594932E-006
  -6.2799999999999995E-002    -1.9328717826283537E-006
  -6.1699999999999991E-002    -2.3832740225770976E-006
  -6.0599999999999994E-002    -2.9378024919424206E-006
  -5.9499999999999990E-002    -3.6619062484533060E-006
  -5.8399999999999994E-002    -4.5930764827062376E-006
  -5.7299999999999990E-002    -5.7352781368535943E-006
  -5.6199999999999986E-002    -7.0945288825896569E-006
  -5.5099999999999996E-002    -8.7191428974620067E-006
  -5.3999999999999992E-002    -1.0701219252950978E-005
  -5.2899999999999989E-002    -1.3136131201463286E-005
  -5.1799999999999985E-002    -1.6083713489933871E-005
  -5.0699999999999995E-002    -1.9577515558921732E-005
  -4.9599999999999991E-002    -2.3680417143623345E-005
  -4.8499999999999988E-002    -2.8534288503578864E-005
  -4.7399999999999998E-002    -3.4353070077486336E-005
  -4.6299999999999994E-002    -4.1364510252606124E-005
  -4.5199999999999990E-002    -4.9759888497646898E-005
  -4.4099999999999986E-002    -5.9704994782805443E-005
  -4.2999999999999997E-002    -7.1403257607016712E-005
  -4.1899999999999993E-002    -8.5146821220405400E-005
  -4.0799999999999989E-002    -1.0130353621207178E-004
  -3.9699999999999985E-002    -1.2025679461658001E-004
  -3.8599999999999995E-002    -1.4236840070225298E-004
  -3.7499999999999992E-002    -1.6801354649942368E-004
  -3.6399999999999988E-002    -1.9765915931202471E-004
  -3.5299999999999984E-002    -2.3190575302578509E-004
  -3.4199999999999994E-002    -2.7144499472342432E-004
  -3.3099999999999991E-002    -3.1697304802946746E-004
  -3.1999999999999987E-002    -3.6915059899911284E-004
  -3.0899999999999997E-002    -4.2865748400799930E-004
  -2.9799999999999993E-002    -4.9629207933321595E-004
  -2.8699999999999989E-002    -5.7301495689898729E-004
  -2.7599999999999986E-002    -6.5988965798169374E-004
  -2.6499999999999996E-002    -7.5797713361680508E-004
  -2.5399999999999992E-002    -8.6829054635018110E-004
  -2.4299999999999988E-002    -9.9185388535261154E-004
  -2.3199999999999985E-002    -1.1297977762296796E-003
  -2.2099999999999995E-002    -1.2833831133320928E-003
  -2.0999999999999991E-002    -1.4539166586473584E-003
  -1.9899999999999987E-002    -1.6426363727077842E-003
  -1.8799999999999983E-002    -1.8506770720705390E-003
  -1.7699999999999994E-002    -2.0791434217244387E-003
  -1.6599999999999990E-002    -2.3291970137506723E-003
  -1.5499999999999986E-002    -2.6020419318228960E-003
  -1.4399999999999996E-002    -2.8987976256757975E-003
  -1.3299999999999992E-002    -3.2203663140535355E-003
  -1.2199999999999989E-002    -3.5674124956130981E-003
  -1.1099999999999985E-002    -3.9404602721333504E-003
  -9.9999999999999950E-003    -4.3399836868047714E-003
  -8.8999999999999913E-003    -4.7663636505603790E-003
  -7.7999999999999875E-003    -5.2197300828993320E-003
  -6.6999999999999837E-003    -5.6998198851943016E-003
  -5.5999999999999939E-003    -6.2059774063527584E-003
  -4.4999999999999901E-003    -6.7372815683484077E-003
  -3.3999999999999864E-003    -7.2926389984786510E-003
  -2.2999999999999826E-003    -7.8707318753004074E-003
  -1.1999999999999927E-003    -8.4698544815182686E-003
  -9.9999999999988987E-005    -9.0877972543239594E-003
   1.0000000000000148E-003    -9.7219049930572510E-003
   2.1000000000000185E-003    -1.0369254276156425E-002
   3.2000000000000084E-003    -1.1026773601770401E-002
   4.3000000000000121E-003    -1.1691189371049404E-002
   5.4000000000000159E-003    -1.2358870357275009E-002
   6.5000000000000058E-003    -1.3025749474763870E-002
   7.6000000000000234E-003    -1.3687455095350742E-002
   8.7000000000000133E-003    -1.4339556917548180E-002
   9.8000000000000032E-003    -1.4977728016674519E-002
   1.0900000000000021E-002    -1.5597702935338020E-002
   1.2000000000000011E-002    -1.6195135191082954E-002
   1.3100000000000001E-002    -1.6765559092164040E-002
   1.4200000000000018E-002    -1.7304578796029091E-002
   1.5300000000000008E-002    -1.7808131873607635E-002
   1.6400000000000026E-002    -1.8272662535309792E-002
   1.7500000000000016E-002    -1.8695054575800896E-002
   1.8600000000000005E-002    -1.9072460010647774E-002
   1.9700000000000023E-002    -1.9402291625738144E-002
   2.0800000000000013E-002    -1.9682394340634346E-002
   2.1900000000000003E-002    -1.9911294803023338E-002
   2.3000000000000020E-002    -2.0088287070393562E-002
   2.4100000000000010E-002    -2.0213285461068153E-002
   2.5200000000000000E-002    -2.0286604762077332E-002
   2.6300000000000018E-002    -2.0308887585997581E-002
   2.7400000000000008E-002    -2.0281231030821800E-002
   2.8500000000000025E-002    -2.0205343142151833E-002
   2.9600000000000015E-002    -2.0083505660295486E-002
   3.0700000000000005E-002    -1.9918309524655342E-002
   3.1800000000000023E-002    -1.9712364301085472E-002
   3.2900000000000013E-002    -1.9468175247311592E-002
   3.4000000000000002E-002    -1.9188234582543373E-002
   3.5100000000000020E-002    -1.8875090405344963E-002
   3.6200000000000010E-002    -1.8531210720539093E-002
   3.7300000000000028E-002    -1.8158659338951111E-002
   3.8400000000000017E-002    -1.7758803442120552E-002
   3.9500000000000007E-002    -1.7332244664430618E-002
   4.0600000000000025E-002    -1.6878947615623474E-002
   4.1700000000000015E-002    -1.6398333013057709E-002
   4.2800000000000005E-002    -1.5889164060354233E-002
   4.3900000000000022E-002    -1.5349267050623894E-002
   4.5000000000000012E-002    -1.4775354415178299E-002
   4.6100000000000002E-002    -1.4163123443722725E-002
   4.7200000000000020E-002    -1.3507554307579994E-002
   4.8300000000000010E-002    -1.2803154066205025E-002
   4.9400000000000027E-002    -1.2043954804539680E-002
   5.0500000000000017E-002    -1.1223381385207176E-002
   5.1600000000000007E-002    -1.0334248654544353E-002
   5.2700000000000025E-002    -9.3690566718578339E-003
   5.3800000000000014E-002    -8.3204712718725204E-003
   5.4900000000000004E-002    -7.1816835552453995E-003
   5.6000000000000022E-002    -5.9465016238391399E-003
   5.7100000000000012E-002    -4.6093086712062359E-003
   5.8200000000000002E-002    -3.1651617027819157E-003
   5.9300000000000019E-002    -1.6101635992527008E-003
   6.0400000000000009E-002     5.8043220633408055E-005
   6.1500000000000027E-002     1.8399602267891169E-003
   6.2600000000000017E-002     3.7342028226703405E-003
   6.3700000000000007E-002     5.7376273907721043E-003
   6.4800000000000024E-002     7.8453281894326210E-003
   6.5900000000000014E-002     1.0050408542156219E-002
   6.7000000000000004E-002     1.2343708425760269E-002
   6.8100000000000022E-002     1.4713723212480545E-002
   6.9200000000000012E-002     1.7146827653050423E-002
   7.0300000000000029E-002     1.9627612084150314E-002
   7.1400000000000019E-002     2.2139100357890129E-002
   7.2500000000000009E-002     2.4662779644131660E-002
   7.3600000000000027E-002     2.7178626507520676E-002
   7.4700000000000016E-002     2.9665322974324226E-002
   7.5800000000000006E-002     3.2100737094879150E-002
   7.6900000000000024E-002     3.4462418407201767E-002
   7.8000000000000014E-002     3.6727976053953171E-002
   7.9100000000000004E-002     3.8875233381986618E-002
   8.0200000000000021E-002     4.0882449597120285E-002
   8.1300000000000011E-002     4.2728669941425323E-002
   8.2400000000000029E-002     4.4394265860319138E-002
   8.3500000000000019E-002     4.5861389487981796E-002
   8.4600000000000009E-002     4.7114189714193344E-002
   8.5700000000000026E-002     4.8138916492462158E-002
   8.6800000000000016E-002     4.8924028873443604E-002
   8.7900000000000006E-002     4.9460466951131821E-002
   8.9000000000000024E-002     4.9742020666599274E-002
   9.0100000000000013E-002     4.9765493720769882E-002
   9.1200000000000003E-002     4.9530617892742157E-002
   9.2300000000000021E-002     4.9039863049983978E-002
   9.3400000000000011E-002     4.8298280686140060E-002
   9.4500000000000028E-002     4.7313585877418518E-002
   9.5600000000000018E-002     4.6096231788396835E-002
   9.6700000000000008E-002     4.4659260660409927E-002
   9.7800000000000026E-002     4.3017942458391190E-002
   9.8900000000000016E-002     4.1189271956682205E-002
  0.10000000000000001          3.9191652089357376E-002
  0.10110000000000002          3.7044808268547058E-002
  0.10220000000000001          3.4769695252180099E-002
  0.10330000000000003          3.2388225197792053E-002
  0.10440000000000002          2.9922755435109138E-002
  0.10550000000000001          2.7395553886890411E-002
  0.10660000000000003          2.4828476831316948E-002
  0.10770000000000002          2.2242881357669830E-002
  0.10880000000000001          1.9659580662846565E-002
  0.10990000000000003          1.7098626121878624E-002
  0.11100000000000002          1.4578891918063164E-002
  0.11210000000000001          1.2117697857320309E-002
  0.11320000000000002          9.7306491807103157E-003
  0.11430000000000001          7.4316975660622120E-003
  0.11540000000000003          5.2332351915538311E-003
  0.11650000000000002          3.1460428144782782E-003
  0.11760000000000001          1.1791029246523976E-003
  0.11870000000000003         -6.6054798662662506E-004
  0.11980000000000002         -2.3677772842347622E-003
  0.12090000000000001         -3.9391508325934410E-003
  0.12200000000000003         -5.3727333433926105E-003
  0.12310000000000001         -6.6680209711194038E-003
  0.12420000000000003         -7.8259650617837906E-003
  0.12530000000000002         -8.8489297777414322E-003
  0.12640000000000001         -9.7405128180980682E-003
  0.12750000000000003         -1.0505271144211292E-002
  0.12860000000000002         -1.1148525401949883E-002
  0.12970000000000001         -1.1676287278532982E-002
  0.13080000000000003         -1.2095229700207710E-002
  0.13190000000000002         -1.2412572279572487E-002
  0.13300000000000001         -1.2635851278901100E-002
  0.13410000000000000         -1.2772684916853905E-002
  0.13520000000000004         -1.2830665335059166E-002
  0.13630000000000003         -1.2817387469112873E-002
  0.13740000000000002         -1.2740470468997955E-002
  0.13850000000000001         -1.2607444077730179E-002
  0.13960000000000000         -1.2425530701875687E-002
  0.14070000000000005         -1.2201466597616673E-002
  0.14180000000000004         -1.1941513977944851E-002
  0.14290000000000003         -1.1651586741209030E-002
  0.14400000000000002         -1.1337343603372574E-002
  0.14510000000000001         -1.1004114523530006E-002
  0.14620000000000000         -1.0656720027327538E-002
  0.14730000000000004         -1.0299352928996086E-002
  0.14840000000000003         -9.9356481805443764E-003
  0.14950000000000002         -9.5688682049512863E-003
  0.15060000000000001         -9.2020453885197639E-003
  0.15170000000000000         -8.8379429653286934E-003
  0.15280000000000005         -8.4789153188467026E-003
  0.15390000000000004         -8.1268157809972763E-003
  0.15500000000000003         -7.7830692753195763E-003
  0.15610000000000002         -7.4488488025963306E-003
  0.15720000000000001         -7.1252076886594296E-003
  0.15830000000000000         -6.8130600266158581E-003
  0.15940000000000004         -6.5130721777677536E-003
  0.16050000000000003         -6.2255975790321827E-003
  0.16160000000000002         -5.9507377445697784E-003
  0.16270000000000001         -5.6884782388806343E-003
  0.16380000000000000         -5.4387785494327545E-003
  0.16490000000000005         -5.2015604451298714E-003
  0.16600000000000004         -4.9766423180699348E-003
  0.16710000000000003         -4.7637051902711391E-003
  0.16820000000000002         -4.5623369514942169E-003
  0.16930000000000001         -4.3720933608710766E-003
  0.17040000000000000         -4.1925292462110519E-003
  0.17150000000000004         -4.0231770835816860E-003
  0.17260000000000003         -3.8635276723653078E-003
  0.17370000000000002         -3.7130517885088921E-003
  0.17480000000000001         -3.5712395329028368E-003
  0.17590000000000000         -3.4376149997115135E-003
  0.17700000000000005         -3.3117074053734541E-003
  0.17810000000000004         -3.1930175609886646E-003
  0.17920000000000003         -3.0810309108346701E-003
  0.18030000000000002         -2.9752785339951515E-003
  0.18140000000000001         -2.8753818478435278E-003
  0.18250000000000000         -2.7810302563011646E-003
  0.18360000000000004         -2.6919022202491760E-003
  0.18470000000000003         -2.6076145004481077E-003
  0.18580000000000002         -2.5277547538280487E-003
  0.18690000000000001         -2.4519669823348522E-003
  0.18800000000000000         -2.3800046183168888E-003
  0.18910000000000005         -2.3116897791624069E-003
  0.19020000000000004         -2.2468154784291983E-003
  0.19130000000000003         -2.1850932389497757E-003
  0.19240000000000002         -2.1261975634843111E-003
  0.19350000000000001         -2.0698620937764645E-003
  0.19460000000000005         -2.0159306004643440E-003
  0.19570000000000004         -1.9643076229840517E-003
  0.19680000000000003         -1.9148623105138540E-003
  0.19790000000000002         -1.8673816230148077E-003
  0.19900000000000001         -1.8216149182990193E-003
  0.20010000000000000         -1.7773571889847517E-003
  0.20120000000000005         -1.7344831721857190E-003
  0.20230000000000004         -1.6929040430113673E-003
  0.20340000000000003         -1.6524997772648931E-003
  0.20450000000000002         -1.6131055308505893E-003
  0.20560000000000000         -1.5745642594993114E-003
  0.20670000000000005         -1.5367850428447127E-003
  0.20780000000000004         -1.4997447142377496E-003
  0.20890000000000003         -1.4634350081905723E-003
