 -0.12000000000000000          0.0000000000000000     
 -0.11889999999999999          0.0000000000000000     
 -0.11780000000000000          0.0000000000000000     
 -0.11670000000000000          0.0000000000000000     
 -0.11559999999999999          0.0000000000000000     
 -0.11449999999999999          0.0000000000000000     
 -0.11340000000000000          6.2501437504731457E-020
 -0.11230000000000000          5.7893864398653183E-013
 -0.11119999999999999          2.9382633479069220E-012
 -0.11009999999999999          1.3134670217782030E-012
 -0.10900000000000000         -2.9832716158528783E-011
 -0.10790000000000000         -1.0526830102053353E-010
 -0.10679999999999999         -1.0052771809432315E-010
 -0.10569999999999999          3.2900748792030754E-010
 -0.10460000000000000          1.3330858639193366E-009
 -0.10349999999999999          1.8040287041998226E-009
 -0.10239999999999999         -1.0224152635629480E-009
 -0.10130000000000000         -8.7406144544388553E-009
 -0.10020000000000000         -1.5601104408347055E-008
  -9.9099999999999994E-002    -6.0568479121059227E-009
  -9.7999999999999990E-002     3.2476695110972287E-008
  -9.6899999999999986E-002     8.1627405279505183E-008
  -9.5799999999999996E-002     7.6854888675370603E-008
  -9.4699999999999993E-002    -5.1379387855376990E-008
  -9.3599999999999989E-002    -2.7567870120037696E-007
  -9.2499999999999999E-002    -3.9652377381571569E-007
  -9.1399999999999995E-002    -1.3578998903085449E-007
  -9.0299999999999991E-002     5.6372289236605866E-007
  -8.9200000000000002E-002     1.2536876283775200E-006
  -8.8099999999999984E-002     1.1065234275520197E-006
  -8.6999999999999994E-002    -3.7490798376893508E-007
  -8.5899999999999990E-002    -2.5197016384481685E-006
  -8.4799999999999986E-002    -3.4697495721047744E-006
  -8.3699999999999997E-002    -1.5408502349600894E-006
  -8.2599999999999993E-002     2.8119602575316094E-006
  -8.1499999999999989E-002     6.3869752011669334E-006
  -8.0399999999999999E-002     5.4112015277496539E-006
  -7.9299999999999995E-002    -6.3237121139536612E-007
  -7.8199999999999992E-002    -7.1689469223201741E-006
  -7.7100000000000002E-002    -7.7137356129242107E-006
  -7.5999999999999984E-002    -5.5433781653846381E-007
  -7.4899999999999994E-002     7.4401141318958253E-006
  -7.3799999999999991E-002     5.7143188314512372E-006
  -7.2699999999999987E-002    -8.3246295616845600E-006
  -7.1599999999999997E-002    -2.1855072191101499E-005
  -7.0499999999999993E-002    -1.4389423995453399E-005
  -6.9399999999999989E-002     2.1162899429327808E-005
  -6.8300000000000000E-002     6.2377657741308212E-005
  -6.7199999999999996E-002     6.6853346652351320E-005
  -6.6099999999999992E-002     8.2282904259045608E-006
  -6.5000000000000002E-002    -8.9137480244971812E-005
  -6.3899999999999985E-002    -1.5371633344329894E-004
  -6.2799999999999995E-002    -1.1838430509669706E-004
  -6.1699999999999991E-002     1.6347385098924860E-005
  -6.0599999999999994E-002     1.6605044947937131E-004
  -5.9499999999999990E-002     2.2006795916240662E-004
  -5.8399999999999994E-002     1.3344158651307225E-004
  -5.7299999999999990E-002    -2.8355290851322934E-005
  -5.6199999999999986E-002    -1.4159726561047137E-004
  -5.5099999999999996E-002    -1.3526661496143788E-004
  -5.3999999999999992E-002    -5.7975943491328508E-005
  -5.2899999999999989E-002    -2.7651012715068646E-005
  -5.1799999999999985E-002    -1.0117294732481241E-004
  -5.0699999999999995E-002    -1.9172497559338808E-004
  -4.9599999999999991E-002    -1.3372694957070053E-004
  -4.8499999999999988E-002     1.4336308231577277E-004
  -4.7399999999999998E-002     4.9520417815074325E-004
  -4.6299999999999994E-002     6.3666031928732991E-004
  -4.5199999999999990E-002     3.7766274181194603E-004
  -4.4099999999999986E-002    -1.8087640637531877E-004
  -4.2999999999999997E-002    -6.8644707789644599E-004
  -4.1899999999999993E-002    -8.0353295197710395E-004
  -4.0799999999999989E-002    -4.8511859495192766E-004
  -3.9699999999999985E-002     9.2762121539635700E-007
  -3.8599999999999995E-002     3.2046876731328666E-004
  -3.7499999999999992E-002     3.6447119782678783E-004
  -3.6399999999999988E-002     3.0319261713884771E-004
  -3.5299999999999984E-002     3.5286927595734596E-004
  -3.4199999999999994E-002     4.9722456606104970E-004
  -3.3099999999999991E-002     4.6619979548268020E-004
  -3.1999999999999987E-002     2.2953016014071181E-005
  -3.0899999999999997E-002    -7.1587087586522102E-004
  -2.9799999999999993E-002    -1.2693784665316343E-003
  -2.8699999999999989E-002    -1.1522023705765605E-003
  -2.7599999999999986E-002    -2.9731835820712149E-004
  -2.6499999999999996E-002     8.5077044786885381E-004
  -2.5399999999999992E-002     1.6652134945616126E-003
  -2.4299999999999988E-002     1.7830715514719486E-003
  -2.3199999999999985E-002     1.2658700579777360E-003
  -2.2099999999999995E-002     3.7550338311120868E-004
  -2.0999999999999991E-002    -7.4188853614032269E-004
  -1.9899999999999987E-002    -2.1048663184046745E-003
  -1.8799999999999983E-002    -3.6512133665382862E-003
  -1.7699999999999994E-002    -5.0403736531734467E-003
  -1.6599999999999990E-002    -5.8292523026466370E-003
  -1.5499999999999986E-002    -5.9253131039440632E-003
  -1.4399999999999996E-002    -5.8391331695020199E-003
  -1.3299999999999992E-002    -6.3717332668602467E-003
  -1.2199999999999989E-002    -7.9360790550708771E-003
  -1.1099999999999985E-002    -1.0163879953324795E-002
  -9.9999999999999950E-003    -1.2269144877791405E-002
  -8.8999999999999913E-003    -1.3921749778091908E-002
  -7.7999999999999875E-003    -1.5814870595932007E-002
  -6.6999999999999837E-003    -1.9305299967527390E-002
  -5.5999999999999939E-003    -2.5361157953739166E-002
  -4.4999999999999901E-003    -3.3752463757991791E-002
  -3.3999999999999864E-003    -4.3270379304885864E-002
  -2.2999999999999826E-003    -5.2831359207630157E-002
  -1.1999999999999927E-003    -6.2501639127731323E-002
  -9.9999999999988987E-005    -7.3545649647712708E-002
   1.0000000000000148E-003    -8.7528117001056671E-002
   2.1000000000000185E-003   -0.10534723848104477     
   3.2000000000000084E-003   -0.12707862257957458     
   4.3000000000000121E-003   -0.15262381732463837     
   5.4000000000000159E-003   -0.18240374326705933     
   6.5000000000000058E-003   -0.21735778450965881     
   7.6000000000000234E-003   -0.25838354229927063     
   8.7000000000000133E-003   -0.30591073632240295     
   9.8000000000000032E-003   -0.36020019650459290     
   1.0900000000000021E-002   -0.42205238342285156     
   1.2000000000000011E-002   -0.49313348531723022     
   1.3100000000000001E-002   -0.57544428110122681     
   1.4200000000000018E-002   -0.67045128345489502     
   1.5300000000000008E-002   -0.77881562709808350     
   1.6400000000000026E-002   -0.90095430612564087     
   1.7500000000000016E-002    -1.0379753112792969     
   1.8600000000000005E-002    -1.1918210983276367     
   1.9700000000000023E-002    -1.3645248413085938     
   2.0800000000000013E-002    -1.5573350191116333     
   2.1900000000000003E-002    -1.7705497741699219     
   2.3000000000000020E-002    -2.0045237541198730     
   2.4100000000000010E-002    -2.2606654167175293     
   2.5200000000000000E-002    -2.5415127277374268     
   2.6300000000000018E-002    -2.8489875793457031     
   2.7400000000000008E-002    -3.1833643913269043     
   2.8500000000000025E-002    -3.5428347587585449     
   2.9600000000000015E-002    -3.9253883361816406     
   3.0700000000000005E-002    -4.3298640251159668     
   3.1800000000000023E-002    -4.7561917304992676     
   3.2900000000000013E-002    -5.2042789459228516     
   3.4000000000000002E-002    -5.6722769737243652     
   3.5100000000000020E-002    -6.1562104225158691     
   3.6200000000000010E-002    -6.6509990692138672     
   3.7300000000000028E-002    -7.1508731842041016     
   3.8400000000000017E-002    -7.6500358581542969     
   3.9500000000000007E-002    -8.1419725418090820     
   4.0600000000000025E-002    -8.6189651489257812     
   4.1700000000000015E-002    -9.0721244812011719     
   4.2800000000000005E-002    -9.4916505813598633     
   4.3900000000000022E-002    -9.8685245513916016     
   4.5000000000000012E-002    -10.192399024963379     
   4.6100000000000002E-002    -10.451406478881836     
   4.7200000000000020E-002    -10.632146835327148     
   4.8300000000000010E-002    -10.720479965209961     
   4.9400000000000027E-002    -10.703339576721191     
   5.0500000000000017E-002    -10.569931983947754     
   5.1600000000000007E-002    -10.309309959411621     
   5.2700000000000025E-002    -9.9080953598022461     
   5.3800000000000014E-002    -9.3533620834350586     
   5.4900000000000004E-002    -8.6322584152221680     
   5.6000000000000022E-002    -7.7371025085449219     
   5.7100000000000012E-002    -6.6637768745422363     
   5.8200000000000002E-002    -5.4087252616882324     
   5.9300000000000019E-002    -3.9691255092620850     
   6.0400000000000009E-002    -2.3419551849365234     
   6.1500000000000027E-002   -0.53005921840667725     
   6.2600000000000017E-002     1.4568294286727905     
   6.3700000000000007E-002     3.6083920001983643     
   6.4800000000000024E-002     5.9125027656555176     
   6.5900000000000014E-002     8.3552732467651367     
   6.7000000000000004E-002     10.917613029479980     
   6.8100000000000022E-002     13.574769020080566     
   6.9200000000000012E-002     16.295612335205078     
   7.0300000000000029E-002     19.044397354125977     
   7.1400000000000019E-002     21.790086746215820     
   7.2500000000000009E-002     24.503030776977539     
   7.3600000000000027E-002     27.144351959228516     
   7.4700000000000016E-002     29.674575805664062     
   7.5800000000000006E-002     32.049499511718750     
   7.6900000000000024E-002     34.226036071777344     
   7.8000000000000014E-002     36.165885925292969     
   7.9100000000000004E-002     37.836730957031250     
   8.0200000000000021E-002     39.204441070556641     
   8.1300000000000011E-002     40.232082366943359     
   8.2400000000000029E-002     40.888393402099609     
   8.3500000000000019E-002     41.145092010498047     
   8.4600000000000009E-002     40.984470367431641     
   8.5700000000000026E-002     40.396587371826172     
   8.6800000000000016E-002     39.379402160644531     
   8.7900000000000006E-002     37.932483673095703     
   8.9000000000000024E-002     36.056587219238281     
   9.0100000000000013E-002     33.764411926269531     
   9.1200000000000003E-002     31.076913833618164     
   9.2300000000000021E-002     28.028884887695312     
   9.3400000000000011E-002     24.660766601562500     
   9.4500000000000028E-002     21.012264251708984     
   9.5600000000000018E-002     17.124263763427734     
   9.6700000000000008E-002     13.047020912170410     
   9.7800000000000026E-002     8.8414802551269531     
   9.8900000000000016E-002     4.5754661560058594     
  0.10000000000000001         0.31567403674125671     
  0.10110000000000002         -3.8787550926208496     
  0.10220000000000001         -7.9513173103332520     
  0.10330000000000003         -11.841895103454590     
  0.10440000000000002         -15.485716819763184     
  0.10550000000000001         -18.819168090820312     
  0.10660000000000003         -21.788116455078125     
  0.10770000000000002         -24.352588653564453     
  0.10880000000000001         -26.485151290893555     
  0.10990000000000003         -28.155847549438477     
  0.11100000000000002         -29.334663391113281     
  0.11210000000000001         -29.998750686645508     
  0.11320000000000002         -30.139900207519531     
  0.11430000000000001         -29.775840759277344     
  0.11540000000000003         -28.931432723999023     
  0.11650000000000002         -27.637832641601562     
  0.11760000000000001         -25.916208267211914     
  0.11870000000000003         -23.797567367553711     
  0.11980000000000002         -21.333341598510742     
  0.12090000000000001         -18.593349456787109     
  0.12200000000000003         -15.648320198059082     
  0.12310000000000001         -12.570201873779297     
  0.12420000000000003         -9.4172134399414062     
  0.12530000000000002         -6.2579917907714844     
  0.12640000000000001         -3.1714737415313721     
  0.12750000000000003        -0.24641478061676025     
  0.12860000000000002          2.4329774379730225     
  0.12970000000000001          4.7947254180908203     
  0.13080000000000003          6.7829470634460449     
  0.13190000000000002          8.3493766784667969     
  0.13300000000000001          9.4355688095092773     
  0.13410000000000000          9.9797391891479492     
  0.13520000000000004          9.9306354522705078     
  0.13630000000000003          9.2656879425048828     
  0.13740000000000002          7.9820804595947266     
  0.13850000000000001          6.0871028900146484     
  0.13960000000000000          3.5802290439605713     
  0.14070000000000005         0.46237772703170776     
  0.14180000000000004         -3.2439329624176025     
  0.14290000000000003         -7.4871988296508789     
  0.14400000000000002         -12.196249961853027     
  0.14510000000000001         -17.296857833862305     
  0.14620000000000000         -22.725322723388672     
  0.14730000000000004         -28.411588668823242     
  0.14840000000000003         -34.267166137695312     
  0.14950000000000002         -40.181262969970703     
  0.15060000000000001         -46.031837463378906     
  0.15170000000000000         -51.709728240966797     
  0.15280000000000005         -57.110103607177734     
  0.15390000000000004         -62.140953063964844     
  0.15500000000000003         -66.695663452148438     
  0.15610000000000002         -70.665458679199219     
  0.15720000000000001         -73.939277648925781     
  0.15830000000000000         -76.423187255859375     
  0.15940000000000004         -78.050315856933594     
  0.16050000000000003         -78.763793945312500     
  0.16160000000000002         -78.516433715820312     
  0.16270000000000001         -77.264465332031250     
  0.16380000000000000         -74.970420837402344     
  0.16490000000000005         -71.628082275390625     
  0.16600000000000004         -67.258789062500000     
  0.16710000000000003         -61.904079437255859     
  0.16820000000000002         -55.612083435058594     
  0.16930000000000001         -48.438808441162109     
  0.17040000000000000         -40.456054687500000     
  0.17150000000000004         -31.755966186523438     
  0.17260000000000003         -22.452383041381836     
  0.17370000000000002         -12.670102119445801     
  0.17480000000000001         -2.5380737781524658     
  0.17590000000000000          7.8121767044067383     
  0.17700000000000005          18.241390228271484     
  0.17810000000000004          28.603996276855469     
  0.17920000000000003          38.753890991210938     
  0.18030000000000002          48.551136016845703     
  0.18140000000000001          57.866615295410156     
  0.18250000000000000          66.574378967285156     
  0.18360000000000004          74.556732177734375     
  0.18470000000000003          81.703414916992188     
  0.18580000000000002          87.918746948242188     
  0.18690000000000001          93.132789611816406     
  0.18800000000000000          97.295928955078125     
  0.18910000000000005          100.36830902099609     
  0.19020000000000004          102.31693267822266     
  0.19130000000000003          103.12284851074219     
  0.19240000000000002          102.80260467529297     
  0.19350000000000001          101.39499664306641     
  0.19460000000000005          98.953857421875000     
  0.19570000000000004          95.541206359863281     
  0.19680000000000003          91.214347839355469     
  0.19790000000000002          86.049606323242188     
  0.19900000000000001          80.142143249511719     
  0.20010000000000000          73.611175537109375     
  0.20120000000000005          66.576896667480469     
  0.20230000000000004          59.144111633300781     
  0.20340000000000003          51.415977478027344     
  0.20450000000000002          43.491149902343750     
  0.20560000000000000          35.484039306640625     
  0.20670000000000005          27.516025543212891     
  0.20780000000000004          19.698396682739258     
  0.20890000000000003          12.120887756347656     
