 -0.12000000000000000          0.0000000000000000     
 -0.11889999999999999          0.0000000000000000     
 -0.11780000000000000          0.0000000000000000     
 -0.11670000000000000          0.0000000000000000     
 -0.11559999999999999          0.0000000000000000     
 -0.11449999999999999          0.0000000000000000     
 -0.11340000000000000          0.0000000000000000     
 -0.11230000000000000          0.0000000000000000     
 -0.11119999999999999          0.0000000000000000     
 -0.11009999999999999          0.0000000000000000     
 -0.10900000000000000         -3.5118708534599264E-027
 -0.10790000000000000          7.4505015899488207E-027
 -0.10679999999999999          1.4866711149828651E-025
 -0.10569999999999999          1.3379524686807547E-026
 -0.10460000000000000         -3.3986675817645052E-024
 -0.10349999999999999         -1.0345617315716828E-023
 -0.10239999999999999          1.3728256032748147E-023
 -0.10130000000000000          1.4490426933646273E-022
 -0.10020000000000000          2.4791305738617483E-022
  -9.9099999999999994E-002    -5.4806158090795384E-022
  -9.7999999999999990E-002    -3.1556536472114533E-021
  -9.6899999999999986E-002    -3.9838924693371806E-021
  -9.5799999999999996E-002     9.9147782691359560E-021
  -9.4699999999999993E-002     4.6280629256545455E-020
  -9.3599999999999989E-002     5.5445787212458734E-020
  -9.2499999999999999E-002    -1.0307770324131479E-019
  -9.1399999999999995E-002    -4.9576356570087387E-019
  -9.0299999999999991E-002    -6.5829049399713040E-019
  -8.9200000000000002E-002     6.2556433383238869E-019
  -8.8099999999999984E-002     4.0120319388547099E-018
  -8.6999999999999994E-002     6.3014155843146619E-018
  -8.5899999999999990E-002    -1.2064933814259566E-018
  -8.4799999999999986E-002    -2.4720110626412470E-017
  -8.3699999999999997E-002    -4.7688064118257966E-017
  -8.2599999999999993E-002    -1.8188037382648622E-017
  -8.1499999999999989E-002     1.1289571434871555E-016
  -8.0399999999999999E-002     2.8467167994617251E-016
  -7.9299999999999995E-002     2.3941153320082304E-016
  -7.8199999999999992E-002    -3.3782035040841969E-016
  -7.7100000000000002E-002    -1.3328103659111410E-015
  -7.5999999999999984E-002    -1.6960934796260907E-015
  -7.4899999999999994E-002     2.1442459065241322E-016
  -7.3799999999999991E-002     4.7604301956546274E-015
  -7.2699999999999987E-002     8.5543957984920982E-015
  -7.1599999999999997E-002     4.5954040370904930E-015
  -7.0499999999999993E-002    -1.1735647413438962E-014
  -6.9399999999999989E-002    -3.2586146915579775E-014
  -6.8300000000000000E-002    -3.3624334870238637E-014
  -6.7199999999999996E-002     1.0748075606609175E-014
  -6.6099999999999992E-002     9.2858460178958657E-014
  -6.5000000000000002E-002     1.4520856576622637E-013
  -6.3899999999999985E-002     6.6978073207015626E-014
  -6.2799999999999995E-002    -1.7779596967869987E-013
  -6.1699999999999991E-002    -4.4935799872747317E-013
  -6.0599999999999994E-002    -4.4031071106884201E-013
  -5.9499999999999990E-002     9.8531127918147221E-014
  -5.8399999999999994E-002     1.0039694769981011E-012
  -5.7299999999999990E-002     1.5430286172055108E-012
  -5.6199999999999986E-002     8.0353811712091661E-013
  -5.5099999999999996E-002    -1.3975193615192727E-012
  -5.3999999999999992E-002    -3.7543319147959053E-012
  -5.2899999999999989E-002    -3.8436827505539117E-012
  -5.1799999999999985E-002    -3.7678193898216250E-015
  -5.0699999999999995E-002     6.3580607792546040E-012
  -4.9599999999999991E-002     1.0296534458387185E-011
  -4.8499999999999988E-002     6.3645829058434078E-012
  -4.7399999999999998E-002    -6.0050610317663455E-012
  -4.6299999999999994E-002    -1.9159522926526229E-011
  -4.5199999999999990E-002    -2.0606875580919670E-011
  -4.4099999999999986E-002    -3.1908876582664725E-012
  -4.2999999999999997E-002     2.5028323163978072E-011
  -4.1899999999999993E-002     4.1598349764804254E-011
  -4.0799999999999989E-002     2.5569326170260531E-011
  -3.9699999999999985E-002    -2.0796479122120459E-011
  -3.8599999999999995E-002    -6.4166630342477049E-011
  -3.7499999999999992E-002    -6.0478289043430777E-011
  -3.6399999999999988E-002     4.9022383374897061E-012
  -3.5299999999999984E-002     8.9783194767711905E-011
  -3.4199999999999994E-002     1.1420266815553859E-010
  -3.3099999999999991E-002     2.6430635458041252E-011
  -3.1999999999999987E-002    -1.3146794763940761E-010
  -3.0899999999999997E-002    -2.2548519995613248E-010
  -2.9799999999999993E-002    -1.2559779605236798E-010
  -2.8699999999999989E-002     1.6113654854876813E-010
  -2.7599999999999986E-002     4.3720616016429403E-010
  -2.6499999999999996E-002     4.2555001189548136E-010
  -2.5399999999999992E-002     1.9730606037882126E-012
  -2.4299999999999988E-002    -6.2626381858166269E-010
  -2.3199999999999985E-002    -9.8277730398166341E-010
  -2.2099999999999995E-002    -6.5148864081265856E-010
  -2.0999999999999991E-002     3.3807007193686900E-010
  -1.9899999999999987E-002     1.3964049916381782E-009
  -1.8799999999999983E-002     1.7088310766411041E-009
  -1.7699999999999994E-002     8.4759321783423047E-010
  -1.6599999999999990E-002    -7.9630091409654824E-010
  -1.5499999999999986E-002    -2.1671795469302424E-009
  -1.4399999999999996E-002    -2.2689203849068917E-009
  -1.3299999999999992E-002    -9.4884933243832847E-010
  -1.2199999999999989E-002     9.1021318260331441E-010
  -1.1099999999999985E-002     2.0334469663652044E-009
  -9.9999999999999950E-003     1.7817649577978045E-009
  -8.8999999999999913E-003     7.0268629803749150E-010
  -7.7999999999999875E-003     4.1354128454962336E-011
  -6.6999999999999837E-003     5.1423287850127508E-010
  -5.5999999999999939E-003     1.3975052226555817E-009
  -4.4999999999999901E-003     9.0618812453868713E-010
  -3.3999999999999864E-003    -2.1602564181932848E-009
  -2.2999999999999826E-003    -6.7382988078179551E-009
  -1.1999999999999927E-003    -9.3902920994537453E-009
  -9.9999999999988987E-005    -6.3898832891595703E-009
   1.0000000000000148E-003     3.1325733118592325E-009
   2.1000000000000185E-003     1.5321143465030218E-008
   3.2000000000000084E-003     2.2865327409249403E-008
   4.3000000000000121E-003     1.9207622159456150E-008
   5.4000000000000159E-003     3.2063924848557690E-009
   6.5000000000000058E-003    -1.8974111171132790E-008
   7.6000000000000234E-003    -3.6429870675647180E-008
   8.7000000000000133E-003    -3.9304243415472229E-008
   9.8000000000000032E-003    -2.4306928025907837E-008
   1.0900000000000021E-002     3.4347795718758789E-009
   1.2000000000000011E-002     3.3145827416092288E-008
   1.3100000000000001E-002     5.3699501734172372E-008
   1.4200000000000018E-002     5.7952156851115433E-008
   1.5300000000000008E-002     4.3914010205980958E-008
   1.6400000000000026E-002     1.3429014344978896E-008
   1.7500000000000016E-002    -2.8948544894547013E-008
   1.8600000000000005E-002    -7.4919547898844030E-008
   1.9700000000000023E-002    -1.1037485592169105E-007
   2.0800000000000013E-002    -1.1622007889400265E-007
   2.1900000000000003E-002    -7.5495854900964332E-008
   2.3000000000000020E-002     1.4368204404036078E-008
   2.4100000000000010E-002     1.3117337971380039E-007
   2.5200000000000000E-002     2.2874910143855232E-007
   2.6300000000000018E-002     2.5367776856910496E-007
   2.7400000000000008E-002     1.7271818819608598E-007
   2.8500000000000025E-002    -3.4907472468148626E-009
   2.9600000000000015E-002    -2.1610040334962832E-007
   3.0700000000000005E-002    -3.7936982266728592E-007
   3.1800000000000023E-002    -4.1872723954838875E-007
   3.2900000000000013E-002    -3.0559621677639370E-007
   3.4000000000000002E-002    -7.0180732336666551E-008
   3.5100000000000020E-002     2.1321265819551627E-007
   3.6200000000000010E-002     4.5721085939476325E-007
   3.7300000000000028E-002     5.8985330042560236E-007
   3.8400000000000017E-002     5.6800951142577105E-007
   3.9500000000000007E-002     3.7815158293597051E-007
   4.0600000000000025E-002     3.7288771181920310E-008
   4.1700000000000015E-002    -3.9714564081805293E-007
   4.2800000000000005E-002    -8.1578184563113609E-007
   4.3900000000000022E-002    -1.0655561482053599E-006
   4.5000000000000012E-002    -9.9562703326228075E-007
   4.6100000000000002E-002    -5.3458512638826505E-007
   4.7200000000000020E-002     2.3821417016733903E-007
   4.8300000000000010E-002     1.0778541081890580E-006
   4.9400000000000027E-002     1.6464325653942069E-006
   5.0500000000000017E-002     1.6563972167205065E-006
   5.1600000000000007E-002     1.0199449889114476E-006
   5.2700000000000025E-002    -7.6798869486083277E-008
   5.3800000000000014E-002    -1.2256837180757429E-006
   5.4900000000000004E-002    -1.9612889445852488E-006
   5.6000000000000022E-002    -1.9634926502476446E-006
   5.7100000000000012E-002    -1.2000723472738173E-006
   5.8200000000000002E-002     5.7819022458716063E-008
   5.9300000000000019E-002     1.3481993619279820E-006
   6.0400000000000009E-002     2.1968835426378064E-006
   6.1500000000000027E-002     2.2767628706787946E-006
   6.2600000000000017E-002     1.4885144992149435E-006
   6.3700000000000007E-002    -4.1909117953764508E-008
   6.4800000000000024E-002    -2.0088173187104985E-006
   6.5900000000000014E-002    -3.9690999074082356E-006
   6.7000000000000004E-002    -5.3680187193094753E-006
   6.8100000000000022E-002    -5.5780446928110905E-006
   6.9200000000000012E-002    -3.9955230022314936E-006
   7.0300000000000029E-002    -2.0869379113719333E-007
   7.1400000000000019E-002     5.8115938372793607E-006
   7.2500000000000009E-002     1.3598340956377797E-005
   7.3600000000000027E-002     2.2251157133723609E-005
   7.4700000000000016E-002     3.0709932616446167E-005
   7.5800000000000006E-002     3.8173620851011947E-005
   7.6900000000000024E-002     4.4513955799629912E-005
   7.8000000000000014E-002     5.0511785957496613E-005
   7.9100000000000004E-002     5.7800538343144581E-005
   8.0200000000000021E-002     6.8513734731823206E-005
   8.1300000000000011E-002     8.4754879935644567E-005
   8.2400000000000029E-002     1.0808869410539046E-004
   8.3500000000000019E-002     1.3925916573498398E-004
   8.4600000000000009E-002     1.7826473049353808E-004
   8.5700000000000026E-002     2.2478876053355634E-004
   8.6800000000000016E-002     2.7883818256668746E-004
   8.7900000000000006E-002     3.4135053283534944E-004
   8.9000000000000024E-002     4.1453470475971699E-004
   9.0100000000000013E-002     5.0182628910988569E-004
   9.1200000000000003E-002     6.0751783894374967E-004
   9.2300000000000021E-002     7.3627749225124717E-004
   9.3400000000000011E-002     8.9281337568536401E-004
   9.4500000000000028E-002     1.0818511946126819E-003
   9.5600000000000018E-002     1.3084049569442868E-003
   9.6700000000000008E-002     1.5781548572704196E-003
   9.7800000000000026E-002     1.8977181753143668E-003
   9.8900000000000016E-002     2.2746983449906111E-003
  0.10000000000000001          2.7175780851393938E-003
  0.10110000000000002          3.2356674782931805E-003
  0.10220000000000001          3.8392874412238598E-003
  0.10330000000000003          4.5402063988149166E-003
  0.10440000000000002          5.3521441295742989E-003
  0.10550000000000001          6.2910332344472408E-003
  0.10660000000000003          7.3748445138335228E-003
  0.10770000000000002          8.6230142042040825E-003
  0.10880000000000001          1.0055728256702423E-002
  0.10990000000000003          1.1693509295582771E-002
  0.11100000000000002          1.3557337224483490E-002
  0.11210000000000001          1.5669202432036400E-002
  0.11320000000000002          1.8052730709314346E-002
  0.11430000000000001          2.0733479410409927E-002
  0.11540000000000003          2.3738551884889603E-002
  0.11650000000000002          2.7095708996057510E-002
  0.11760000000000001          3.0832299962639809E-002
  0.11870000000000003          3.4974444657564163E-002
  0.11980000000000002          3.9546754211187363E-002
  0.12090000000000001          4.4572211802005768E-002
  0.12200000000000003          5.0071969628334045E-002
  0.12310000000000001          5.6064784526824951E-002
  0.12420000000000003          6.2566012144088745E-002
  0.12530000000000002          6.9586351513862610E-002
  0.12640000000000001          7.7130556106567383E-002
  0.12750000000000003          8.5196606814861298E-002
  0.12860000000000002          9.3775242567062378E-002
  0.12970000000000001         0.10284924507141113     
  0.13080000000000003         0.11239229142665863     
  0.13190000000000002         0.12236763536930084     
  0.13300000000000001         0.13272655010223389     
  0.13410000000000000         0.14340703189373016     
  0.13520000000000004         0.15433326363563538     
  0.13630000000000003         0.16541594266891479     
  0.13740000000000002         0.17655248939990997     
  0.13850000000000001         0.18762698769569397     
  0.13960000000000000         0.19851057231426239     
  0.14070000000000005         0.20906111598014832     
  0.14180000000000004         0.21912272274494171     
  0.14290000000000003         0.22852638363838196     
  0.14400000000000002         0.23709174990653992     
  0.14510000000000001         0.24462892115116119     
  0.14620000000000000         0.25094076991081238     
  0.14730000000000004         0.25582563877105713     
  0.14840000000000003         0.25907930731773376     
  0.14950000000000002         0.26049897074699402     
  0.15060000000000001         0.25988596677780151     
  0.15170000000000000         0.25704887509346008     
  0.15280000000000005         0.25180917978286743     
  0.15390000000000004         0.24400478601455688     
  0.15500000000000003         0.23349350690841675     
  0.15610000000000002         0.22015611827373505     
  0.15720000000000001         0.20390072464942932     
  0.15830000000000000         0.18466624617576599     
  0.15940000000000004         0.16242647171020508     
  0.16050000000000003         0.13719502091407776     
  0.16160000000000002         0.10902766883373260     
  0.16270000000000001          7.8024685382843018E-002
  0.16380000000000000          4.4332437217235565E-002
  0.16490000000000005          8.1431828439235687E-003
  0.16600000000000004         -3.0306177213788033E-002
  0.16710000000000003         -7.0735402405261993E-002
  0.16820000000000002        -0.11282142251729965     
  0.16930000000000001        -0.15619990229606628     
  0.17040000000000000        -0.20046816766262054     
  0.17150000000000004        -0.24518907070159912     
  0.17260000000000003        -0.28989744186401367     
  0.17370000000000002        -0.33410656452178955     
  0.17480000000000001        -0.37731409072875977     
  0.17590000000000000        -0.41901019215583801     
  0.17700000000000005        -0.45868584513664246     
  0.17810000000000004        -0.49584028124809265     
  0.17920000000000003        -0.52998828887939453     
  0.18030000000000002        -0.56066757440567017     
  0.18140000000000001        -0.58744722604751587     
  0.18250000000000000        -0.60993582010269165     
  0.18360000000000004        -0.62778890132904053     
  0.18470000000000003        -0.64071619510650635     
  0.18580000000000002        -0.64848715066909790     
  0.18690000000000001        -0.65093499422073364     
  0.18800000000000000        -0.64796036481857300     
  0.18910000000000005        -0.63953381776809692     
  0.19020000000000004        -0.62569731473922729     
  0.19130000000000003        -0.60656374692916870     
  0.19240000000000002        -0.58231633901596069     
  0.19350000000000001        -0.55320739746093750     
  0.19460000000000005        -0.51955348253250122     
  0.19570000000000004        -0.48172986507415771     
  0.19680000000000003        -0.44016501307487488     
  0.19790000000000002        -0.39533361792564392     
  0.19900000000000001        -0.34774768352508545     
  0.20010000000000000        -0.29794999957084656     
  0.20120000000000005        -0.24650551378726959     
  0.20230000000000004        -0.19399276375770569     
  0.20340000000000003        -0.14099517464637756     
  0.20450000000000002         -8.8089361786842346E-002
  0.20560000000000000         -3.5837084054946899E-002
  0.20670000000000005          1.5222733840346336E-002
  0.20780000000000004          6.4581006765365601E-002
  0.20890000000000003         0.11176615953445435     
