 -0.12000000000000000          0.0000000000000000     
 -0.11889999999999999          0.0000000000000000     
 -0.11780000000000000          0.0000000000000000     
 -0.11670000000000000          0.0000000000000000     
 -0.11559999999999999          0.0000000000000000     
 -0.11449999999999999          0.0000000000000000     
 -0.11340000000000000         -5.7896066934206015E-023
 -0.11230000000000000          8.2501895696787933E-022
 -0.11119999999999999         -8.9738898068220805E-022
 -0.11009999999999999         -5.6448662925822585E-021
 -0.10900000000000000         -1.3287147582281334E-020
 -0.10790000000000000          1.4502965757827904E-020
 -0.10679999999999999          4.4145750412554249E-020
 -0.10569999999999999          1.2195806194874643E-019
 -0.10460000000000000          3.2204687412012382E-019
 -0.10349999999999999          2.3311852177153192E-019
 -0.10239999999999999         -1.1749137969877900E-018
 -0.10130000000000000         -3.2054446080366493E-018
 -0.10020000000000000         -2.1383044832511230E-018
  -9.9099999999999994E-002     2.1302568430715946E-018
  -9.7999999999999990E-002     1.0193095225584744E-017
  -9.6899999999999986E-002     1.8730217878230179E-017
  -9.5799999999999996E-002     1.8730217878230179E-017
  -9.4699999999999993E-002    -1.3046850140919213E-017
  -9.3599999999999989E-002    -6.4743869913333805E-017
  -9.2499999999999999E-002    -1.0837805088964494E-016
  -9.1399999999999995E-002    -1.0553234444167061E-016
  -9.0299999999999991E-002    -2.1109688937022669E-017
  -8.9200000000000002E-002     2.8243244247098736E-016
  -8.8099999999999984E-002     6.3150589028147645E-016
  -8.6999999999999994E-002     5.8597453417432799E-016
  -8.5899999999999990E-002    -5.1463948399937975E-017
  -8.4799999999999986E-002    -1.1442156214687741E-015
  -8.3699999999999997E-002    -1.9941336688205410E-015
  -8.2599999999999993E-002    -2.1155505478535246E-015
  -8.1499999999999989E-002    -7.7996509024894165E-016
  -8.0399999999999999E-002     2.3768731293339219E-015
  -7.9299999999999995E-002     6.0193786532904830E-015
  -7.8199999999999992E-002     7.2335470201038456E-015
  -7.7100000000000002E-002     1.7697889459272406E-015
  -7.5999999999999984E-002    -7.5793084102718927E-015
  -7.4899999999999994E-002    -1.3407317756822159E-014
  -7.3799999999999991E-002    -1.2921650240690224E-014
  -7.2699999999999987E-002    -5.6366387692606285E-015
  -7.1599999999999997E-002     6.0193786532904830E-015
  -7.0499999999999993E-002     2.2046404144545478E-014
  -6.9399999999999989E-002     3.4127380961349388E-014
  -6.8300000000000000E-002     2.9695667311865209E-014
  -6.7199999999999996E-002     6.3836316197300388E-015
  -6.6099999999999992E-002    -2.0388784383691336E-014
  -6.5000000000000002E-002    -3.1619841564956702E-014
  -6.3899999999999985E-002    -3.2591174903154677E-014
  -6.2799999999999995E-002    -4.1333188499463602E-014
  -6.1699999999999991E-002    -7.1444566029314066E-014
  -6.0599999999999994E-002    -5.7845878965751690E-014
  -5.9499999999999990E-002     3.5402263802788991E-014
  -5.8399999999999994E-002     1.8765899749938197E-013
  -5.7299999999999990E-002     3.2437437067975305E-013
  -5.6199999999999986E-002     3.1660370397416926E-013
  -5.5099999999999996E-002     8.3483350440949344E-014
  -5.3999999999999992E-002    -3.2836260837124098E-013
  -5.2899999999999989E-002    -7.4409385987864174E-013
  -5.1799999999999985E-002    -9.2670478495787689E-013
  -5.0699999999999995E-002    -6.2559094189673647E-013
  -4.9599999999999991E-002     1.8838763556940086E-013
  -4.8499999999999988E-002     1.2568559474429586E-012
  -4.7399999999999998E-002     2.0795765283410095E-012
  -4.6299999999999994E-002     1.9581597628104408E-012
  -4.5199999999999990E-002     4.7784551922974705E-013
  -4.4099999999999986E-002    -1.9699181522114806E-012
  -4.2999999999999997E-002    -4.0738293814734927E-012
  -4.1899999999999993E-002    -4.2214721301947478E-012
  -4.0799999999999989E-002    -1.8067336906082976E-012
  -3.9699999999999985E-002     2.0319815708519373E-012
  -3.8599999999999995E-002     5.1169411589835345E-012
  -3.7499999999999992E-002     5.8007609132770810E-012
  -3.6399999999999988E-002     3.9435689956623943E-012
  -3.5299999999999984E-002     8.8192181422336313E-013
  -3.4199999999999994E-002    -1.9155224281752758E-012
  -3.3099999999999991E-002    -4.2778085761197016E-012
  -3.1999999999999987E-002    -6.7488844374130608E-012
  -3.0899999999999997E-002    -8.8469674294766598E-012
  -2.9799999999999993E-002    -7.6036590218597766E-012
  -2.8699999999999989E-002     8.9312671841534907E-014
  -2.7599999999999986E-002     1.2973098290069984E-011
  -2.6499999999999996E-002     2.3292558853915679E-011
  -2.5399999999999992E-002     1.9811294965643711E-011
  -2.4299999999999988E-002    -2.0087690191794572E-012
  -2.3199999999999985E-002    -2.9983210358963674E-011
  -2.2099999999999995E-002    -4.0116174271354055E-011
  -2.0999999999999991E-002    -1.5902740929663040E-011
  -1.9899999999999987E-002     2.9944262347481043E-011
  -1.8799999999999983E-002     5.3567122959563562E-011
  -1.7699999999999994E-002     1.4962388966699436E-011
  -1.6599999999999990E-002    -7.8845242834635343E-011
  -1.5499999999999986E-002    -1.5456273760872108E-010
  -1.4399999999999996E-002    -1.1701481450465678E-010
  -1.3299999999999992E-002     4.9837196869351175E-011
  -1.2199999999999989E-002     2.3882010258269304E-010
  -1.1099999999999985E-002     2.7015148451603466E-010
  -9.9999999999999950E-003     4.1382716697846433E-011
  -8.8999999999999913E-003    -3.2663660665122052E-010
  -7.7999999999999875E-003    -5.3949100742300971E-010
  -6.6999999999999837E-003    -3.2216065926071735E-010
  -5.5999999999999939E-003     3.0745081480709757E-010
  -4.4999999999999901E-003     9.3109442378391805E-010
  -3.3999999999999864E-003     9.6690166984103598E-010
  -2.2999999999999826E-003     1.6024309656970104E-010
  -1.1999999999999927E-003    -1.0701349806296889E-009
  -9.9999999999988987E-005    -1.8797774448131577E-009
   1.0000000000000148E-003    -1.6191799012688080E-009
   2.1000000000000185E-003    -3.2414970707606017E-010
   3.2000000000000084E-003     1.2414245187386541E-009
   4.3000000000000121E-003     1.9496131375973391E-009
   5.4000000000000159E-003     1.2334673282765607E-009
   6.5000000000000058E-003    -7.9466544455897292E-011
   7.6000000000000234E-003    -5.3302551261680264E-010
   8.7000000000000133E-003     4.4570697133039516E-010
   9.8000000000000032E-003     2.0053132487873881E-009
   1.0900000000000021E-002     2.4190864866824313E-009
   1.2000000000000011E-002     6.5259364578906798E-010
   1.3100000000000001E-002    -1.4481005283784043E-009
   1.4200000000000018E-002    -8.7518392533070255E-010
   1.5300000000000008E-002     2.5145725501829475E-009
   1.6400000000000026E-002     5.4746411848327625E-009
   1.7500000000000016E-002     2.6418867093980225E-009
   1.8600000000000005E-002    -7.4796400184595768E-009
   1.9700000000000023E-002    -1.7728481793710671E-008
   2.0800000000000013E-002    -1.8619685349108295E-008
   2.1900000000000003E-002    -5.5062612247525067E-009
   2.3000000000000020E-002     1.5309709056054999E-008
   2.4100000000000010E-002     2.7913873879015227E-008
   2.5200000000000000E-002     2.2948597688809969E-008
   2.6300000000000018E-002     4.6152672794619320E-009
   2.7400000000000008E-002    -1.1681026812482287E-008
   2.8500000000000025E-002    -1.2572230367879911E-008
   2.9600000000000015E-002     2.3236008672711250E-009
   3.0700000000000005E-002     2.1802765814982195E-008
   3.1800000000000023E-002     2.6640726957793959E-008
   3.2900000000000013E-002     1.0853691279066879E-008
   3.4000000000000002E-002    -1.5373156969644697E-008
   3.5100000000000020E-002    -3.7271302488761648E-008
   3.6200000000000010E-002    -3.0650934235154637E-008
   3.7300000000000028E-002    -1.1139018596395545E-009
   3.8400000000000017E-002     1.6200910835095783E-008
   3.9500000000000007E-002     2.4509123619509410E-009
   4.0600000000000025E-002    -3.8289826420623285E-008
   4.1700000000000015E-002    -6.5789819814199291E-008
   4.2800000000000005E-002    -5.8150931181444321E-008
   4.3900000000000022E-002    -3.8289822867909606E-008
   4.5000000000000012E-002    -6.2064930972383081E-009
   4.6100000000000002E-002     3.2497204927040002E-008
   4.7200000000000020E-002     1.3145356803079267E-008
   4.8300000000000010E-002    -4.4910187568802939E-008
   4.9400000000000027E-002    -7.3428701341526903E-008
   5.0500000000000017E-002    -5.9169440902451242E-008
   5.1600000000000007E-002     1.9256475525253336E-008
   5.2700000000000025E-002     1.3944165289103694E-007
   5.3800000000000014E-002     2.5249718760278483E-007
   5.4900000000000004E-002     3.1157122748481925E-007
   5.6000000000000022E-002     2.2805269850323384E-007
   5.7100000000000012E-002     1.0089749480357568E-008
   5.8200000000000002E-002    -1.4676209048047895E-007
   5.9300000000000019E-002    -1.6916949618916988E-007
   6.0400000000000009E-002    -1.8546579383382777E-007
   6.1500000000000027E-002    -2.7305839012115030E-007
   6.2600000000000017E-002    -2.8528063467092579E-007
   6.3700000000000007E-002    -8.3613997503562132E-008
   6.4800000000000024E-002     2.3823780281873042E-007
   6.5900000000000014E-002     4.4194149495524471E-007
   6.7000000000000004E-002     2.9731188533332897E-007
   6.8100000000000022E-002    -1.9972506493104447E-007
   6.9200000000000012E-002    -6.7842870521417353E-007
   7.0300000000000029E-002    -7.7213235272211023E-007
   7.1400000000000019E-002    -4.6861384817020735E-007
   7.2500000000000009E-002     8.1386090755586338E-008
   7.3600000000000027E-002     6.2527493582820171E-007
   7.4700000000000016E-002     8.0046009998113732E-007
   7.5800000000000006E-002     4.5008977167526609E-007
   7.6900000000000024E-002    -1.0805831607285654E-007
   7.8000000000000014E-002    -3.6268792769078573E-007
   7.9100000000000004E-002    -2.3842869723011972E-007
   8.0200000000000021E-002    -1.0602131084169741E-007
   8.1300000000000011E-002    -3.7694718457714771E-007
   8.2400000000000029E-002    -7.2731751288301894E-007
   8.3500000000000019E-002    -4.3602125288089155E-007
   8.4600000000000009E-002     4.6333053660418955E-007
   8.5700000000000026E-002     1.2791637118425569E-006
   8.6800000000000016E-002     1.3677747574547539E-006
   8.7900000000000006E-002     6.5022857143048896E-007
   8.9000000000000024E-002    -3.5428513456281507E-007
   9.0100000000000013E-002    -8.9387702928434010E-007
   9.1200000000000003E-002    -7.5589957759802928E-007
   9.2300000000000021E-002    -2.6751999371299462E-007
   9.3400000000000011E-002    -4.6501501316242866E-008
   9.4500000000000028E-002    -4.0705700143917056E-007
   9.5600000000000018E-002    -7.1261251832765993E-007
   9.6700000000000008E-002    -1.9113110738544492E-007
   9.7800000000000026E-002     1.0046094303106656E-006
   9.8900000000000016E-002     1.6849796793394489E-006
  0.10000000000000001          8.7423910599682131E-007
  0.10110000000000002         -6.9835323301958852E-007
  0.10220000000000001         -1.5498345646847156E-006
  0.10330000000000003         -1.0120568276761333E-006
  0.10440000000000002          3.8127626567074913E-007
  0.10550000000000001          1.1960909205299686E-006
  0.10660000000000003          5.3609102224072558E-007
  0.10770000000000002         -8.4909390807297314E-007
  0.10880000000000001         -1.2890938023701892E-006
  0.10990000000000003         -2.2168654822962708E-007
  0.11100000000000002          1.2449798987290706E-006
  0.11210000000000001          1.5953502270349418E-006
  0.11320000000000002         -6.6871734816231765E-008
  0.11430000000000001         -2.2831677597423550E-006
  0.11540000000000003         -2.5276121959905140E-006
  0.11650000000000002         -4.7427909066755092E-007
  0.11760000000000001          2.4916464553825790E-006
  0.11870000000000003          4.0560908018960617E-006
  0.11980000000000002          3.1434983611688949E-006
  0.12090000000000001          5.3609130645781988E-007
  0.12200000000000003         -1.6965009308478329E-006
  0.12310000000000001         -2.5276119686168386E-006
  0.12420000000000003         -2.9350192107813200E-006
  0.12530000000000002         -3.1794634196558036E-006
  0.12640000000000001         -2.7557596240512794E-006
  0.12750000000000003         -1.2076116036041640E-006
  0.12860000000000002          8.7831404016469605E-007
  0.12970000000000001          3.0620174129580846E-006
  0.13080000000000003          5.0012763495033141E-006
  0.13190000000000002          4.3983136492897756E-006
  0.13300000000000001          8.6201794147200417E-007
  0.13410000000000000         -2.9024258765275590E-006
  0.13520000000000004         -4.8416850404464640E-006
  0.13630000000000003         -3.2609445952402893E-006
  0.13740000000000002         -1.1575980352063198E-007
  0.13850000000000001          2.3368324946204666E-006
  0.13960000000000000          3.6160915897198720E-006
  0.14070000000000005          2.4672026484040543E-006
  0.14180000000000004         -3.7650056583515834E-007
  0.14290000000000003         -2.7068704184785020E-006
  0.14400000000000002         -2.7842777399200713E-006
  0.14510000000000001         -1.2855277873313753E-006
  0.14620000000000000          8.5692562379335868E-007
  0.14730000000000004          2.3358143153018318E-006
  0.14840000000000003          2.2706290110363625E-006
  0.14950000000000002          1.9284068457636749E-006
  0.15060000000000001          1.6676660834491486E-006
  0.15170000000000000          1.5209993762255181E-006
  0.15280000000000005          1.0321105037292000E-006
  0.15390000000000004         -1.3308522284205537E-006
  0.15500000000000003         -5.0464072955946904E-006
  0.15610000000000002         -6.5130739130836446E-006
  0.15720000000000001         -3.6449262097448809E-006
  0.15830000000000000          1.6024805518100038E-006
  0.15940000000000004          4.6661839405715000E-006
  0.16050000000000003          2.8084064069844317E-006
  0.16160000000000002         -1.5590005659760209E-006
  0.16270000000000001         -3.7752965909021441E-006
  0.16380000000000000         -1.7871486761578126E-006
  0.16490000000000005          2.2869248823553789E-006
  0.16600000000000004          4.2424803723406512E-006
  0.16710000000000003          2.2217400328372605E-006
  0.16820000000000002         -1.1027040045519243E-006
  0.16930000000000001         -1.7219632582055056E-006
  0.17040000000000000          1.2765547126036836E-006
  0.17150000000000004          3.3950727811316028E-006
  0.17260000000000003          1.0484063750482164E-006
  0.17370000000000002         -4.4923335735802539E-006
  0.17480000000000001         -8.6641848611179739E-006
  0.17590000000000000         -6.5782596720964648E-006
  0.17700000000000005          8.8544288701086771E-007
  0.17810000000000004          9.0335897766635753E-006
  0.17920000000000003          1.2374330253805965E-005
  0.18030000000000002          6.9476645876420662E-006
  0.18140000000000001         -2.8790009309886955E-006
  0.18250000000000000         -9.3649259724770673E-006
  0.18360000000000004         -1.0163444130739663E-005
  0.18470000000000003         -7.0427040554932319E-006
  0.18580000000000002         -2.0873576431768015E-006
  0.18690000000000001          1.9594704099290539E-006
  0.18800000000000000          4.3753957470471505E-006
  0.18910000000000005          6.7709506765822880E-006
  0.19020000000000004          9.7694683063309640E-006
  0.19130000000000003          1.0967245543724857E-005
  0.19240000000000002          5.4753945732954890E-006
  0.19350000000000001         -5.9157146097277291E-006
  0.19460000000000005         -1.3770528312306851E-005
  0.19570000000000004         -1.0820898751262575E-005
  0.19680000000000003         -1.1571964932954870E-006
  0.19790000000000002          5.1820616135955788E-006
  0.19900000000000001          3.3731732855812879E-006
  0.20010000000000000         -1.7601591935090255E-006
  0.20120000000000005         -1.7275665413762908E-006
  0.20230000000000004          5.7524325711710844E-006
  0.20340000000000003          1.2613172657438554E-005
  0.20450000000000002          8.3109498518751934E-006
  0.20560000000000000         -7.5942330113321077E-006
  0.20670000000000005         -2.2798674763180315E-005
  0.20780000000000004         -2.2733489458914846E-005
  0.20890000000000003         -5.3779367590323091E-006
