 -0.12000000000000000          0.0000000000000000     
 -0.11889999999999999          0.0000000000000000     
 -0.11780000000000000          0.0000000000000000     
 -0.11670000000000000          0.0000000000000000     
 -0.11559999999999999          0.0000000000000000     
 -0.11449999999999999          0.0000000000000000     
 -0.11340000000000000          0.0000000000000000     
 -0.11230000000000000         -1.8630548215270437E-009
 -0.11119999999999999          1.3848168833874297E-008
 -0.11009999999999999          1.7766276982911222E-007
 -0.10900000000000000          6.5707007479431923E-007
 -0.10790000000000000          7.9446942891081562E-007
 -0.10679999999999999         -2.1306154849298764E-006
 -0.10569999999999999         -1.0857414963538758E-005
 -0.10460000000000000         -1.8919299691333435E-005
 -0.10349999999999999         -1.9576445993152447E-006
 -0.10239999999999999          6.5257976530119777E-005
 -0.10130000000000000          1.5178756439127028E-004
 -0.10020000000000000          1.2511393288150430E-004
  -9.9099999999999994E-002    -1.6562569362577051E-004
  -9.7999999999999990E-002    -6.3679798040539026E-004
  -9.6899999999999986E-002    -7.7544845407828689E-004
  -9.5799999999999996E-002     6.6811728174798191E-005
  -9.4699999999999993E-002     1.7800618661567569E-003
  -9.3599999999999989E-002     2.7844090946018696E-003
  -9.2499999999999999E-002     8.5945619503036141E-004
  -9.1399999999999995E-002    -4.1549536399543285E-003
  -9.0299999999999991E-002    -8.0466521903872490E-003
  -8.9200000000000002E-002    -4.1581257246434689E-003
  -8.8099999999999984E-002     9.3412529677152634E-003
  -8.6999999999999994E-002     2.2511675953865051E-002
  -8.5899999999999990E-002     1.7049193382263184E-002
  -8.4799999999999986E-002    -1.6130281612277031E-002
  -8.3699999999999997E-002    -5.7525303214788437E-002
  -8.2599999999999993E-002    -6.1909154057502747E-002
  -8.1499999999999989E-002     4.2401477694511414E-003
  -8.0399999999999999E-002    0.11382687091827393     
  -7.9299999999999995E-002    0.17112594842910767     
  -7.8199999999999992E-002     7.9748734831809998E-002
  -7.7100000000000002E-002   -0.14843116700649261     
  -7.5999999999999984E-002   -0.34624710679054260     
  -7.4899999999999994E-002   -0.29256814718246460     
  -7.3799999999999991E-002     7.6296202838420868E-002
  -7.2699999999999987E-002    0.52554023265838623     
  -7.1599999999999997E-002    0.63705718517303467     
  -7.0499999999999993E-002    0.16804146766662598     
  -6.9399999999999989E-002   -0.62898182868957520     
  -6.8300000000000000E-002    -1.0782462358474731     
  -6.7199999999999996E-002   -0.61675268411636353     
  -6.6099999999999992E-002    0.59690296649932861     
  -6.5000000000000002E-002     1.6045403480529785     
  -6.3899999999999985E-002     1.3548835515975952     
  -6.2799999999999995E-002   -0.27972519397735596     
  -6.1699999999999991E-002    -2.1120712757110596     
  -6.0599999999999994E-002    -2.4445023536682129     
  -5.9499999999999990E-002   -0.58805322647094727     
  -5.8399999999999994E-002     2.2282452583312988     
  -5.7299999999999990E-002     3.6015727519989014     
  -5.6199999999999986E-002     1.9984416961669922     
  -5.5099999999999996E-002    -1.6214948892593384     
  -5.3999999999999992E-002    -4.2654886245727539     
  -5.2899999999999989E-002    -3.3971910476684570     
  -5.1799999999999985E-002    0.59823071956634521     
  -5.0699999999999995E-002     4.3638801574707031     
  -4.9599999999999991E-002     4.3618288040161133     
  -4.8499999999999988E-002    0.22152924537658691     
  -4.7399999999999998E-002    -4.5213332176208496     
  -4.6299999999999994E-002    -5.3594207763671875     
  -4.5199999999999990E-002    -1.0382668972015381     
  -4.4099999999999986E-002     4.8755464553833008     
  -4.2999999999999997E-002     6.9071421623229980     
  -4.1899999999999993E-002     2.7216479778289795     
  -4.0799999999999989E-002    -4.3695244789123535     
  -3.9699999999999985E-002    -8.0995502471923828     
  -3.8599999999999995E-002    -4.9572701454162598     
  -3.7499999999999992E-002     2.3840234279632568     
  -3.6399999999999988E-002     7.3785734176635742     
  -3.5299999999999984E-002     5.7139420509338379     
  -3.4199999999999994E-002   -0.58923071622848511     
  -3.3099999999999991E-002    -5.1980843544006348     
  -3.1999999999999987E-002    -3.7969934940338135     
  -3.0899999999999997E-002     1.5360268354415894     
  -2.9799999999999993E-002     4.4845633506774902     
  -2.8699999999999989E-002     1.2376329898834229     
  -2.7599999999999986E-002    -5.0682930946350098     
  -2.6499999999999996E-002    -7.1711459159851074     
  -2.5399999999999992E-002    -1.3797810077667236     
  -2.4299999999999988E-002     7.7220306396484375     
  -2.3199999999999985E-002     11.035396575927734     
  -2.2099999999999995E-002     4.1342816352844238     
  -2.0999999999999991E-002    -7.3401803970336914     
  -1.9899999999999987E-002    -12.324645996093750     
  -1.8799999999999983E-002    -5.2924656867980957     
  -1.7699999999999994E-002     7.3401637077331543     
  -1.6599999999999990E-002     12.656031608581543     
  -1.5499999999999986E-002     4.1412620544433594     
  -1.4399999999999996E-002    -10.681602478027344     
  -1.3299999999999992E-002    -16.497859954833984     
  -1.2199999999999989E-002    -5.3411502838134766     
  -1.1099999999999985E-002     14.160498619079590     
  -9.9999999999999950E-003     23.642921447753906     
  -8.8999999999999913E-003     12.564125061035156     
  -7.7999999999999875E-003    -10.448438644409180     
  -6.6999999999999837E-003    -24.525796890258789     
  -5.5999999999999939E-003    -16.221700668334961     
  -4.4999999999999901E-003     6.9459147453308105     
  -3.3999999999999864E-003     23.002954483032227     
  -2.2999999999999826E-003     16.628734588623047     
  -1.1999999999999927E-003    -5.5835590362548828     
  -9.9999999999988987E-005    -21.216758728027344     
   1.0000000000000148E-003    -14.056638717651367     
   2.1000000000000185E-003     9.6486320495605469     
   3.2000000000000084E-003     27.238174438476562     
   4.3000000000000121E-003     22.280147552490234     
   5.4000000000000159E-003     1.0339708328247070     
   6.5000000000000058E-003    -14.228386878967285     
   7.6000000000000234E-003    -8.3420295715332031     
   8.7000000000000133E-003     11.073887825012207     
   9.8000000000000032E-003     22.039974212646484     
   1.0900000000000021E-002     12.228556632995605     
   1.2000000000000011E-002    -6.9146637916564941     
   1.3100000000000001E-002    -11.786743164062500     
   1.4200000000000018E-002     7.5608282089233398     
   1.5300000000000008E-002     34.966014862060547     
   1.6400000000000026E-002     43.921878814697266     
   1.7500000000000016E-002     26.343095779418945     
   1.8600000000000005E-002     3.3002488613128662     
   1.9700000000000023E-002     4.1602449417114258     
   2.0800000000000013E-002     34.048782348632812     
   2.1900000000000003E-002     64.754287719726562     
   2.3000000000000020E-002     61.929206848144531     
   2.4100000000000010E-002     22.856769561767578     
   2.5200000000000000E-002    -15.088394165039062     
   2.6300000000000018E-002    -8.2751655578613281     
   2.7400000000000008E-002     48.204013824462891     
   2.8500000000000025E-002     111.28748321533203     
   2.9600000000000015E-002     129.15310668945312     
   3.0700000000000005E-002     92.576072692871094     
   3.1800000000000023E-002     45.510852813720703     
   3.2900000000000013E-002     41.289527893066406     
   3.4000000000000002E-002     87.615814208984375     
   3.5100000000000020E-002     135.91078186035156     
   3.6200000000000010E-002     131.73341369628906     
   3.7300000000000028E-002     74.591644287109375     
   3.8400000000000017E-002     25.287858963012695     
   3.9500000000000007E-002     48.346229553222656     
   4.0600000000000025E-002     142.53506469726562     
   4.1700000000000015E-002     234.35562133789062     
   4.2800000000000005E-002     244.66410827636719     
   4.3900000000000022E-002     167.61907958984375     
   4.5000000000000012E-002     78.435905456542969     
   4.6100000000000002E-002     62.438690185546875     
   4.7200000000000020E-002     129.71199035644531     
   4.8300000000000010E-002     205.15676879882812     
   4.9400000000000027E-002     205.16452026367188     
   5.0500000000000017E-002     128.32791137695312     
   5.1600000000000007E-002     58.515884399414062     
   5.2700000000000025E-002     78.340995788574219     
   5.3800000000000014E-002     179.21336364746094     
   5.4900000000000004E-002     261.96353149414062     
   5.6000000000000022E-002     228.79089355468750     
   5.7100000000000012E-002     90.523002624511719     
   5.8200000000000002E-002    -35.367343902587891     
   5.9300000000000019E-002    -37.782386779785156     
   6.0400000000000009E-002     71.913459777832031     
   6.1500000000000027E-002     172.26847839355469     
   6.2600000000000017E-002     146.81774902343750     
   6.3700000000000007E-002     1.1263446807861328     
   6.4800000000000024E-002    -137.53120422363281     
   6.5900000000000014E-002    -143.39331054687500     
   6.7000000000000004E-002    -24.735101699829102     
   6.8100000000000022E-002     78.063545227050781     
   6.9200000000000012E-002     32.112892150878906     
   7.0300000000000029E-002    -148.79470825195312     
   7.1400000000000019E-002    -315.83410644531250     
   7.2500000000000009E-002    -329.28286743164062     
   7.3600000000000027E-002    -201.73194885253906     
   7.4700000000000016E-002    -92.388618469238281     
   7.5800000000000006E-002    -139.29087829589844     
   7.6900000000000024E-002    -320.55371093750000     
   7.8000000000000014E-002    -468.59320068359375     
   7.9100000000000004E-002    -440.70019531250000     
   8.0200000000000021E-002    -268.53134155273438     
   8.1300000000000011E-002    -136.08860778808594     
   8.2400000000000029E-002    -201.32362365722656     
   8.3500000000000019E-002    -432.79370117187500     
   8.4600000000000009E-002    -635.88610839843750     
   8.5700000000000026E-002    -640.09436035156250     
   8.6800000000000016E-002    -465.11865234375000     
   8.7900000000000006E-002    -306.31546020507812     
   8.9000000000000024E-002    -323.17404174804688     
   9.0100000000000013E-002    -502.44711303710938     
   9.1200000000000003E-002    -651.65173339843750     
   9.2300000000000021E-002    -613.29254150390625     
   9.3400000000000011E-002    -431.84466552734375     
   9.4500000000000028E-002    -309.31701660156250     
   9.5600000000000018E-002    -398.12048339843750     
   9.6700000000000008E-002    -644.30841064453125     
   9.7800000000000026E-002    -826.03100585937500     
   9.8900000000000016E-002    -772.72058105468750     
  0.10000000000000001         -544.71746826171875     
  0.10110000000000002         -371.53057861328125     
  0.10220000000000001         -432.10186767578125     
  0.10330000000000003         -669.94482421875000     
  0.10440000000000002         -852.68994140625000     
  0.10550000000000001         -811.24511718750000     
  0.10660000000000003         -606.60662841796875     
  0.10770000000000002         -466.14144897460938     
  0.10880000000000001         -544.04632568359375     
  0.10990000000000003         -766.16131591796875     
  0.11100000000000002         -899.15930175781250     
  0.11210000000000001         -788.07244873046875     
  0.11320000000000002         -521.79718017578125     
  0.11430000000000001         -343.15383911132812     
  0.11540000000000003         -403.86257934570312     
  0.11650000000000002         -595.05944824218750     
  0.11760000000000001         -668.02612304687500     
  0.11870000000000003         -472.61169433593750     
  0.11980000000000002         -134.57716369628906     
  0.12090000000000001          105.53629302978516     
  0.12200000000000003          86.043930053710938     
  0.12310000000000001         -49.334209442138672     
  0.12420000000000003         -25.492872238159180     
  0.12530000000000002          251.12200927734375     
  0.12640000000000001          688.00976562500000     
  0.12750000000000003          1010.9272460937500     
  0.12860000000000002          1073.2569580078125     
  0.12970000000000001          1032.2219238281250     
  0.13080000000000003          1091.5278320312500     
  0.13190000000000002          1375.2491455078125     
  0.13300000000000001          1810.1791992187500     
  0.13410000000000000          2095.6044921875000     
  0.13520000000000004          2149.4250488281250     
  0.13630000000000003          2125.2976074218750     
  0.13740000000000002          2229.4941406250000     
  0.13850000000000001          2502.6298828125000     
  0.13960000000000000          2807.7312011718750     
  0.14070000000000005          2955.6235351562500     
  0.14180000000000004          2872.5432128906250     
  0.14290000000000003          2679.6206054687500     
  0.14400000000000002          2591.0686035156250     
  0.14510000000000001          2702.9794921875000     
  0.14620000000000000          2825.3713378906250     
  0.14730000000000004          2783.6267089843750     
  0.14840000000000003          2491.7775878906250     
  0.14950000000000002          2161.1691894531250     
  0.15060000000000001          1931.3187255859375     
  0.15170000000000000          1831.4458007812500     
  0.15280000000000005          1706.2186279296875     
  0.15390000000000004          1382.6711425781250     
  0.15500000000000003          881.37774658203125     
  0.15610000000000002          401.92254638671875     
  0.15720000000000001          50.181140899658203     
  0.15830000000000000         -178.26489257812500     
  0.15940000000000004         -423.60342407226562     
  0.16050000000000003         -798.00366210937500     
  0.16160000000000002         -1283.6704101562500     
  0.16270000000000001         -1726.9626464843750     
  0.16380000000000000         -2033.3898925781250     
  0.16490000000000005         -2245.0156250000000     
  0.16600000000000004         -2477.6879882812500     
  0.16710000000000003         -2799.8278808593750     
  0.16820000000000002         -3113.1218261718750     
  0.16930000000000001         -3326.6271972656250     
  0.17040000000000000         -3382.8120117187500     
  0.17150000000000004         -3369.1750488281250     
  0.17260000000000003         -3405.6340332031250     
  0.17370000000000002         -3515.5305175781250     
  0.17480000000000001         -3560.8437500000000     
  0.17590000000000000         -3436.7719726562500     
  0.17700000000000005         -3156.6562500000000     
  0.17810000000000004         -2878.9562988281250     
  0.17920000000000003         -2758.6833496093750     
  0.18030000000000002         -2777.4689941406250     
  0.18140000000000001         -2653.2265625000000     
  0.18250000000000000         -2305.7470703125000     
  0.18360000000000004         -1734.6289062500000     
  0.18470000000000003         -1216.3361816406250     
  0.18580000000000002         -933.26898193359375     
  0.18690000000000001         -842.84899902343750     
  0.18800000000000000         -750.25524902343750     
  0.18910000000000005         -403.53576660156250     
  0.19020000000000004          198.20375061035156     
  0.19130000000000003          680.13922119140625     
  0.19240000000000002          839.82647705078125     
  0.19350000000000001          767.24206542968750     
  0.19460000000000005          773.53198242187500     
  0.19570000000000004          1111.7976074218750     
  0.19680000000000003          1591.6900634765625     
  0.19790000000000002          1951.9073486328125     
  0.19900000000000001          1981.3771972656250     
  0.20010000000000000          1821.2973632812500     
  0.20120000000000005          1722.2949218750000     
  0.20230000000000004          1830.0948486328125     
  0.20340000000000003          2011.7410888671875     
  0.20450000000000002          2001.7873535156250     
  0.20560000000000000          1753.2587890625000     
  0.20670000000000005          1493.0274658203125     
  0.20780000000000004          1460.6198730468750     
  0.20890000000000003          1641.7491455078125     
