 -0.12000000000000000          0.0000000000000000
 -0.11889999999999999          0.0000000000000000
 -0.11780000000000000          0.0000000000000000
 -0.11670000000000000          0.0000000000000000
 -0.11559999999999999          0.0000000000000000
 -0.11449999999999999          1.2958140373056838E-016
 -0.11340000000000000         -3.4382507039293113E-016
 -0.11230000000000000         -5.2348213915177974E-015
 -0.11119999999999999         -1.5929334547079214E-014
 -0.11009999999999999         -8.9510146042130989E-015
 -0.10900000000000000          7.4238845358984326E-014
 -0.10790000000000000          2.5016123488232770E-013
 -0.10679999999999999          3.2308167851406704E-013
 -0.10569999999999999         -1.5008966165234187E-013
 -0.10460000000000000         -1.3991161305299554E-012
 -0.10349999999999999         -2.5558215645105594E-012
 -0.10239999999999999         -1.3786203274731358E-012
 -0.10130000000000000          3.9989233495162330E-012
 -0.10020000000000000          1.1497867953468403E-011
  -9.9099999999999994E-002     1.3123510972415753E-011
  -9.7999999999999990E-002    -5.9316275494863047E-013
  -9.6899999999999986E-002    -2.9323886459852252E-011
  -9.5799999999999996E-002    -5.3559455175228082E-011
  -9.4699999999999993E-002    -4.1010374098725846E-011
  -9.3599999999999989E-002     2.6217654165294071E-011
  -9.2499999999999999E-002     1.2052886981546968E-010
  -9.1399999999999995E-002     1.6691069553258467E-010
  -9.0299999999999991E-002     9.0602624750740948E-011
  -8.9200000000000002E-002    -1.0862252794942099E-010
  -8.8099999999999984E-002    -3.1919728175801076E-010
  -8.6999999999999994E-002    -3.7198342940851460E-010
  -8.5899999999999990E-002    -1.6922971860805465E-010
  -8.4799999999999986E-002     2.0999089922157506E-010
  -8.3699999999999997E-002     5.3464989175678380E-010
  -8.2599999999999993E-002     5.8550757993852265E-010
  -8.1499999999999989E-002     3.3169070713340251E-010
  -8.0399999999999999E-002    -4.5639681345327563E-011
  -7.9299999999999995E-002    -3.2559309943166614E-010
  -7.8199999999999992E-002    -4.6267241604940555E-010
  -7.7100000000000002E-002    -6.1421004518620020E-010
  -7.5999999999999984E-002    -9.0583627536295848E-010
  -7.4899999999999994E-002    -1.1419421303081573E-009
  -7.3799999999999991E-002    -8.0150885030076535E-010
  -7.2699999999999987E-002     5.4067073712512742E-010
  -7.1599999999999997E-002     2.6413052905800597E-009
  -7.0499999999999993E-002     4.3938603700236757E-009
  -6.9399999999999989E-002     4.3423405767320210E-009
  -6.8300000000000000E-002     1.6750743677175950E-009
  -6.7199999999999996E-002    -2.9922695202215537E-009
  -6.6099999999999992E-002    -7.6722592975037897E-009
  -6.5000000000000002E-002    -9.9495385796534529E-009
  -6.3899999999999985E-002    -8.2371578283112047E-009
  -6.2799999999999995E-002    -2.6023114151533135E-009
  -6.1699999999999991E-002     5.2123982299709499E-009
  -6.0599999999999994E-002     1.2432492729741274E-008
  -5.9499999999999990E-002     1.6198870425731461E-008
  -5.8399999999999994E-002     1.4564214914381792E-008
  -5.7299999999999990E-002     7.3766546781398519E-009
  -5.6199999999999986E-002    -3.2742815837573207E-009
  -5.5099999999999996E-002    -1.3555998926790604E-008
  -5.3999999999999992E-002    -1.9544202668952106E-008
  -5.2899999999999989E-002    -1.9362611217825240E-008
  -5.1799999999999985E-002    -1.4365617069493377E-008
  -5.0699999999999995E-002    -8.1698343371495761E-009
  -4.9599999999999991E-002    -3.8210828873582656E-009
  -4.8499999999999988E-002    -1.0509977847135128E-009
  -4.7399999999999998E-002     4.1208963138002059E-009
  -4.6299999999999994E-002     1.6849790781803229E-008
  -4.5199999999999990E-002     3.9876211387019343E-008
  -4.4099999999999986E-002     7.1930171655870364E-008
  -4.2999999999999997E-002     1.0981975964843939E-007
  -4.1899999999999993E-002     1.5296002585073130E-007
  -4.0799999999999989E-002     2.0698827137022609E-007
  -3.9699999999999985E-002     2.8362156054640596E-007
  -3.8599999999999995E-002     3.9663433838953599E-007
  -3.7499999999999992E-002     5.5655655465173166E-007
  -3.6399999999999988E-002     7.6738656133553824E-007
  -3.5299999999999984E-002     1.0271176151286035E-006
  -3.4199999999999994E-002     1.3317087137710683E-006
  -3.3099999999999991E-002     1.6808156215612376E-006
  -3.1999999999999987E-002     2.0833713561679790E-006
  -3.0899999999999997E-002     2.5612187552329841E-006
  -2.9799999999999993E-002     3.1491294924901753E-006
  -2.8699999999999989E-002     3.8903663259742740E-006
  -2.7599999999999986E-002     4.8291418104241152E-006
  -2.6499999999999996E-002     6.0039985046367063E-006
  -2.5399999999999992E-002     7.4469280222252769E-006
  -2.4299999999999988E-002     9.1902498379531450E-006
  -2.3199999999999985E-002     1.1278148429616581E-005
  -2.2099999999999995E-002     1.3776123003815446E-005
  -2.0999999999999991E-002     1.6772866967637039E-005
  -1.9899999999999987E-002     2.0374717268515109E-005
  -1.8799999999999983E-002     2.4698336924230329E-005
  -1.7699999999999994E-002     2.9868287731363352E-005
  -1.6599999999999990E-002     3.6021759772902076E-005
  -1.5499999999999986E-002     4.3317009161121913E-005
  -1.4399999999999996E-002     5.1940212945721095E-005
  -1.3299999999999992E-002     6.2108020809054426E-005
  -1.2199999999999989E-002     7.4067659963730130E-005
  -1.1099999999999985E-002     8.8098200027124132E-005
  -9.9999999999999950E-003     1.0451403066745772E-004
  -8.8999999999999913E-003     1.2366874791214406E-004
  -7.7999999999999875E-003     1.4595706087713184E-004
  -6.6999999999999837E-003     1.7181517290514435E-004
  -5.5999999999999939E-003     2.0172213987654968E-004
  -4.4999999999999901E-003     2.3620439338853524E-004
  -3.3999999999999864E-003     2.7584140109341665E-004
  -2.2999999999999826E-003     3.2126891876900460E-004
  -1.1999999999999927E-003     3.7317778771547361E-004
  -9.9999999999988987E-005     4.3231082081897061E-004
   1.0000000000000148E-003     4.9946207479301900E-004
   2.1000000000000185E-003     5.7547985527388909E-004
   3.2000000000000084E-003     6.6126959646959347E-004
   4.3000000000000121E-003     7.5779091442065459E-004
   5.4000000000000159E-003     8.6604717317867214E-004
   6.5000000000000058E-003     9.8707278054415825E-004
   7.6000000000000234E-003     1.1219247854175457E-003
   8.7000000000000133E-003     1.2716801974962605E-003
   9.8000000000000032E-003     1.4374330691356108E-003
   1.0900000000000021E-002     1.6202843173321983E-003
   1.2000000000000011E-002     1.8213194469360321E-003
   1.3100000000000001E-002     2.0415820059281032E-003
   1.4200000000000018E-002     2.2820528458827186E-003
   1.5300000000000008E-002     2.5436347058618762E-003
   1.6400000000000026E-002     2.8271390732719651E-003
   1.7500000000000016E-002     3.1332632225516818E-003
   1.8600000000000005E-002     3.4625590173235823E-003
   1.9700000000000023E-002     3.8153962079480381E-003
   2.0800000000000013E-002     4.1919331624056897E-003
   2.1900000000000003E-002     4.5920959975880825E-003
   2.3000000000000020E-002     5.0155587801360597E-003
   2.4100000000000010E-002     5.4617172443530791E-003
   2.5200000000000000E-002     5.9296548139792672E-003
   2.6300000000000018E-002     6.4181123299378758E-003
   2.7400000000000008E-002     6.9254643380977452E-003
   2.8500000000000025E-002     7.4497098514196818E-003
   2.9600000000000015E-002     7.9884588450650391E-003
   3.0700000000000005E-002     8.5389200578535416E-003
   3.1800000000000023E-002     9.0978804475131195E-003
   3.2900000000000013E-002     9.6617000390154546E-003
   3.4000000000000002E-002     1.0226327804771524E-002
   3.5100000000000020E-002     1.0787321329338261E-002
   3.6200000000000010E-002     1.1339878450312518E-002
   3.7300000000000028E-002     1.1878855501613717E-002
   3.8400000000000017E-002     1.2398778096850204E-002
   3.9500000000000007E-002     1.2893877650383113E-002
   4.0600000000000025E-002     1.3358145139778734E-002
   4.1700000000000015E-002     1.3785400259974961E-002
   4.2800000000000005E-002     1.4169356621629771E-002
   4.3900000000000022E-002     1.4503685974425820E-002
   4.5000000000000012E-002     1.4782071291000861E-002
   4.6100000000000002E-002     1.4998270831216401E-002
   4.7200000000000020E-002     1.5146210869058107E-002
   4.8300000000000010E-002     1.5220076765654046E-002
   4.9400000000000027E-002     1.5214402273999285E-002
   5.0500000000000017E-002     1.5124140854750480E-002
   5.1600000000000007E-002     1.4944719944155296E-002
   5.2700000000000025E-002     1.4672107613347057E-002
   5.3800000000000014E-002     1.4302886046376964E-002
   5.4900000000000004E-002     1.3834324557687346E-002
   5.6000000000000022E-002     1.3264447356383926E-002
   5.7100000000000012E-002     1.2592054906124979E-002
   5.8200000000000002E-002     1.1816750870428393E-002
   5.9300000000000019E-002     1.0938955825104317E-002
   6.0400000000000009E-002     9.9599346067288600E-003
   6.1500000000000027E-002     8.8818129354087325E-003
   6.2600000000000017E-002     7.7075643931420711E-003
   6.3700000000000007E-002     6.4409714307368578E-003
   6.4800000000000024E-002     5.0865772169441086E-003
   6.5900000000000014E-002     3.6496403740898641E-003
   6.7000000000000004E-002     2.1361017254539543E-003
   6.8100000000000022E-002     5.5254411491282088E-004
   6.9200000000000012E-002    -1.0938733442655952E-003
   7.0300000000000029E-002    -2.7955039205310819E-003
   7.1400000000000019E-002    -4.5443028761167010E-003
   7.2500000000000009E-002    -6.3318990082887371E-003
   7.3600000000000027E-002    -8.1496463897444277E-003
   7.4700000000000016E-002    -9.9886790828003346E-003
   7.5800000000000006E-002    -1.1839977543735229E-002
   7.6900000000000024E-002    -1.3694454564543197E-002
   7.8000000000000014E-002    -1.5543026289725381E-002
   7.9100000000000004E-002    -1.7376653028948752E-002
   8.0200000000000021E-002    -1.9186368379528498E-002
   8.1300000000000011E-002    -2.0963287028567763E-002
   8.2400000000000029E-002    -2.2698638657852051E-002
   8.3500000000000019E-002    -2.4383802525391698E-002
   8.4600000000000009E-002    -2.6010344208326947E-002
   8.5700000000000026E-002    -2.7569997440297919E-002
   8.6800000000000016E-002    -2.9054656054782208E-002
   8.7900000000000006E-002    -3.0456342570478440E-002
   8.9000000000000024E-002    -3.1767227678785169E-002
   9.0100000000000013E-002    -3.2979638453098828E-002
   9.1200000000000003E-002    -3.4086069550761294E-002
   9.2300000000000021E-002    -3.5079185767254412E-002
   9.3400000000000011E-002    -3.5951814521566788E-002
   9.4500000000000028E-002    -3.6696943593384795E-002
   9.5600000000000018E-002    -3.7307766754850064E-002
   9.6700000000000008E-002    -3.7777727229073133E-002
   9.7800000000000026E-002    -3.8100582185225641E-002
   9.8900000000000016E-002    -3.8270442819434897E-002
  0.10000000000000001         -3.8281838105992380E-002
  0.10110000000000002         -3.8129771238707338E-002
  0.10220000000000001         -3.7809852246183058E-002
  0.10330000000000003         -3.7318395274408098E-002
  0.10440000000000002         -3.6652546192126927E-002
  0.10550000000000001         -3.5810347247610036E-002
  0.10660000000000003         -3.4790848889134501E-002
  0.10770000000000002         -3.3594214362691222E-002
  0.10880000000000001         -3.2221839118691788E-002
  0.10990000000000003         -3.0676476410423807E-002
  0.11100000000000002         -2.8962292291572826E-002
  0.11210000000000001         -2.7084917800833979E-002
  0.11320000000000002         -2.5051496150796774E-002
  0.11430000000000001         -2.2870710218375265E-002
  0.11540000000000003         -2.0552821963143633E-002
  0.11650000000000002         -1.8109660492500051E-002
  0.11760000000000001         -1.5554558892145770E-002
  0.11870000000000003         -1.2902266581745961E-002
  0.11980000000000002         -1.0168831706319680E-002
  0.12090000000000001         -7.3714945241788073E-003
  0.12200000000000003         -4.5285518312202355E-003
  0.12310000000000001         -1.6591898440339492E-003
  0.12420000000000003          1.2167350028362116E-003
  0.12530000000000002          4.0789365876601888E-003
  0.12640000000000001          6.9069339719450788E-003
  0.12750000000000003          9.6802712120803852E-003
  0.12860000000000002          1.2378745690215796E-002
  0.12970000000000001          1.4982652472188074E-002
  0.13080000000000003          1.7473070100198003E-002
  0.13190000000000002          1.9832112616834416E-002
  0.13300000000000001          2.2043163961949719E-002
  0.13410000000000000          2.4091061865968662E-002
  0.13520000000000004          2.5962264645080800E-002
  0.13630000000000003          2.7645009805795422E-002
  0.13740000000000002          2.9129494625729571E-002
  0.13850000000000001          3.0407996923332410E-002
  0.13960000000000000          3.1474960395119989E-002
  0.14070000000000005          3.2327000921418769E-002
  0.14180000000000004          3.2962895397946473E-002
  0.14290000000000003          3.3383583975435269E-002
  0.14400000000000002          3.3592116384284457E-002
  0.14510000000000001          3.3593588006774033E-002
  0.14620000000000000          3.3395013505533519E-002
  0.14730000000000004          3.3005163673506754E-002
  0.14840000000000003          3.2434375622330286E-002
  0.14950000000000002          3.1694393816024784E-002
  0.15060000000000001          3.0798209389585052E-002
  0.15170000000000000          2.9759847937751778E-002
  0.15280000000000005          2.8594134627851046E-002
  0.15390000000000004          2.7316447933000615E-002
  0.15500000000000003          2.5942477645584529E-002
  0.15610000000000002          2.4488039042930992E-002
  0.15720000000000001          2.2968896096594891E-002
  0.15830000000000000          2.1400570498353973E-002
  0.15940000000000004          1.9798145998209216E-002
  0.16050000000000003          1.8176077134525122E-002
  0.16160000000000002          1.6548029934340087E-002
  0.16270000000000001          1.4926798755031442E-002
  0.16380000000000000          1.3324217831484932E-002
  0.16490000000000005          1.1751086600651977E-002
  0.16600000000000004          1.0217079192359011E-002
  0.16710000000000003          8.7306786145355912E-003
  0.16820000000000002          7.2991573785998048E-003
  0.16930000000000001          5.9286203139475762E-003
  0.17040000000000000          4.6240518058573345E-003
  0.17150000000000004          3.3893522442316449E-003
  0.17260000000000003          2.2273540973789504E-003
  0.17370000000000002          1.1398568431273434E-003
  0.17480000000000001          1.2770372412974521E-004
  0.17590000000000000         -8.0910314979422936E-004
  0.17700000000000005         -1.6712883931929892E-003
  0.17810000000000004         -2.4602190743924376E-003
  0.17920000000000003         -3.1778426652616576E-003
  0.18030000000000002         -3.8266154558474538E-003
  0.18140000000000001         -4.4093980128471098E-003
  0.18250000000000000         -4.9293334331300242E-003
  0.18360000000000004         -5.3897417276216478E-003
  0.18470000000000003         -5.7940579200194998E-003
  0.18580000000000002         -6.1457957658210636E-003
  0.18690000000000001         -6.4485039906587716E-003
  0.18800000000000000         -6.7056896935063851E-003
  0.18910000000000005         -6.9207362148839676E-003
  0.19020000000000004         -7.0968445115711732E-003
  0.19130000000000003         -7.2370150971078403E-003
  0.19240000000000002         -7.3440567790380076E-003
  0.19350000000000001         -7.4205816251758129E-003
  0.19460000000000005         -7.4689770303400533E-003
  0.19570000000000004         -7.4913762791214526E-003
  0.19680000000000003         -7.4896539183212643E-003
  0.19790000000000002         -7.4654551026034511E-003
  0.19900000000000001         -7.4202341916003696E-003
  0.20010000000000000         -7.3552710961926650E-003
  0.20120000000000005         -7.2716629431494872E-003
  0.20230000000000004         -7.1703204161822917E-003
  0.20340000000000003         -7.0519978738894660E-003
  0.20450000000000002         -6.9173454272485283E-003
  0.20560000000000000         -6.7669610263537006E-003
  0.20670000000000005         -6.6014092384130913E-003
  0.20780000000000004         -6.4212147651622337E-003
  0.20890000000000003         -6.2268593184633316E-003
