 -0.12000000000000000          0.0000000000000000     
 -0.11889999999999999          0.0000000000000000     
 -0.11780000000000000          0.0000000000000000     
 -0.11670000000000000          0.0000000000000000     
 -0.11559999999999999          0.0000000000000000     
 -0.11449999999999999          0.0000000000000000     
 -0.11340000000000000          2.2009761499247257E-015
 -0.11230000000000000         -1.8630481601888960E-009
 -0.11119999999999999          1.3848103108671239E-008
 -0.11009999999999999          1.7766248561201792E-007
 -0.10900000000000000          6.5706979057722492E-007
 -0.10790000000000000          7.9447005418842309E-007
 -0.10679999999999999         -2.1306127564457711E-006
 -0.10569999999999999         -1.0857412235054653E-005
 -0.10460000000000000         -1.8919310605269857E-005
 -0.10349999999999999         -1.9576905287976842E-006
 -0.10239999999999999          6.5257911046501249E-005
 -0.10130000000000000          1.5178759349510074E-004
 -0.10020000000000000          1.2511410750448704E-004
  -9.9099999999999994E-002    -1.6562541713938117E-004
  -9.7999999999999990E-002    -6.3679774757474661E-004
  -9.6899999999999986E-002    -7.7544851228594780E-004
  -9.5799999999999996E-002     6.6811138822231442E-005
  -9.4699999999999993E-002     1.7800602363422513E-003
  -9.3599999999999989E-002     2.7844072319567204E-003
  -9.2499999999999999E-002     8.5945631144568324E-004
  -9.1399999999999995E-002    -4.1549485176801682E-003
  -9.0299999999999991E-002    -8.0466400831937790E-003
  -8.9200000000000002E-002    -4.1581131517887115E-003
  -8.8099999999999984E-002     9.3412538990378380E-003
  -8.6999999999999994E-002     2.2511659190058708E-002
  -8.5899999999999990E-002     1.7049157992005348E-002
  -8.4799999999999986E-002    -1.6130311414599419E-002
  -8.3699999999999997E-002    -5.7525295764207840E-002
  -8.2599999999999993E-002    -6.1909109354019165E-002
  -8.1499999999999989E-002     4.2402110993862152E-003
  -8.0399999999999999E-002    0.11382694542407990     
  -7.9299999999999995E-002    0.17112599313259125     
  -7.8199999999999992E-002     7.9748719930648804E-002
  -7.7100000000000002E-002   -0.14843125641345978     
  -7.5999999999999984E-002   -0.34624728560447693     
  -7.4899999999999994E-002   -0.29256838560104370     
  -7.3799999999999991E-002     7.6295979321002960E-002
  -7.2699999999999987E-002    0.52554017305374146     
  -7.1599999999999997E-002    0.63705760240554810     
  -7.0499999999999993E-002    0.16804254055023193     
  -6.9399999999999989E-002   -0.62898057699203491     
  -6.8300000000000000E-002    -1.0782456398010254     
  -6.7199999999999996E-002   -0.61675351858139038     
  -6.6099999999999992E-002    0.59690064191818237     
  -6.5000000000000002E-002     1.6045374870300293     
  -6.3899999999999985E-002     1.3548817634582520     
  -6.2799999999999995E-002   -0.27972438931465149     
  -6.1699999999999991E-002    -2.1120679378509521     
  -6.0599999999999994E-002    -2.4444975852966309     
  -5.9499999999999990E-002   -0.58804899454116821     
  -5.8399999999999994E-002     2.2282466888427734     
  -5.7299999999999990E-002     3.6015717983245850     
  -5.6199999999999986E-002     1.9984394311904907     
  -5.5099999999999996E-002    -1.6214989423751831     
  -5.3999999999999992E-002    -4.2654986381530762     
  -5.2899999999999989E-002    -3.3972060680389404     
  -5.1799999999999985E-002    0.59821724891662598     
  -5.0699999999999995E-002     4.3638834953308105     
  -4.9599999999999991E-002     4.3618626594543457     
  -4.8499999999999988E-002    0.22159010171890259     
  -4.7399999999999998E-002    -4.5212817192077637     
  -4.6299999999999994E-002    -5.3594255447387695     
  -4.5199999999999990E-002    -1.0383511781692505     
  -4.4099999999999986E-002     4.8754158020019531     
  -4.2999999999999997E-002     6.9070534706115723     
  -4.1899999999999993E-002     2.7216839790344238     
  -4.0799999999999989E-002    -4.3693633079528809     
  -3.9699999999999985E-002    -8.0993671417236328     
  -3.8599999999999995E-002    -4.9572057723999023     
  -3.7499999999999992E-002     2.3839023113250732     
  -3.6399999999999988E-002     7.3783502578735352     
  -3.5299999999999984E-002     5.7138080596923828     
  -3.4199999999999994E-002   -0.58913832902908325     
  -3.3099999999999991E-002    -5.1978316307067871     
  -3.1999999999999987E-002    -3.7968242168426514     
  -3.0899999999999997E-002     1.5359020233154297     
  -2.9799999999999993E-002     4.4842009544372559     
  -2.8699999999999989E-002     1.2373777627944946     
  -2.7599999999999986E-002    -5.0680775642395020     
  -2.6499999999999996E-002    -7.1704707145690918     
  -2.5399999999999992E-002    -1.3791716098785400     
  -2.4299999999999988E-002     7.7218723297119141     
  -2.3199999999999985E-002     11.034213066101074     
  -2.2099999999999995E-002     4.1326727867126465     
  -2.0999999999999991E-002    -7.3409748077392578     
  -1.9899999999999987E-002    -12.323707580566406     
  -1.8799999999999983E-002    -5.2900509834289551     
  -1.7699999999999994E-002     7.3425631523132324     
  -1.6599999999999990E-002     12.656744956970215     
  -1.5499999999999986E-002     4.1398429870605469     
  -1.4399999999999996E-002    -10.683935165405273     
  -1.3299999999999992E-002    -16.499284744262695     
  -1.2199999999999989E-002    -5.3410029411315918     
  -1.1099999999999985E-002     14.160694122314453     
  -9.9999999999999950E-003     23.640869140625000     
  -8.8999999999999913E-003     12.559578895568848     
  -7.7999999999999875E-003    -10.452519416809082     
  -6.6999999999999837E-003    -24.524738311767578     
  -5.5999999999999939E-003    -16.212213516235352     
  -4.4999999999999901E-003     6.9601693153381348     
  -3.3999999999999864E-003     23.012529373168945     
  -2.2999999999999826E-003     16.624620437622070     
  -1.1999999999999927E-003    -5.6007728576660156     
  -9.9999999999988987E-005    -21.236658096313477     
   1.0000000000000148E-003    -14.064357757568359     
   2.1000000000000185E-003     9.6601953506469727     
   3.2000000000000084E-003     27.259494781494141     
   4.3000000000000121E-003     22.295072555541992     
   5.4000000000000159E-003     1.0277447700500488     
   6.5000000000000058E-003    -14.246768951416016     
   7.6000000000000234E-003    -8.3571500778198242     
   8.7000000000000133E-003     11.073670387268066     
   9.8000000000000032E-003     22.055995941162109     
   1.0900000000000021E-002     12.243357658386230     
   1.2000000000000011E-002    -6.9107298851013184     
   1.3100000000000001E-002    -11.768973350524902     
   1.4200000000000018E-002     7.6104393005371094     
   1.5300000000000008E-002     35.028327941894531     
   1.6400000000000026E-002     43.981361389160156     
   1.7500000000000016E-002     26.311466217041016     
   1.8600000000000005E-002     3.1644968986511230     
   1.9700000000000023E-002     3.9334387779235840     
   2.0800000000000013E-002     33.850093841552734     
   2.1900000000000003E-002     64.742103576660156     
   2.3000000000000020E-002     62.097106933593750     
   2.4100000000000010E-002     23.129245758056641     
   2.5200000000000000E-002    -14.810023307800293     
   2.6300000000000018E-002    -8.1909980773925781     
   2.7400000000000008E-002     48.095767974853516     
   2.8500000000000025E-002     111.07012939453125     
   2.9600000000000015E-002     128.99652099609375     
   3.0700000000000005E-002     92.585662841796875     
   3.1800000000000023E-002     45.599220275878906     
   3.2900000000000013E-002     41.403064727783203     
   3.4000000000000002E-002     87.544784545898438     
   3.5100000000000020E-002     135.94908142089844     
   3.6200000000000010E-002     131.91210937500000     
   3.7300000000000028E-002     74.664497375488281     
   3.8400000000000017E-002     25.157800674438477     
   3.9500000000000007E-002     47.963188171386719     
   4.0600000000000025E-002     142.11257934570312     
   4.1700000000000015E-002     234.25097656250000     
   4.2800000000000005E-002     245.32589721679688     
   4.3900000000000022E-002     168.34922790527344     
   4.5000000000000012E-002     78.914962768554688     
   4.6100000000000002E-002     61.647487640380859     
   4.7200000000000020E-002     127.31943511962891     
   4.8300000000000010E-002     202.16613769531250     
   4.9400000000000027E-002     204.04960632324219     
   5.0500000000000017E-002     129.15798950195312     
   5.1600000000000007E-002     60.939704895019531     
   5.2700000000000025E-002     81.434913635253906     
   5.3800000000000014E-002     181.00866699218750     
   5.4900000000000004E-002     260.79403686523438     
   5.6000000000000022E-002     227.02645874023438     
   5.7100000000000012E-002     90.089263916015625     
   5.8200000000000002E-002    -33.532501220703125     
   5.9300000000000019E-002    -36.654567718505859     
   6.0400000000000009E-002     72.517471313476562     
   6.1500000000000027E-002     172.27496337890625     
   6.2600000000000017E-002     144.89447021484375     
   6.3700000000000007E-002    -1.6310462951660156     
   6.4800000000000024E-002    -138.10668945312500     
   6.5900000000000014E-002    -139.72291564941406     
   6.7000000000000004E-002    -23.891935348510742     
   6.8100000000000022E-002     76.018463134765625     
   6.9200000000000012E-002     28.623828887939453     
   7.0300000000000029E-002    -151.08660888671875     
   7.1400000000000019E-002    -314.66458129882812     
   7.2500000000000009E-002    -326.04196166992188     
   7.3600000000000027E-002    -200.07392883300781     
   7.4700000000000016E-002    -92.746566772460938     
   7.5800000000000006E-002    -139.95013427734375     
   7.6900000000000024E-002    -322.37908935546875     
   7.8000000000000014E-002    -467.38708496093750     
   7.9100000000000004E-002    -435.14505004882812     
   8.0200000000000021E-002    -268.85928344726562     
   8.1300000000000011E-002    -140.91886901855469     
   8.2400000000000029E-002    -208.35516357421875     
   8.3500000000000019E-002    -439.67721557617188     
   8.4600000000000009E-002    -635.20123291015625     
   8.5700000000000026E-002    -634.87335205078125     
   8.6800000000000016E-002    -456.89465332031250     
   8.7900000000000006E-002    -301.52481079101562     
   8.9000000000000024E-002    -326.63549804687500     
   9.0100000000000013E-002    -506.78622436523438     
   9.1200000000000003E-002    -648.65899658203125     
   9.2300000000000021E-002    -606.24945068359375     
   9.3400000000000011E-002    -428.73901367187500     
   9.4500000000000028E-002    -308.72570800781250     
   9.5600000000000018E-002    -405.69943237304688     
   9.6700000000000008E-002    -652.99554443359375     
   9.7800000000000026E-002    -830.27502441406250     
   9.8900000000000016E-002    -772.66357421875000     
  0.10000000000000001         -538.85375976562500     
  0.10110000000000002         -360.09579467773438     
  0.10220000000000001         -417.75494384765625     
  0.10330000000000003         -658.11706542968750     
  0.10440000000000002         -852.06781005859375     
  0.10550000000000001         -825.56878662109375     
  0.10660000000000003         -631.10186767578125     
  0.10770000000000002         -483.27175903320312     
  0.10880000000000001         -544.09735107421875     
  0.10990000000000003         -743.49572753906250     
  0.11100000000000002         -867.91326904296875     
  0.11210000000000001         -766.27142333984375     
  0.11320000000000002         -529.56854248046875     
  0.11430000000000001         -367.26419067382812     
  0.11540000000000003         -435.85794067382812     
  0.11650000000000002         -612.50433349609375     
  0.11760000000000001         -667.00274658203125     
  0.11870000000000003         -464.41024780273438     
  0.11980000000000002         -110.23642730712891     
  0.12090000000000001          133.88984680175781     
  0.12200000000000003          126.34295654296875     
  0.12310000000000001         -20.248722076416016     
  0.12420000000000003         -42.094451904296875     
  0.12530000000000002          193.44505310058594     
  0.12640000000000001          606.33660888671875     
  0.12750000000000003          956.09350585937500     
  0.12860000000000002          1103.0019531250000     
  0.12970000000000001          1118.0017089843750     
  0.13080000000000003          1178.7446289062500     
  0.13190000000000002          1411.2464599609375     
  0.13300000000000001          1756.2681884765625     
  0.13410000000000000          2015.9301757812500     
  0.13520000000000004          2102.1906738281250     
  0.13630000000000003          2128.4138183593750     
  0.13740000000000002          2255.4895019531250     
  0.13850000000000001          2516.7343750000000     
  0.13960000000000000          2783.4494628906250     
  0.14070000000000005          2935.8632812500000     
  0.14180000000000004          2853.9550781250000     
  0.14290000000000003          2693.5424804687500     
  0.14400000000000002          2641.1401367187500     
  0.14510000000000001          2731.1284179687500     
  0.14620000000000000          2833.0507812500000     
  0.14730000000000004          2783.0183105468750     
  0.14840000000000003          2532.0585937500000     
  0.14950000000000002          2181.9526367187500     
  0.15060000000000001          1949.1888427734375     
  0.15170000000000000          1780.1243896484375     
  0.15280000000000005          1637.3045654296875     
  0.15390000000000004          1351.4796142578125     
  0.15500000000000003          897.71185302734375     
  0.15610000000000002          459.71832275390625     
  0.15720000000000001          111.41777801513672     
  0.15830000000000000         -175.18191528320312     
  0.15940000000000004         -480.72937011718750     
  0.16050000000000003         -890.33361816406250     
  0.16160000000000002         -1316.2882080078125     
  0.16270000000000001         -1671.2385253906250     
  0.16380000000000000         -1931.5847167968750     
  0.16490000000000005         -2180.3657226562500     
  0.16600000000000004         -2498.1276855468750     
  0.16710000000000003         -2882.2199707031250     
  0.16820000000000002         -3185.8813476562500     
  0.16930000000000001         -3305.5217285156250     
  0.17040000000000000         -3285.4860839843750     
  0.17150000000000004         -3262.1479492187500     
  0.17260000000000003         -3363.8403320312500     
  0.17370000000000002         -3545.2465820312500     
  0.17480000000000001         -3630.9250488281250     
  0.17590000000000000         -3503.6257324218750     
  0.17700000000000005         -3192.0551757812500     
  0.17810000000000004         -2927.2014160156250     
  0.17920000000000003         -2761.6132812500000     
  0.18030000000000002         -2653.6975097656250     
  0.18140000000000001         -2496.0895996093750     
  0.18250000000000000         -2165.1276855468750     
  0.18360000000000004         -1744.0062255859375     
  0.18470000000000003         -1419.8665771484375     
  0.18580000000000002         -1190.4381103515625     
  0.18690000000000001         -966.80145263671875     
  0.18800000000000000         -600.42175292968750     
  0.18910000000000005         -100.52777862548828     
  0.19020000000000004          298.97320556640625     
  0.19130000000000003          517.74517822265625     
  0.19240000000000002          556.80444335937500     
  0.19350000000000001          676.56292724609375     
  0.19460000000000005          1018.1768188476562     
  0.19570000000000004          1474.4918212890625     
  0.19680000000000003          1794.9578857421875     
  0.19790000000000002          1801.6757812500000     
  0.19900000000000001          1648.0202636718750     
  0.20010000000000000          1568.9997558593750     
  0.20120000000000005          1717.6530761718750     
  0.20230000000000004          1997.4709472656250     
  0.20340000000000003          2138.6340332031250     
  0.20450000000000002          1981.1657714843750     
  0.20560000000000000          1652.0953369140625     
  0.20670000000000005          1470.2149658203125     
  0.20780000000000004          1573.1072998046875     
  0.20890000000000003          1786.0739746093750     
