  -1.2000000000000000E-009     0.0000000000000000
  -1.1960000000000000E-009     0.0000000000000000
  -1.1920000000000000E-009     0.0000000000000000
  -1.1880000000000000E-009     0.0000000000000000
  -1.1840000000000000E-009     0.0000000000000000
  -1.1800000000000001E-009     0.0000000000000000
  -1.1760000000000001E-009     0.0000000000000000
  -1.1720000000000001E-009     0.0000000000000000
  -1.1679999999999999E-009     0.0000000000000000
  -1.1639999999999999E-009     0.0000000000000000
  -1.1599999999999999E-009     0.0000000000000000
  -1.1559999999999999E-009     0.0000000000000000
  -1.1520000000000000E-009     0.0000000000000000
  -1.1480000000000000E-009     0.0000000000000000
  -1.1440000000000000E-009     0.0000000000000000
  -1.1400000000000000E-009     0.0000000000000000
  -1.1360000000000000E-009     0.0000000000000000
  -1.1320000000000000E-009     0.0000000000000000
  -1.1280000000000000E-009     0.0000000000000000
  -1.1240000000000000E-009     0.0000000000000000
  -1.1200000000000001E-009     0.0000000000000000
  -1.1160000000000001E-009     0.0000000000000000
  -1.1120000000000001E-009     0.0000000000000000
  -1.1079999999999999E-009     0.0000000000000000
  -1.1039999999999999E-009     0.0000000000000000
  -1.0999999999999999E-009     0.0000000000000000
  -1.0959999999999999E-009     0.0000000000000000
  -1.0920000000000000E-009     0.0000000000000000
  -1.0880000000000000E-009     0.0000000000000000
  -1.0840000000000000E-009     0.0000000000000000
  -1.0800000000000000E-009     0.0000000000000000
  -1.0760000000000000E-009     0.0000000000000000
  -1.0720000000000000E-009     0.0000000000000000
  -1.0680000000000000E-009     0.0000000000000000
  -1.0640000000000000E-009     0.0000000000000000
  -1.0600000000000001E-009     1.8669045833583425E-059
  -1.0560000000000001E-009     5.6007137500750275E-059
  -1.0520000000000001E-009     1.0267975208470884E-058
  -1.0480000000000001E-009     1.2302594782360321E-058
  -1.0439999999999999E-009     1.2470309772891417E-058
  -1.0399999999999999E-009     3.3035018466307992E-059
  -1.0359999999999999E-009    -2.7164993797719662E-058
  -1.0320000000000000E-009    -8.6738225474655527E-058
  -1.0280000000000000E-009    -1.8245350419752428E-057
  -1.0240000000000000E-009    -3.1246820460013671E-057
  -1.0200000000000000E-009     1.4012984643205605E-045
  -1.0160000000000000E-009     2.8025969286451318E-045
  -1.0120000000000000E-009     4.2038953929724007E-045
  -1.0080000000000000E-009     4.2038953929796941E-045
  -1.0040000000000000E-009     1.4012984643446847E-045
  -1.0000000000000001E-009    -7.0064923215808678E-045
  -9.9600000000000008E-010    -2.2420775429123442E-044
  -9.9199999999999988E-010    -4.6242849322616149E-044
  -9.8799999999999990E-010    -7.5670117073427361E-044
  -9.8399999999999991E-010    -9.9492190966989347E-044
  -9.7999999999999992E-010    -9.9492190967119941E-044
  -9.7599999999999994E-010    -4.3440252394388898E-044
  -9.7199999999999995E-010     1.0930128021660412E-043
  -9.6799999999999997E-010     3.9937006233131416E-043
  -9.6399999999999998E-010     8.3657518320014730E-043
  -9.5999999999999999E-010     1.3718711965720034E-042
  -9.5600000000000001E-010     1.8413061821212984E-042
  -9.5200000000000002E-010     1.9281866869111516E-042
  -9.4800000000000004E-010     1.1546699346073043E-042
  -9.4400000000000005E-010    -1.0621842359491352E-042
  -9.4000000000000006E-010    -5.2324484657728086E-042
  -9.3600000000000008E-010    -1.1493450004369031E-041
  -9.3200000000000009E-010    -1.9161355201150229E-041
  -9.2800000000000000E-010    -2.6223899461350483E-041
  -9.2400000000000001E-010    -2.8931208094442256E-041
  -9.1999999999999992E-010    -2.1739744375562160E-041
  -9.1599999999999994E-010     2.0234749824013985E-042
  -9.1199999999999995E-010     4.8414861942262845E-041
  -9.0799999999999997E-010     1.1978159143177856E-040
  -9.0399999999999998E-010     2.1040496441806459E-040
  -8.9999999999999999E-010     3.0151178537460197E-040
  -8.9600000000000001E-010     3.5712371622990379E-040
  -8.9200000000000002E-010     3.2305815056244237E-040
  -8.8800000000000004E-010     1.3216626726027740E-040
  -8.8400000000000005E-010    -2.8101078884059730E-040
  -8.8000000000000006E-010    -9.5398017243637505E-040
  -8.7599999999999997E-010    -1.8588476362963876E-039
  -8.7199999999999999E-010    -2.8585465724314730E-039
  -8.6800000000000000E-010    -3.6677866264901642E-039
  -8.6400000000000001E-010    -3.8364525148517773E-039
  -8.5999999999999993E-010    -2.7787230067149658E-039
  -8.5599999999999994E-010     1.2757140958797400E-040
  -8.5199999999999995E-010     5.3530568233008070E-039
  -8.4799999999999997E-010     1.2939143005343786E-038
  -8.4399999999999998E-010     2.2158708794266842E-038
  -8.3999999999999999E-010     3.1183943913459931E-038
  -8.3600000000000001E-010     3.6876023880746901E-038
  -8.3200000000000002E-010     3.4851315755630403E-038
  -8.2800000000000004E-010     1.9996174557428313E-038
  -8.2400000000000005E-010    -1.2423250771757867E-038
  -8.2000000000000006E-010    -6.4998035361286868E-038
  -8.1599999999999997E-010    -1.3586614362086228E-037
  -8.1199999999999999E-010    -2.1619817889818656E-037
  -8.0800000000000000E-010    -2.8810833193224073E-037
  -8.0400000000000002E-010    -3.2389910900698028E-037
  -7.9999999999999993E-010    -2.8773269426089407E-037
  -7.9599999999999994E-010    -1.4080176344113053E-037
  -7.9199999999999995E-010     1.4927243329101853E-037
  -7.8799999999999997E-010     5.9485317113313745E-037
  -7.8399999999999998E-010     1.1717714259023926E-036
  -7.7999999999999999E-010     1.8027359911994980E-036
  -7.7600000000000001E-010     2.3452753499647484E-036
  -7.7200000000000002E-010     2.5903290444201129E-036
  -7.6800000000000004E-010     2.2783079017168929E-036
  -7.6400000000000005E-010     1.1387164766896611E-036
  -7.6000000000000006E-010    -1.0433758061795549E-036
  -7.5600000000000008E-010    -4.3359756429227688E-036
  -7.5199999999999999E-010    -8.5536004425697286E-036
  -7.4800000000000000E-010    -1.3154641308536090E-035
  -7.4400000000000002E-010    -1.7171553174148441E-035
  -7.3999999999999993E-010    -1.9210407373649748E-035
  -7.3599999999999994E-010    -1.7558981303712334E-035
  -7.3199999999999995E-010    -1.0436543798339215E-035
  -7.2799999999999997E-010     3.5987123876424431E-036
  -7.2399999999999998E-010     2.5099054359675728E-035
  -7.2000000000000000E-010     5.3090645602136730E-035
  -7.1600000000000001E-010     8.4459349462565273E-035
  -7.1200000000000002E-010     1.1351874071745628E-034
  -7.0800000000000004E-010     1.3196013486544754E-034
  -7.0400000000000005E-010     1.2939708652375827E-034
  -6.9999999999999996E-010     9.4687757435959201E-035
  -6.9599999999999997E-010     1.8130170826216625E-035
  -6.9199999999999999E-010    -1.0552586126814553E-034
  -6.8800000000000000E-010    -2.7352157901860494E-034
  -6.8400000000000002E-010    -4.7151525827413594E-034
  -6.8000000000000003E-010    -6.7078547388515909E-034
  -6.7600000000000004E-010    -8.2722035392803660E-034
  -6.7199999999999995E-010    -8.8320134384057286E-034
  -6.6799999999999997E-010    -7.7338932481631748E-034
  -6.6399999999999998E-010    -4.3506579576717587E-034
  -6.6000000000000000E-010     1.7699340380110398E-034
  -6.5600000000000001E-010     1.0720991534197632E-033
  -6.5200000000000002E-010     2.2038895426326957E-033
  -6.4800000000000004E-010     3.4527354756295307E-033
  -6.4400000000000005E-010     4.6149886172732024E-033
  -6.3999999999999996E-010     5.4044778065920911E-033
  -6.3599999999999998E-010     5.4716448191144426E-033
  -6.3199999999999999E-010     4.4445514872967747E-033
  -6.2800000000000000E-010     1.9935416243816525E-033
  -6.2400000000000002E-010    -2.0826022191847965E-033
  -6.2000000000000003E-010    -7.7563158029018605E-033
  -6.1600000000000004E-010    -1.4670069581231386E-032
  -6.1199999999999995E-010    -2.2053628778650301E-032
  -6.0799999999999997E-010    -2.8683919441119646E-032
  -6.0399999999999998E-010    -3.2913918230136907E-032
  -6.0000000000000000E-010    -3.2795287340253389E-032
  -5.9600000000000001E-010    -2.6312347833397635E-032
  -5.9200000000000002E-010    -1.1731814922183747E-032
  -5.8800000000000004E-010     1.1946920837482716E-032
  -5.8400000000000005E-010     4.4480814968310175E-032
  -5.7999999999999996E-010     8.3879127379564245E-032
  -5.7599999999999998E-010     1.2600048714817701E-031
  -5.7199999999999999E-010     1.6436581332749769E-031
  -5.6800000000000000E-010     1.9031074864660323E-031
  -5.6400000000000002E-010     1.9359090685785699E-031
  -5.6000000000000003E-010     1.6352097378262889E-031
  -5.5600000000000004E-010     9.0667466196252647E-032
  -5.5199999999999995E-010    -3.0971255123657927E-032
  -5.4799999999999997E-010    -2.0147455955567104E-031
  -5.4399999999999998E-010    -4.1249780078240055E-031
  -5.4000000000000000E-010    -6.4517722145409302E-031
  -5.3600000000000001E-010    -8.6895598698046165E-031
  -5.3200000000000002E-010    -1.0418933993196701E-030
  -5.2800000000000004E-010    -1.1129917175161228E-030
  -5.2400000000000005E-010    -1.0269539005557548E-030
  -5.1999999999999996E-010    -7.3154892582986145E-031
  -5.1599999999999998E-010    -1.8740945226459432E-031
  -5.1199999999999999E-010     6.2036789596256046E-031
  -5.0800000000000000E-010     1.6699725382236592E-030
  -5.0400000000000002E-010     2.8916730329083246E-030
  -5.0000000000000003E-010     4.1598127014560890E-030
  -4.9600000000000004E-010     5.2904806566639450E-030
  -4.9199999999999996E-010     6.0473756387059797E-030
  -4.8799999999999997E-010     6.1580594344628725E-030
  -4.8399999999999998E-010     5.3420184667438014E-030
  -4.8000000000000000E-010     3.3507069623274159E-030
  -4.7600000000000001E-010     1.8005906551104501E-032
  -4.7200000000000002E-010    -4.6826056325442236E-030
  -4.6800000000000004E-010    -1.0580178151972723E-029
  -4.6400000000000005E-010    -1.7256034384413505E-029
  -4.5999999999999996E-010    -2.4011326951579848E-029
  -4.5599999999999998E-010    -2.9863653282851567E-029
  -4.5199999999999999E-010    -3.3583866832128052E-029
  -4.4800000000000000E-010    -3.3782415163065654E-029
  -4.4400000000000002E-010    -2.9050745336713154E-029
  -4.4000000000000003E-010    -1.8157599807195055E-029
  -4.3600000000000005E-010    -2.9219810858163376E-031
  -4.3199999999999996E-010     2.4663124839343339E-029
  -4.2799999999999997E-010     5.5858317937496161E-029
  -4.2399999999999998E-010     9.1236609809996572E-029
  -4.2000000000000000E-010     1.2737660095696960E-028
  -4.1600000000000001E-010     1.5946613272671587E-028
  -4.1200000000000002E-010     1.8145774898267549E-028
  -4.0800000000000004E-010     1.8644886865591911E-028
  -4.0400000000000005E-010     1.6731405650882769E-028
  -3.9999999999999996E-010     1.1759318980307072E-028
  -3.9599999999999998E-010     3.2606096273451016E-029
  -3.9199999999999999E-010    -8.9275176550833664E-029
  -3.8800000000000000E-010    -2.4530921183869365E-028
  -3.8400000000000002E-010    -4.2718045798043650E-028
  -3.8000000000000003E-010    -6.2010240125357040E-028
  -3.7600000000000005E-010    -8.0245031505653398E-028
  -3.7200000000000006E-010    -9.4615324081915916E-028
  -3.6799999999999997E-010    -1.0180532130609221E-027
  -3.6399999999999998E-010    -9.8238961272270438E-028
  -3.6000000000000000E-010    -8.0447523779989322E-028
  -3.5600000000000001E-010    -4.5550563930300551E-028
  -3.5200000000000003E-010     8.1718597821267736E-029
  -3.4800000000000004E-010     8.0656049029940638E-028
  -3.4400000000000005E-010     1.6944077427962669E-027
  -3.3999999999999996E-010     2.6914125637915395E-027
  -3.3599999999999998E-010     3.7110478320052874E-027
  -3.3199999999999999E-010     4.6335070307940576E-027
  -3.2800000000000000E-010     5.3089587808674030E-027
  -3.2400000000000002E-010     5.5655492717998048E-027
  -3.2000000000000003E-010     5.2227530009981543E-027
  -3.1600000000000005E-010     4.1102488130866910E-027
  -3.1200000000000006E-010     2.0918927202967561E-027
  -3.0799999999999997E-010    -9.0636564669282463E-028
  -3.0399999999999998E-010    -4.8666115764288145E-027
  -3.0000000000000000E-010    -9.6499867717753566E-027
  -2.9600000000000001E-010    -1.4972254884116550E-026
  -2.9200000000000003E-010    -2.0388214866020030E-026
  -2.8800000000000004E-010    -2.5289589477942461E-026
  -2.8400000000000005E-010    -2.8920990477096517E-026
  -2.7999999999999996E-010    -3.0417971141292083E-026
  -2.7599999999999998E-010    -2.8869884000089181E-026
  -2.7199999999999999E-010    -2.3408484397447442E-026
  -2.6800000000000011E-010    -1.3320526519250783E-026
  -2.6399999999999992E-010     1.8205214874240242E-027
  -2.5999999999999993E-010     2.2012183647040246E-026
  -2.5599999999999994E-010     4.6682363239989546E-026
  -2.5199999999999996E-010     7.4566386812710492E-026
  -2.4799999999999997E-010     1.0362066396790977E-025
  -2.4399999999999998E-010     1.3099370597075903E-025
  -2.4000000000000000E-010     1.5307572229682283E-025
  -2.3600000000000001E-010     1.6564577708724933E-025
  -2.3200000000000003E-010     1.6413147229800771E-025
  -2.2800000000000004E-010     1.4398819258007307E-025
  -2.2400000000000005E-010     1.0119510773655992E-025
  -2.2000000000000007E-010     3.2851785760150242E-026
  -2.1600000000000008E-010    -6.2155762043867221E-026
  -2.1200000000000010E-010    -1.8246770587523773E-025
  -2.0800000000000011E-010    -3.2360597819786086E-025
  -2.0399999999999992E-010    -4.7745219573195427E-025
  -1.9999999999999993E-010    -6.3193877110585317E-025
  -1.9599999999999994E-010    -7.7104891901898637E-025
  -1.9199999999999996E-010    -8.7521948066755655E-025
  -1.8799999999999997E-010    -9.2222730757916894E-025
  -1.8399999999999998E-010    -8.8861670542082894E-025
  -1.8000000000000000E-010    -7.5168770860674426E-025
  -1.7600000000000001E-010    -4.9201629367527945E-025
  -1.7200000000000003E-010    -9.6417377826820548E-026
  -1.6800000000000004E-010     4.3880821726438510E-025
  -1.6400000000000005E-010     1.1045746751888853E-024
  -1.6000000000000007E-010     1.8759640862960914E-024
  -1.5600000000000008E-010     2.7098013043823556E-024
  -1.5200000000000010E-010     3.5432630246776953E-024
  -1.4800000000000011E-010     4.2939639668996914E-024
  -1.4399999999999992E-010     4.8619363244799095E-024
  -1.3999999999999993E-010     5.1338764000319363E-024
  -1.3599999999999994E-010     4.9899155957161149E-024
  -1.3199999999999996E-010     4.3130185076338936E-024
  -1.2799999999999997E-010     3.0008959087880175E-024
  -1.2399999999999999E-010     9.8005712281768375E-025
  -1.2000000000000000E-010    -1.7786693349064681E-024
  -1.1600000000000001E-010    -5.2441485049619238E-024
  -1.1200000000000003E-010    -9.3097979820899387E-024
  -1.0800000000000004E-010    -1.3780912498170454E-023
  -1.0400000000000005E-010    -1.8366286416623876E-023
  -1.0000000000000007E-010    -2.2676108065439820E-023
  -9.6000000000000082E-011    -2.6228089975271593E-023
  -9.2000000000000096E-011    -2.8463612917861527E-023
  -8.8000000000000110E-011    -2.8775288706069405E-023
  -8.3999999999999917E-011    -2.6546731405270093E-023
  -7.9999999999999931E-011    -2.1204478580413347E-023
  -7.5999999999999944E-011    -1.2281001560828350E-023
  -7.1999999999999958E-011     5.1357502405911672E-025
  -6.7999999999999972E-011     1.7214748287958237E-023
  -6.3999999999999986E-011     3.7527018873685976E-023
  -6.0000000000000000E-011     6.0753920667203430E-023
  -5.6000000000000013E-011     8.5742389882845376E-023
  -5.2000000000000027E-011     1.1085002758227269E-022
  -4.8000000000000041E-011     1.3394426505963457E-022
  -4.4000000000000055E-011     1.5244205616687576E-022
  -4.0000000000000069E-011     1.6339805934116563E-022
  -3.6000000000000082E-011     1.6364684713800429E-022
  -3.2000000000000096E-011     1.5000249435113068E-022
  -2.8000000000000110E-011     1.1951447186840171E-022
  -2.3999999999999917E-011     6.9774696579653293E-023
  -1.9999999999999931E-011    -7.3537110690152697E-025
  -1.5999999999999945E-011    -9.2274397991830766E-023
  -1.1999999999999959E-011    -2.0347055249576431E-022
  -7.9999999999999724E-012    -3.3097990875755629E-022
  -3.9999999999999862E-012    -4.6920744871882147E-022
   0.0000000000000000         -6.1012951034037649E-022
   3.9999999999999862E-012    -7.4325661647638585E-022
   7.9999999999999724E-012    -8.5577711066798455E-022
   1.1999999999999959E-011    -9.3291644857572652E-022
   1.5999999999999945E-011    -9.5854117513217085E-022
   1.9999999999999931E-011    -9.1602386950368911E-022
   2.3999999999999917E-011    -7.8937309682933008E-022
   2.7999999999999903E-011    -5.6460913115242606E-022
   3.1999999999999889E-011    -2.3134856871990358E-022
   3.6000000000000082E-011     2.1546694329735440E-022
   4.0000000000000069E-011     7.7378702287804398E-022
   4.4000000000000055E-011     1.4327297314205363E-021
   4.8000000000000041E-011     2.1710587061643406E-021
   5.2000000000000027E-011     2.9560195840440175E-021
   5.6000000000000013E-011     3.7427042933955405E-021
   6.0000000000000000E-011     4.4741213824837176E-021
   6.3999999999999986E-011     5.0821383106980372E-021
   6.7999999999999972E-011     5.4894407518492927E-021
   7.1999999999999958E-011     5.6126228084599394E-021
   7.5999999999999944E-011     5.3664650864946366E-021
   7.9999999999999931E-011     4.6693917448017594E-021
   8.3999999999999917E-011     3.4500212970445432E-021
   8.7999999999999903E-011     1.6546217385304328E-021
   9.1999999999999889E-011    -7.4481298224529398E-022
   9.6000000000000082E-011    -3.7422604108313581E-021
   1.0000000000000007E-010    -7.2896438548102809E-021
   1.0400000000000005E-010    -1.1289670385059641E-020
   1.0800000000000004E-010    -1.5590212278084281E-020
   1.1200000000000003E-010    -1.9980946746239104E-020
   1.1600000000000001E-010    -2.4193000508559618E-020
   1.2000000000000000E-010    -2.7902294863922668E-020
   1.2399999999999999E-010    -3.0737249618294382E-020
   1.2799999999999997E-010    -3.2291292575907931E-020
   1.3199999999999996E-010    -3.2140509828701274E-020
   1.3599999999999994E-010    -2.9866457846647751E-020
   1.3999999999999993E-010    -2.5083880490625108E-020
   1.4399999999999992E-010    -1.7472655632401112E-020
   1.4799999999999990E-010    -6.8129681021255177E-021
   1.5199999999999989E-010     6.9777709144862292E-021
   1.5600000000000008E-010     2.3808099798610176E-020
   1.6000000000000007E-010     4.3378078336490620E-020
   1.6400000000000005E-010     6.5149804869833693E-020
   1.6800000000000004E-010     8.8325764197038978E-020
   1.7200000000000003E-010     1.1183788197036731E-019
   1.7600000000000001E-010     1.3435035197342519E-019
   1.8000000000000000E-010     1.5427881314044401E-019
   1.8399999999999998E-010     1.6982838693976043E-019
   1.8799999999999997E-010     1.7905204530578970E-019
   1.9199999999999996E-010     1.7993043356813698E-019
   1.9599999999999994E-010     1.7047277356163169E-019
   1.9999999999999993E-010     1.4883754152288084E-019
   2.0399999999999992E-010     1.1347006441528831E-019
   2.0799999999999990E-010     6.3252614436141967E-020
   2.1199999999999989E-010    -2.3388271306619813E-021
   2.1600000000000008E-010    -8.3078569830712390E-020
   2.2000000000000007E-010    -1.7784482690057148E-019
   2.2400000000000005E-010    -2.8449295185838507E-019
   2.2800000000000004E-010    -3.9975917435035467E-019
   2.3200000000000003E-010    -5.1920586426058979E-019
   2.3600000000000001E-010    -6.3721982565109430E-019
   2.4000000000000000E-010    -7.4707354690118681E-019
   2.4399999999999998E-010    -8.4105848018369815E-019
   2.4799999999999997E-010    -9.1069742008724414E-019
   2.5199999999999996E-010    -9.4703856632398860E-019
   2.5599999999999994E-010    -9.4103344187200329E-019
   2.5999999999999993E-010    -8.8399168721580688E-019
   2.6399999999999992E-010    -7.6810590644503020E-019
   2.6799999999999990E-010    -5.8703157256260401E-019
   2.7199999999999989E-010    -3.3650180362564476E-019
   2.7600000000000008E-010    -1.4951869567647958E-020
   2.8000000000000007E-010     3.7587560078322015E-019
   2.8400000000000005E-010     8.3038014716233984E-019
   2.8800000000000004E-010     1.3386447900631062E-018
   2.9200000000000003E-010     1.8861086950121431E-018
   2.9600000000000001E-010     2.4534102522065776E-018
   3.0000000000000000E-010     3.0164398351274812E-018
   3.0399999999999998E-010     3.5466353108137072E-018
   3.0799999999999997E-010     4.0115496925572533E-018
   3.1199999999999996E-010     4.3757076854275605E-018
   3.1599999999999994E-010     4.6017629119484767E-018
   3.1999999999999993E-010     4.6519487868926714E-018
   3.2399999999999992E-010     4.4898064975812613E-018
   3.2799999999999990E-010     4.0821495578386211E-018
   3.3199999999999989E-010     3.4012163387414017E-018
   3.3600000000000008E-010     2.4269408861951415E-018
   3.4000000000000007E-010     1.1492496913025932E-018
   3.4400000000000005E-010    -4.2971350398123541E-019
   3.4800000000000004E-010    -2.2935505677955183E-018
   3.5200000000000003E-010    -4.4098851339770504E-018
   3.5600000000000001E-010    -6.7290807823035194E-018
   3.6000000000000000E-010    -9.1835287325885224E-018
   3.6399999999999998E-010    -1.1687631094274163E-017
   3.6799999999999997E-010    -1.4138587928783889E-017
   3.7199999999999996E-010    -1.6418079321298129E-017
   3.7599999999999994E-010    -1.8394903673318021E-017
   3.7999999999999993E-010    -1.9928612334276971E-017
   3.8399999999999991E-010    -2.0874122787816867E-017
   3.8799999999999990E-010    -2.1087260761892183E-017
   3.9199999999999989E-010    -2.0431134482570299E-017
   3.9599999999999987E-010    -1.8783175635405570E-017
   4.0000000000000007E-010    -1.6042673326458445E-017
   4.0400000000000005E-010    -1.2138512356925912E-017
   4.0800000000000004E-010    -7.0368453233229102E-018
   4.1200000000000002E-010    -7.4835526326056056E-019
   4.1600000000000001E-010     6.6652571805998971E-018
   4.2000000000000000E-010     1.5085938032005826E-017
   4.2399999999999998E-010     2.4335499765713828E-017
   4.2799999999999997E-010     3.4173742780318635E-017
   4.3199999999999996E-010     4.4298830524660900E-017
   4.3599999999999994E-010     5.4350252872371673E-017
   4.3999999999999993E-010     6.3914532013737778E-017
   4.4399999999999991E-010     7.2533899580327520E-017
   4.4799999999999990E-010     7.9717943348015395E-017
   4.5199999999999989E-010     8.4958178850652845E-017
   4.5599999999999987E-010     8.7745334146148171E-017
   4.6000000000000007E-010     8.7589069802269775E-017
   4.6400000000000005E-010     8.4039617941470550E-017
   4.6800000000000004E-010     7.6710797714251575E-017
   4.7200000000000002E-010     6.5303646194901498E-017
   4.7600000000000001E-010     4.9629893767280786E-017
   4.8000000000000000E-010     2.9634298001360712E-017
   4.8399999999999998E-010     5.4149021336053141E-018
   4.8799999999999997E-010    -2.2759821614833390E-017
   4.9199999999999996E-010    -5.4437983648137130E-017
   4.9599999999999994E-010    -8.8976403890751065E-017
   4.9999999999999993E-010    -1.2553873987765763E-016
   5.0399999999999991E-010    -1.6310050856787530E-016
   5.0799999999999990E-010    -2.0046142457047542E-016
   5.1199999999999989E-010    -2.3626565283470001E-016
   5.1599999999999987E-010    -2.6902997249545790E-016
   5.2000000000000007E-010    -2.9717997429693007E-016
   5.2400000000000005E-010    -3.1909369602424314E-016
   5.2800000000000004E-010    -3.3315203419872058E-016
   5.3200000000000002E-010    -3.3779483354085885E-016
   5.3600000000000001E-010    -3.3158176746341138E-016
   5.4000000000000000E-010    -3.1325549496551801E-016
   5.4399999999999998E-010    -2.8180619395537405E-016
   5.4799999999999997E-010    -2.3653474461413949E-016
   5.5199999999999995E-010    -1.7711241874894085E-016
   5.5599999999999994E-010    -1.0363503034449127E-016
   5.5999999999999993E-010    -1.6668756405942394E-017
   5.6399999999999991E-010     8.2714527539708672E-017
   5.6799999999999990E-010     1.9291454629888848E-016
   5.7199999999999989E-010     3.1179460135950538E-016
   5.7599999999999987E-010     4.3668987412993836E-016
   5.8000000000000007E-010     5.6443310989705702E-016
   5.8400000000000005E-010     6.9139890176749468E-016
   5.8800000000000004E-010     8.1356641081041533E-016
   5.9200000000000002E-010     9.2660057534133085E-016
   5.9600000000000001E-010     1.0259506579115587E-015
   6.0000000000000000E-010     1.1069648065143377E-015
   6.0399999999999998E-010     1.1650186447741337E-015
   6.0799999999999997E-010     1.1956549794433761E-015
   6.1199999999999995E-010     1.1947309723770444E-015
   6.1599999999999994E-010     1.1585697594302263E-015
   6.1999999999999993E-010     1.0841123869930316E-015
   6.2399999999999991E-010     9.6906519572341391E-016
   6.2799999999999990E-010     8.1203857513184344E-016
   6.3199999999999989E-010     6.1267227151794079E-016
   6.3599999999999987E-010     3.7174261704764401E-016
   6.4000000000000006E-010     9.1247974201762458E-017
   6.4400000000000005E-010    -2.2553239543418885E-016
   6.4800000000000004E-010    -5.7400860560749664E-016
   6.5200000000000002E-010    -9.4828271296687057E-016
   6.5600000000000001E-010    -1.3411856159352082E-015
   6.6000000000000000E-010    -1.7443496877848219E-015
   6.6399999999999978E-010    -2.1483169586266708E-015
   6.6800000000000017E-010    -2.5426834286487498E-015
   6.7200000000000016E-010    -2.9162768391558935E-015
   6.7600000000000015E-010    -3.2573672661362891E-015
   6.8000000000000013E-010    -3.5539046071240604E-015
   6.8400000000000012E-010    -3.7937830672370503E-015
   6.8800000000000011E-010    -3.9651221623570711E-015
   6.9200000000000009E-010    -4.0565669923097044E-015
   6.9600000000000008E-010    -4.0575910551429490E-015
   7.0000000000000006E-010    -3.9588066847023856E-015
   7.0400000000000005E-010    -3.7522687119427695E-015
   7.0800000000000004E-010    -3.4317698676683841E-015
   7.1200000000000002E-010    -2.9931160682409001E-015
   7.1600000000000001E-010    -2.4343794666723658E-015
   7.2000000000000000E-010    -1.7561239751474161E-015
   7.2399999999999998E-010    -9.6159245930461286E-016
   7.2799999999999997E-010    -5.6855339579130851E-017
   7.3199999999999995E-010     9.4908570020076351E-016
   7.3599999999999994E-010     2.0442439262215613E-015
   7.3999999999999993E-010     3.2136449077065516E-015
   7.4399999999999991E-010     4.4393797211728200E-015
   7.4799999999999990E-010     5.7007130000715826E-015
   7.5199999999999988E-010     6.9742520237402827E-015
   7.5599999999999987E-010     8.2341707576171385E-015
   7.5999999999999986E-010     9.4524946680696596E-015
   7.6399999999999984E-010     1.0599445888320647E-014
   7.6799999999999983E-010     1.1643835818219254E-014
   7.7199999999999982E-010     1.2553524639614866E-014
   7.7599999999999980E-010     1.3295921065795982E-014
   7.7999999999999979E-010     1.3838536301037714E-014
   7.8399999999999977E-010     1.4149583739928457E-014
   7.8800000000000017E-010     1.4198610853948523E-014
   7.9200000000000016E-010     1.3957173429696169E-014
   7.9600000000000015E-010     1.3399530135904336E-014
   8.0000000000000013E-010     1.2503361654412875E-014
   8.0400000000000012E-010     1.1250494046305498E-014
   8.0800000000000010E-010     9.6276314354091541E-015
   8.1200000000000009E-010     7.6270683630026703E-015
   8.1600000000000008E-010     5.2473877429652901E-015
   8.2000000000000006E-010     2.4941204886843456E-015
   8.2400000000000005E-010    -6.1964663492596869E-016
   8.2800000000000004E-010    -4.0727283809427595E-015
   8.3200000000000002E-010    -7.8353817168187871E-015
   8.3600000000000001E-010    -1.1868944988346935E-014
   8.3999999999999999E-010    -1.6125598103457019E-014
   8.4399999999999998E-010    -2.0548256970734737E-014
   8.4799999999999997E-010    -2.5070618392167870E-014
   8.5199999999999995E-010    -2.9617381138745515E-014
   8.5599999999999994E-010    -3.4104653373305720E-014
   8.5999999999999993E-010    -3.8440543879532655E-014
   8.6399999999999991E-010    -4.2525973519520109E-014
   8.6799999999999990E-010    -4.6255717084296582E-014
   8.7199999999999988E-010    -4.9519646738191859E-014
   8.7599999999999987E-010    -5.2204205856165250E-014
   8.7999999999999986E-010    -5.4194109865963671E-014
   8.8399999999999984E-010    -5.5374243601923465E-014
   8.8799999999999983E-010    -5.5631758558547863E-014
   8.9199999999999981E-010    -5.4858353103200916E-014
   8.9599999999999980E-010    -5.2952688214073146E-014
   8.9999999999999979E-010    -4.9822921802759650E-014
   9.0399999999999977E-010    -4.5389351457055602E-014
   9.0799999999999976E-010    -3.9587050407488063E-014
   9.1200000000000016E-010    -3.2368520434506795E-014
   9.1600000000000015E-010    -2.3706300729961825E-014
   9.2000000000000013E-010    -1.3595420904518655E-014
   9.2400000000000012E-010    -2.0557174110107871E-015
   9.2800000000000010E-010     1.0866092707147156E-014
   9.3200000000000009E-010     2.5094623305891312E-014
   9.3600000000000008E-010     4.0524370290652307E-014
   9.4000000000000006E-010     5.7018673365720143E-014
   9.4400000000000005E-010     7.4409120358324052E-014
   9.4800000000000004E-010     9.2495476067864938E-014
   9.5200000000000002E-010     1.1104612780524558E-013
   9.5600000000000001E-010     1.2979912554932996E-013
   9.5999999999999999E-010     1.4846384213151976E-013
   9.6399999999999998E-010     1.6672320262647162E-013
   9.6799999999999997E-010     1.8423660492169924E-013
   9.7199999999999995E-010     2.0064349758474261E-013
   9.7599999999999994E-010     2.1556747272636910E-013
   9.7999999999999992E-010     2.2862113135782250E-013
   9.8399999999999991E-010     2.3941135532388675E-013
   9.8799999999999990E-010     2.4754528396736176E-013