  -1.2000000000000000E-009     0.0000000000000000
  -1.1960000000000000E-009    -6.0019732239791068E-011
  -1.1920000000000000E-009    -1.8119554467954657E-010
  -1.1880000000000000E-009    -3.6074537801411566E-010
  -1.1840000000000000E-009    -5.9228316695580929E-010
  -1.1800000000000001E-009    -8.6642804042469379E-010
  -1.1760000000000001E-009    -1.1716552172913453E-009
  -1.1720000000000001E-009    -1.4953154270358482E-009
  -1.1679999999999999E-009    -1.8247359179213163E-009
  -1.1639999999999999E-009    -2.1483099743591083E-009
  -1.1599999999999999E-009    -2.4564832390439051E-009
  -1.1559999999999999E-009    -2.7425575144235381E-009
  -1.1520000000000000E-009    -3.0032449860328825E-009
  -1.1480000000000000E-009    -3.2389346760197668E-009
  -1.1440000000000000E-009    -3.4536511428484573E-009
  -1.1400000000000000E-009    -3.6547214143922702E-009
  -1.1360000000000000E-009    -3.8521812406600020E-009
  -1.1320000000000000E-009    -4.0579819504671377E-009
  -1.1280000000000000E-009    -4.2850745174405347E-009
  -1.1240000000000000E-009    -4.5464498832359368E-009
  -1.1200000000000001E-009    -4.8542272423901522E-009
  -1.1160000000000001E-009    -5.2188653398843599E-009
  -1.1120000000000001E-009    -5.6485705002273789E-009
  -1.1079999999999999E-009    -6.1489418001769991E-009
  -1.1039999999999999E-009    -6.7228853595224791E-009
  -1.0999999999999999E-009    -7.3707955294821659E-009
  -1.0959999999999999E-009    -8.0909767774528518E-009
  -1.0920000000000000E-009    -8.8802645237251454E-009
  -1.0880000000000000E-009    -9.7347818694970556E-009
  -1.0840000000000000E-009    -1.0650754056484857E-008
  -1.0800000000000000E-009    -1.1625306939322400E-008
  -1.0760000000000000E-009    -1.2657174863761611E-008
  -1.0720000000000000E-009    -1.3747248672757451E-008
  -1.0680000000000000E-009    -1.4898920319694753E-008
  -1.0640000000000000E-009    -1.6118203660653307E-008
  -1.0600000000000001E-009    -1.7413608333072261E-008
  -1.0560000000000001E-009    -1.8795805800664311E-008
  -1.0520000000000001E-009    -2.0277116874467538E-008
  -1.0480000000000001E-009    -2.1870873112561640E-008
  -1.0439999999999999E-009    -2.3590736475398444E-008
  -1.0399999999999999E-009    -2.5450038521057650E-008
  -1.0359999999999999E-009    -2.7461206641987701E-008
  -1.0320000000000000E-009    -2.9635348397505368E-008
  -1.0280000000000000E-009    -3.1982036574618178E-008
  -1.0240000000000000E-009    -3.4509319846165454E-008
  -1.0200000000000000E-009    -3.7223966131705311E-008
  -1.0160000000000000E-009    -4.0131915568508703E-008
  -1.0120000000000000E-009    -4.3238916447307929E-008
  -1.0080000000000000E-009    -4.6551260624028146E-008
  -1.0040000000000000E-009    -5.0076579327651416E-008
  -1.0000000000000001E-009    -5.3824606993657653E-008
  -9.9600000000000008E-010    -5.7807838516055199E-008
  -9.9199999999999988E-010    -6.2042033732723212E-008
  -9.8799999999999990E-010    -6.6546505195219652E-008
  -9.8399999999999991E-010    -7.1344139485063351E-008
  -9.7999999999999992E-010    -7.6461205367195362E-008
  -9.7599999999999994E-010    -8.1926891937200708E-008
  -9.7199999999999995E-010    -8.7772697554555634E-008
  -9.6799999999999997E-010    -9.4031626929336198E-008
  -9.6399999999999998E-010    -1.0073737399807214E-007
  -9.5999999999999999E-010    -1.0792349058874606E-007
  -9.5600000000000001E-010    -1.1562268298348499E-007
  -9.5200000000000002E-010    -1.2386625769522652E-007
  -9.4800000000000004E-010    -1.3268382303976978E-007
  -9.4400000000000005E-010    -1.4210321808150184E-007
  -9.4000000000000006E-010    -1.5215071869079111E-007
  -9.3600000000000008E-010    -1.6285163439988537E-007
  -9.3200000000000009E-010    -1.7423097631308337E-007
  -9.2800000000000000E-010    -1.8631445186656492E-007
  -9.2400000000000001E-010    -1.9912943116651149E-007
  -9.1999999999999992E-010    -2.1270609806833818E-007
  -9.1599999999999994E-010    -2.2707840230395959E-007
  -9.1199999999999995E-010    -2.4228495476563694E-007
  -9.0799999999999997E-010    -2.5836968120529491E-007
  -9.0399999999999998E-010    -2.7538212066247070E-007
  -8.9999999999999999E-010    -2.9337766704884416E-007
  -8.9600000000000001E-010    -3.1241725650943408E-007
  -8.9200000000000002E-010    -3.3256688425353786E-007
  -8.8800000000000004E-010    -3.5389689401199576E-007
  -8.8400000000000005E-010    -3.7648109696419851E-007
  -8.8000000000000006E-010    -4.0039583382167621E-007
  -8.7599999999999997E-010    -4.2571900848997757E-007
  -8.7199999999999999E-010    -4.5252920699567767E-007
  -8.6800000000000000E-010    -4.8090498694364214E-007
  -8.6400000000000001E-010    -5.1092428066112916E-007
  -8.5999999999999993E-010    -5.4266462257146486E-007
  -8.5599999999999994E-010    -5.7620280813353020E-007
  -8.5199999999999995E-010    -6.1161546227594954E-007
  -8.4799999999999997E-010    -6.4897977836153586E-007
  -8.4399999999999998E-010    -6.8837420030831709E-007
  -8.3999999999999999E-010    -7.2987961630133213E-007
  -8.3600000000000001E-010    -7.7358009775707615E-007
  -8.3200000000000002E-010    -8.1956409303529654E-007
  -8.2800000000000004E-010    -8.6792522324685706E-007
  -8.2400000000000005E-010    -9.1876290753134526E-007
  -8.2000000000000006E-010    -9.7218264727416681E-007
  -8.1599999999999997E-010    -1.0282966513841529E-006
  -8.1199999999999999E-010    -1.0872230404856964E-006
  -8.0800000000000000E-010    -1.1490857332319138E-006
  -8.0400000000000002E-010    -1.2140138778704568E-006
  -7.9999999999999993E-010    -1.2821411701224861E-006
  -7.9599999999999994E-010    -1.3536044889406185E-006
  -7.9199999999999995E-010    -1.4285436691352515E-006
  -7.8799999999999997E-010    -1.5071000234456733E-006
  -7.8399999999999998E-010    -1.5894162288532243E-006
  -7.7999999999999999E-010    -1.6756358718339470E-006
  -7.7600000000000001E-010    -1.7659024251770461E-006
  -7.7200000000000002E-010    -1.8603601574795903E-006
  -7.6800000000000004E-010    -1.9591539057728369E-006
  -7.6400000000000005E-010    -2.0624295302695828E-006
  -7.6000000000000006E-010    -2.1703344827983528E-006
  -7.5600000000000008E-010    -2.2830186026112642E-006
  -7.5199999999999999E-010    -2.4006344574445393E-006
  -7.4800000000000000E-010    -2.5233380256395321E-006
  -7.4400000000000002E-010    -2.6512896056374302E-006
  -7.3999999999999993E-010    -2.7846529064845527E-006
  -7.3599999999999994E-010    -2.9235959573270520E-006
  -7.3199999999999995E-010    -3.0682906526635634E-006
  -7.2799999999999997E-010    -3.2189120702241780E-006
  -7.2399999999999998E-010    -3.3756380162230926E-006
  -7.2000000000000000E-010    -3.5386474337428808E-006
  -7.1600000000000001E-010    -3.7081201753608184E-006
  -7.1200000000000002E-010    -3.8842358662805054E-006
  -7.0800000000000004E-010    -4.0671716305951122E-006
  -7.0400000000000005E-010    -4.2571036829031073E-006
  -6.9999999999999996E-010    -4.4542043724504765E-006
  -6.9599999999999997E-010    -4.6586415010096971E-006
  -6.9199999999999999E-010    -4.8705801418691408E-006
  -6.8800000000000000E-010    -5.0901803660963196E-006
  -6.8400000000000002E-010    -5.3175990615272895E-006
  -6.8000000000000003E-010    -5.5529885685245972E-006
  -6.7600000000000004E-010    -5.7964975894719828E-006
  -6.7199999999999995E-010    -6.0482720982690807E-006
  -6.6799999999999997E-010    -6.3084544308367185E-006
  -6.6399999999999998E-010    -6.5771851041063201E-006
  -6.6000000000000000E-010    -6.8546005422831513E-006
  -6.5600000000000001E-010    -7.1408353505830746E-006
  -6.5200000000000002E-010    -7.4360195867484435E-006
  -6.4800000000000004E-010    -7.7402792157954536E-006
  -6.4400000000000005E-010    -8.0537338362773880E-006
  -6.3999999999999996E-010    -8.3764962255372666E-006
  -6.3599999999999998E-010    -8.7086718849604949E-006
  -6.3199999999999999E-010    -9.0503554019960575E-006
  -6.2800000000000000E-010    -9.4016304501565173E-006
  -6.2400000000000002E-010    -9.7625661510392092E-006
  -6.2000000000000003E-010    -1.0133219802810345E-005
  -6.1600000000000004E-010    -1.0513632332731504E-005
  -6.1199999999999995E-010    -1.0903829206654336E-005
  -6.0799999999999997E-010    -1.1303817700536456E-005
  -6.0399999999999998E-010    -1.1713591447914951E-005
  -6.0000000000000000E-010    -1.2133122254454065E-005
  -5.9600000000000001E-010    -1.2562368283397518E-005
  -5.9200000000000002E-010    -1.3001269508094992E-005
  -5.8800000000000004E-010    -1.3449748621496838E-005
  -5.8400000000000005E-010    -1.3907711945648771E-005
  -5.7999999999999996E-010    -1.4375051250681281E-005
  -5.7599999999999998E-010    -1.4851637388346717E-005
  -5.7199999999999999E-010    -1.5337325748987496E-005
  -5.6800000000000000E-010    -1.5831956261536106E-005
  -5.6400000000000002E-010    -1.6335345208062790E-005
  -5.6000000000000003E-010    -1.6847290680743754E-005
  -5.5600000000000004E-010    -1.7367570762871765E-005
  -5.5199999999999995E-010    -1.7895941709866747E-005
  -5.4799999999999997E-010    -1.8432130673318170E-005
  -5.4399999999999998E-010    -1.8975842976942658E-005
  -5.4000000000000000E-010    -1.9526756659615785E-005
  -5.3600000000000001E-010    -2.0084520656382665E-005
  -5.3200000000000002E-010    -2.0648756617447361E-005
  -5.2800000000000004E-010    -2.1219057089183480E-005
  -5.2400000000000005E-010    -2.1794981876155362E-005
  -5.1999999999999996E-010    -2.2376061679096892E-005
  -5.1599999999999998E-010    -2.2961798094911501E-005
  -5.1199999999999999E-010    -2.3551665435661562E-005
  -5.0800000000000000E-010    -2.4145108909578994E-005
  -5.0400000000000002E-010    -2.4741542802075855E-005
  -5.0000000000000003E-010    -2.5340355932712555E-005
  -4.9600000000000004E-010    -2.5940909836208448E-005
  -4.9199999999999996E-010    -2.6542540581431240E-005
  -4.8799999999999997E-010    -2.7144555133418180E-005
  -4.8399999999999998E-010    -2.7746234991354868E-005
  -4.8000000000000000E-010    -2.8346838007564656E-005
  -4.7600000000000001E-010    -2.8945592930540442E-005
  -4.7200000000000002E-010    -2.9541704861912876E-005
  -4.6800000000000004E-010    -3.0134349799482152E-005
  -4.6400000000000005E-010    -3.0722672818228602E-005
  -4.5999999999999996E-010    -3.1305800803238526E-005
  -4.5599999999999998E-010    -3.1882824259810150E-005
  -4.5199999999999999E-010    -3.2452815503347665E-005
  -4.4800000000000000E-010    -3.3014810469467193E-005
  -4.4400000000000002E-010    -3.3567823265912011E-005
  -4.4000000000000003E-010    -3.4110846172552556E-005
  -4.3600000000000005E-010    -3.4642842365428805E-005
  -4.3199999999999996E-010    -3.5162760468665510E-005
  -4.2799999999999997E-010    -3.5669530916493386E-005
  -4.2399999999999998E-010    -3.6162058677291498E-005
  -4.2000000000000000E-010    -3.6639241443481296E-005
  -4.1600000000000001E-010    -3.7099955079611391E-005
  -4.1200000000000002E-010    -3.7543075450230390E-005
  -4.0800000000000004E-010    -3.7967456592014059E-005
  -4.0400000000000005E-010    -3.8371956179616973E-005
  -3.9999999999999996E-010    -3.8755420973757282E-005
  -3.9599999999999998E-010    -3.9116694097174332E-005
  -3.9199999999999999E-010    -3.9454618672607467E-005
  -3.8800000000000000E-010    -3.9768030546838418E-005
  -3.8400000000000002E-010    -4.0055765566648915E-005
  -3.8000000000000003E-010    -4.0316666854778305E-005
  -3.7600000000000005E-010    -4.0549577533965930E-005
  -3.7200000000000006E-010    -4.0753340726951137E-005
  -3.6799999999999997E-010    -4.0926814108388498E-005
  -3.6399999999999998E-010    -4.1068851714953780E-005
  -3.6000000000000000E-010    -4.1178329411195591E-005
  -3.5600000000000001E-010    -4.1254137613577768E-005
  -3.5200000000000003E-010    -4.1295181290479377E-005
  -3.4800000000000004E-010    -4.1300379962194711E-005
  -3.4400000000000005E-010    -4.1268682252848521E-005
  -3.3999999999999996E-010    -4.1199069528374821E-005
  -3.3599999999999998E-010    -4.1090541344601661E-005
  -3.3199999999999999E-010    -4.0942140913102776E-005
  -3.2800000000000000E-010    -4.0752947825239971E-005
  -3.2400000000000002E-010    -4.0522078052163124E-005
  -3.2000000000000003E-010    -4.0248687582788989E-005
  -3.1600000000000005E-010    -3.9931983337737620E-005
  -3.1200000000000006E-010    -3.9571215893374756E-005
  -3.0799999999999997E-010    -3.9165686757769436E-005
  -3.0399999999999998E-010    -3.8714744732715189E-005
  -3.0000000000000000E-010    -3.8217793189687654E-005
  -2.9600000000000001E-010    -3.7674290069844574E-005
  -2.9200000000000003E-010    -3.7083751522004604E-005
  -2.8800000000000004E-010    -3.6445744626689702E-005
  -2.8400000000000005E-010    -3.5759909223997965E-005
  -2.7999999999999996E-010    -3.5025932447751984E-005
  -2.7599999999999998E-010    -3.4243570553371683E-005
  -2.7199999999999999E-010    -3.3412648917874321E-005
  -2.6800000000000011E-010    -3.2533054763916880E-005
  -2.6399999999999992E-010    -3.1604755349690095E-005
  -2.5999999999999993E-010    -3.0627787054982036E-005
  -2.5599999999999994E-010    -2.9602260838146321E-005
  -2.5199999999999996E-010    -2.8528365874080919E-005
  -2.4799999999999997E-010    -2.7406373192206956E-005
  -2.4399999999999998E-010    -2.6236635676468723E-005
  -2.4000000000000000E-010    -2.5019584427354857E-005
  -2.3600000000000001E-010    -2.3755736037855968E-005
  -2.3200000000000003E-010    -2.2445690774475224E-005
  -2.2800000000000004E-010    -2.1090134396217763E-005
  -2.2400000000000005E-010    -1.9689834516611882E-005
  -2.2000000000000007E-010    -1.8245640603709035E-005
  -2.1600000000000008E-010    -1.6758485799073242E-005
  -2.1200000000000010E-010    -1.5229386917781085E-005
  -2.0800000000000011E-010    -1.3659438991453499E-005
  -2.0399999999999992E-010    -1.2049816177750472E-005
  -1.9999999999999993E-010    -1.0401771760371048E-005
  -1.9599999999999994E-010    -8.7166381490533240E-006
  -1.9199999999999996E-010    -6.9958223321009427E-006
  -1.8799999999999997E-010    -5.2408086048671976E-006
  -1.8399999999999998E-010    -3.4531567507656291E-006
  -1.8000000000000000E-010    -1.6344994264727575E-006
  -1.7600000000000001E-010     2.1345766754166107E-007
  -1.7200000000000003E-010     2.0889374354737811E-006
  -1.6800000000000004E-010     3.9900924093672074E-006
  -1.6400000000000005E-010     5.9150083870918024E-006
  -1.6000000000000007E-010     7.8617049439344555E-006
  -1.5600000000000008E-010     9.8281398095423356E-006
  -1.5200000000000010E-010     1.1812209777417593E-005
  -1.4800000000000011E-010     1.3811756616632920E-005
  -1.4399999999999992E-010     1.5824569345568307E-005
  -1.3999999999999993E-010     1.7848387869889848E-005
  -1.3599999999999994E-010     1.9880906620528549E-005
  -1.3199999999999996E-010     2.1919780920143239E-005
  -1.2799999999999997E-010     2.3962631530594081E-005
  -1.2399999999999999E-010     2.6007046471931972E-005
  -1.2000000000000000E-010     2.8050586479366757E-005
  -1.1600000000000001E-010     3.0090790460235439E-005
  -1.1200000000000003E-010     3.2125179131980985E-005
  -1.0800000000000004E-010     3.4151260479120538E-005
  -1.0400000000000005E-010     3.6166529753245413E-005
  -1.0000000000000007E-010     3.8168473110999912E-005
  -9.6000000000000082E-011     4.0154576709028333E-005
  -9.2000000000000096E-011     4.2122333979932591E-005
  -8.8000000000000110E-011     4.4069238356314600E-005
  -8.3999999999999917E-011     4.5992783270776272E-005
  -7.9999999999999931E-011     4.7890494897728786E-005
  -7.5999999999999944E-011     4.9759903049562126E-005
  -7.1999999999999958E-011     5.1598563004517928E-005
  -6.7999999999999972E-011     5.3404059144668281E-005
  -6.3999999999999986E-011     5.5174012231873348E-005
  -6.0000000000000000E-011     5.6906079407781363E-005
  -5.6000000000000013E-011     5.8597950555849820E-005
  -5.2000000000000027E-011     6.0247373767197132E-005
  -4.8000000000000041E-011     6.1852151702623814E-005
  -4.4000000000000055E-011     6.3410145230591297E-005
  -4.0000000000000069E-011     6.4919266151264310E-005
  -3.6000000000000082E-011     6.6377491748426110E-005
  -3.2000000000000096E-011     6.7782893893308938E-005
  -2.8000000000000110E-011     6.9133595388848335E-005
  -2.3999999999999917E-011     7.0427806349471211E-005
  -1.9999999999999931E-011     7.1663824201095849E-005
  -1.5999999999999945E-011     7.2840011853259057E-005
  -1.1999999999999959E-011     7.3954834078904241E-005
  -7.9999999999999724E-012     7.5006842962466180E-005
  -3.9999999999999862E-012     7.5994677899871022E-005
   0.0000000000000000          7.6917072874493897E-005
   3.9999999999999862E-012     7.7772849181201309E-005
   7.9999999999999724E-012     7.8560944530181587E-005
   1.1999999999999959E-011     7.9280369391199201E-005
   1.5999999999999945E-011     7.9930257925298065E-005
   1.9999999999999931E-011     8.0509846156928688E-005
   2.3999999999999917E-011     8.1018457422032952E-005
   2.7999999999999903E-011     8.1455531471874565E-005
   3.1999999999999889E-011     8.1820624473039061E-005
   3.6000000000000082E-011     8.2113401731476188E-005
   4.0000000000000069E-011     8.2333623140584677E-005
   4.4000000000000055E-011     8.2481179561000317E-005
   4.8000000000000041E-011     8.2556056440807879E-005
   5.2000000000000027E-011     8.2558362919371575E-005
   5.6000000000000013E-011     8.2488309999462217E-005
   6.0000000000000000E-011     8.2346225099172443E-005
   6.3999999999999986E-011     8.2132544775959104E-005
   6.7999999999999972E-011     8.1847800174728036E-005
   7.1999999999999958E-011     8.1492638855706900E-005
   7.5999999999999944E-011     8.1067802966572344E-005
   7.9999999999999931E-011     8.0574136518407613E-005
   8.3999999999999917E-011     8.0012585385702550E-005
   8.7999999999999903E-011     7.9384190030395985E-005
   9.1999999999999889E-011     7.8690085501875728E-005
   9.6000000000000082E-011     7.7931486885063350E-005
   1.0000000000000007E-010     7.7109703852329403E-005
   1.0400000000000005E-010     7.6226133387535810E-005
   1.0800000000000004E-010     7.5282245234120637E-005
   1.1200000000000003E-010     7.4279603722970933E-005
   1.1600000000000001E-010     7.3219831392634660E-005
   1.2000000000000000E-010     7.2104645369108766E-005
   1.2399999999999999E-010     7.0935813710093498E-005
   1.2799999999999997E-010     6.9715177232865244E-005
   1.3199999999999996E-010     6.8444649514276534E-005
   1.3599999999999994E-010     6.7126187786925584E-005
   1.3999999999999993E-010     6.5761822042986751E-005
   1.4399999999999992E-010     6.4353625930380076E-005
   1.4799999999999990E-010     6.2903709476813674E-005
   1.5199999999999989E-010     6.1414233641698956E-005
   1.5600000000000008E-010     5.9887388488277793E-005
   1.6000000000000007E-010     5.8325400459580123E-005
   1.6400000000000005E-010     5.6730517826508731E-005
   1.6800000000000004E-010     5.5105010687839240E-005
   1.7200000000000003E-010     5.3451170970220119E-005
   1.7600000000000001E-010     5.1771294238278642E-005
   1.8000000000000000E-010     5.0067690608557314E-005
   1.8399999999999998E-010     4.8342673835577443E-005
   1.8799999999999997E-010     4.6598557673860341E-005
   1.9199999999999996E-010     4.4837655877927318E-005
   1.9599999999999994E-010     4.3062267650384456E-005
   1.9999999999999993E-010     4.1274684917880222E-005
   2.0399999999999992E-010     3.9477192331105471E-005
   2.0799999999999990E-010     3.7672052712878212E-005
   2.1199999999999989E-010     3.5861503420164809E-005
   2.1600000000000008E-010     3.4047767258016393E-005
   2.2000000000000007E-010     3.2233027013717219E-005
   2.2400000000000005E-010     3.0419443646678701E-005
   2.2800000000000004E-010     2.8609138098545372E-005
   2.3200000000000003E-010     2.6804194931173697E-005
   2.3600000000000001E-010     2.5006651412695646E-005
   2.4000000000000000E-010     2.3218502974486910E-005
   2.4399999999999998E-010     2.1441695935209282E-005
   2.4799999999999997E-010     1.9678118405863643E-005
   2.5199999999999996E-010     1.7929605746758170E-005
   2.5599999999999994E-010     1.6197936929529533E-005
   2.5999999999999993E-010     1.4484825442195870E-005
   2.6399999999999992E-010     1.2791929293598514E-005
   2.6799999999999990E-010     1.1120838280476164E-005
   2.7199999999999989E-010     9.4730794444330968E-006
   2.7600000000000008E-010     7.8501152529497631E-006
   2.8000000000000007E-010     6.2533395066566300E-006
   2.8400000000000005E-010     4.6840796130709350E-006
   2.8800000000000004E-010     3.1435956771019846E-006
   2.9200000000000003E-010     1.6330794778696145E-006
   2.9600000000000001E-010     1.5365435501735192E-007
   3.0000000000000000E-010    -1.2936255870954483E-006
   3.0399999999999998E-010    -2.7077751383330906E-006
   3.0799999999999997E-010    -4.0878794607124291E-006
   3.1199999999999996E-010    -5.4330939747160301E-006
   3.1599999999999994E-010    -6.7426435634843074E-006
   3.1999999999999993E-010    -8.0158242781180888E-006
   3.2399999999999992E-010    -9.2520040197996423E-006
   3.2799999999999990E-010    -1.0450620720803272E-005
   3.3199999999999989E-010    -1.1611182344495319E-005
   3.3600000000000008E-010    -1.2733265975839458E-005
   3.4000000000000007E-010    -1.3816517821396701E-005
   3.4400000000000005E-010    -1.4860654118820094E-005
   3.4800000000000004E-010    -1.5865454770391807E-005
   3.5200000000000003E-010    -1.6830765162012540E-005
   3.5600000000000001E-010    -1.7756496163201518E-005
   3.6000000000000000E-010    -1.8642616851138882E-005
   3.6399999999999998E-010    -1.9489158148644492E-005
   3.6799999999999997E-010    -2.0296205548220314E-005
   3.7199999999999996E-010    -2.1063900931039825E-005
   3.7599999999999994E-010    -2.1792440747958608E-005
   3.7999999999999993E-010    -2.2482068743556738E-005
   3.8399999999999991E-010    -2.3133079594117589E-005
   3.8799999999999990E-010    -2.3745817088638432E-005
   3.9199999999999989E-010    -2.4320668671862222E-005
   3.9599999999999987E-010    -2.4858067263267003E-005
   4.0000000000000007E-010    -2.5358485800097696E-005
   4.0400000000000005E-010    -2.5822437237366103E-005
   4.0800000000000004E-010    -2.6250476366840303E-005
   4.1200000000000002E-010    -2.6643194360076450E-005
   4.1600000000000001E-010    -2.7001213311450556E-005
   4.2000000000000000E-010    -2.7325191695126705E-005
   4.2399999999999998E-010    -2.7615820727078244E-005
   4.2799999999999997E-010    -2.7873817089130171E-005
   4.3199999999999996E-010    -2.8099926566937938E-005
   4.3599999999999994E-010    -2.8294914955040440E-005
   4.3999999999999993E-010    -2.8459569875849411E-005
   4.4399999999999991E-010    -2.8594700779649429E-005
   4.4799999999999990E-010    -2.8701131668640301E-005
   4.5199999999999989E-010    -2.8779699277947657E-005
   4.5599999999999987E-010    -2.8831254894612357E-005
   4.6000000000000007E-010    -2.8856657081632875E-005
   4.6400000000000005E-010    -2.8856771677965298E-005
   4.6800000000000004E-010    -2.8832471798523329E-005
   4.7200000000000002E-010    -2.8784632377210073E-005
   4.7600000000000001E-010    -2.8714131985907443E-005
   4.8000000000000000E-010    -2.8621852834476158E-005
   4.8399999999999998E-010    -2.8508677132776938E-005
   4.8799999999999997E-010    -2.8375481633702293E-005
   4.9199999999999996E-010    -2.8223148547112942E-005
   4.9599999999999994E-010    -2.8052549168933183E-005
   4.9999999999999993E-010    -2.7864552976097912E-005
   5.0399999999999991E-010    -2.7660027626552619E-005
   5.0799999999999990E-010    -2.7439829864306375E-005
   5.1199999999999989E-010    -2.7204807338421233E-005
   5.1599999999999987E-010    -2.6955800422001630E-005
   5.2000000000000007E-010    -2.6693638574215584E-005
   5.2400000000000005E-010    -2.6419136702315882E-005
   5.2800000000000004E-010    -2.6133098799618892E-005
   5.3200000000000002E-010    -2.5836310669546947E-005
   5.3600000000000001E-010    -2.5529543563607149E-005
   5.4000000000000000E-010    -2.5213550543412566E-005
   5.4399999999999998E-010    -2.4889068299671635E-005
   5.4799999999999997E-010    -2.4556811695219949E-005
   5.5199999999999995E-010    -2.4217477402999066E-005
   5.5599999999999994E-010    -2.3871743906056508E-005
   5.5999999999999993E-010    -2.3520267859566957E-005
   5.6399999999999991E-010    -2.3163685909821652E-005
   5.6799999999999990E-010    -2.2802618332207203E-005
   5.7199999999999989E-010    -2.2437661755247973E-005
   5.7599999999999987E-010    -2.2069398255553097E-005
   5.8000000000000007E-010    -2.1698388081858866E-005
   5.8400000000000005E-010    -2.1325169655028731E-005
   5.8800000000000004E-010    -2.0950266844010912E-005
   5.9200000000000002E-010    -2.0574181689880788E-005
   5.9600000000000001E-010    -2.0197398043819703E-005
   6.0000000000000000E-010    -1.9820377929136157E-005
   6.0399999999999998E-010    -1.9443566998234019E-005
   6.0799999999999997E-010    -1.9067389075644314E-005
   6.1199999999999995E-010    -1.8692247977014631E-005
   6.1599999999999994E-010    -1.8318527509109117E-005
   6.1999999999999993E-010    -1.7946589650819078E-005
   6.2399999999999991E-010    -1.7576778191141784E-005
   6.2799999999999990E-010    -1.7209416910191067E-005
   6.3199999999999989E-010    -1.6844807760207914E-005
   6.3599999999999987E-010    -1.6483232684549876E-005
   6.4000000000000006E-010    -1.6124959074659273E-005
   6.4400000000000005E-010    -1.5770232494105585E-005
   6.4800000000000004E-010    -1.5419283954543062E-005
   6.5200000000000002E-010    -1.5072324458742514E-005
   6.5600000000000001E-010    -1.4729550457559526E-005
   6.6000000000000000E-010    -1.4391144759429153E-005
   6.6399999999999978E-010    -1.4057273801881820E-005
   6.6800000000000017E-010    -1.3728090380027425E-005
   6.7200000000000016E-010    -1.3403735465544742E-005
   6.7600000000000015E-010    -1.3084335478197318E-005
   6.8000000000000013E-010    -1.2770004104822874E-005
   6.8400000000000012E-010    -1.2460843208828010E-005
   6.8800000000000011E-010    -1.2156942830188200E-005
   6.9200000000000009E-010    -1.1858380275953095E-005
   6.9600000000000008E-010    -1.1565221939235926E-005
   7.0000000000000006E-010    -1.1277521480224095E-005
   7.0400000000000005E-010    -1.0995321645168588E-005
   7.0800000000000004E-010    -1.0718656085373368E-005
   7.1200000000000002E-010    -1.0447545719216578E-005
   7.1600000000000001E-010    -1.0182001460634638E-005
   7.2000000000000000E-010    -9.9220251286169514E-006
   7.2399999999999998E-010    -9.6676103567006066E-006
   7.2799999999999997E-010    -9.4187425929703750E-006
   7.3199999999999995E-010    -9.1753991000587121E-006
   7.3599999999999994E-010    -8.9375507741351612E-006
   7.3999999999999993E-010    -8.7051630544010550E-006
   7.4399999999999991E-010    -8.4781959230895154E-006
   7.4799999999999990E-010    -8.2566048149601556E-006
   7.5199999999999988E-010    -8.0403397078043781E-006
   7.5599999999999987E-010    -7.8293487604241818E-006
   7.5999999999999986E-010    -7.6235742199060041E-006
   7.6399999999999984E-010    -7.4229565143468790E-006
   7.6799999999999983E-010    -7.2274315243703313E-006
   7.7199999999999982E-010    -7.0369333116104826E-006
   7.7599999999999980E-010    -6.8513913902279455E-006
   7.7999999999999979E-010    -6.6707325458992273E-006
   7.8399999999999977E-010    -6.4948808358167298E-006
   7.8800000000000017E-010    -6.3237571339413989E-006
   7.9200000000000016E-010    -6.1572791310027242E-006
   7.9600000000000015E-010    -5.9953622439934406E-006
   8.0000000000000013E-010    -5.8379191614221781E-006
   8.0400000000000012E-010    -5.6848607528081629E-006
   8.0800000000000010E-010    -5.5360969781759195E-006
   8.1200000000000009E-010    -5.3915355238132179E-006
   8.1600000000000008E-010    -5.2510849855025299E-006
   8.2000000000000006E-010    -5.1146521400369238E-006
   8.2400000000000005E-010    -4.9821460379462224E-006
   8.2800000000000004E-010    -4.8534748202655464E-006
   8.3200000000000002E-010    -4.7285479922720697E-006
   8.3600000000000001E-010    -4.6072764234850183E-006
   8.3999999999999999E-010    -4.4895718929183204E-006
   8.4399999999999998E-010    -4.3753479985753074E-006
   8.4799999999999997E-010    -4.2645187932066619E-006
   8.5199999999999995E-010    -4.1569996938051190E-006
   8.5599999999999994E-010    -4.0527074816054665E-006
   8.5999999999999993E-010    -3.9515593925898429E-006
   8.6399999999999991E-010    -3.8534731174877379E-006
   8.6799999999999990E-010    -3.7583672565233428E-006
   8.7199999999999988E-010    -3.6661604099208489E-006
   8.7599999999999987E-010    -3.5767723147728248E-006
   8.7999999999999986E-010    -3.4901224807981635E-006
   8.8399999999999984E-010    -3.4061315545841353E-006
   8.8799999999999983E-010    -3.3247204100916861E-006
   8.9199999999999981E-010    -3.2458112855238141E-006
   8.9599999999999980E-010    -3.1693277833255706E-006
   8.9999999999999979E-010    -3.0951948701840593E-006
   9.0399999999999977E-010    -3.0233393317757873E-006
   9.0799999999999976E-010    -2.9536897727666656E-006
   9.1200000000000016E-010    -2.8861772989330348E-006
   9.1600000000000015E-010    -2.8207352897879900E-006
   9.2000000000000013E-010    -2.7572989438340301E-006
   9.2400000000000012E-010    -2.6958061880577588E-006
   9.2800000000000010E-010    -2.6361965410615085E-006
   9.3200000000000009E-010    -2.5784120225580409E-006
   9.3600000000000008E-010    -2.5223962438758463E-006
   9.4000000000000006E-010    -2.4680944079591427E-006
   9.4400000000000005E-010    -2.4154526272468502E-006
   9.4800000000000004E-010    -2.3644188331672922E-006
   9.5200000000000002E-010    -2.3149414118961431E-006
   9.5600000000000001E-010    -2.2669696591037791E-006
   9.5999999999999999E-010    -2.2204540073289536E-006
   9.6399999999999998E-010    -2.1753451164840953E-006
   9.6799999999999997E-010    -2.1315945559763350E-006
   9.7199999999999995E-010    -2.0891552594548557E-006
   9.7599999999999994E-010    -2.0479810700635426E-006