  -1.2000000000000000E-009     0.0000000000000000
  -1.1960000000000000E-009     0.0000000000000000
  -1.1920000000000000E-009     0.0000000000000000
  -1.1880000000000000E-009     0.0000000000000000
  -1.1840000000000000E-009     1.0424394227889646E-021
  -1.1800000000000001E-009     8.9896987308240034E-021
  -1.1760000000000001E-009     4.2601216800810215E-020
  -1.1720000000000001E-009     1.4639133580703484E-019
  -1.1679999999999999E-009     4.0681264683119575E-019
  -1.1639999999999999E-009     9.6791298606973704E-019
  -1.1599999999999999E-009     2.0403776724582671E-018
  -1.1559999999999999E-009     3.8965269196596428E-018
  -1.1520000000000000E-009     6.8440617825810865E-018
  -1.1480000000000000E-009     1.1173616925731627E-017
  -1.1440000000000000E-009     1.7079530989405084E-017
  -1.1400000000000000E-009     2.4559310024054612E-017
  -1.1360000000000000E-009     3.3304233681463169E-017
  -1.1320000000000000E-009     4.2600053009387141E-017
  -1.1280000000000000E-009     5.1261375176646189E-017
  -1.1240000000000000E-009     5.7624716810339020E-017
  -1.1200000000000001E-009     5.9622146231417769E-017
  -1.1160000000000001E-009     5.4949416185995516E-017
  -1.1120000000000001E-009     4.1329900635199716E-017
  -1.1079999999999999E-009     1.6859595245055810E-017
  -1.1039999999999999E-009    -1.9598972588370122E-017
  -1.0999999999999999E-009    -6.8022105794889661E-017
  -1.0959999999999999E-009    -1.2688934714695684E-016
  -1.0920000000000000E-009    -1.9297111221792371E-016
  -1.0880000000000000E-009    -2.6129846751118014E-016
  -1.0840000000000000E-009    -3.2535837817194080E-016
  -1.0800000000000000E-009    -3.7753176960476345E-016
  -1.0760000000000000E-009    -4.0975846157203339E-016
  -1.0720000000000000E-009    -4.1437497642302654E-016
  -1.0680000000000000E-009    -3.8503558154493009E-016
  -1.0640000000000000E-009    -3.1759810053721331E-016
  -1.0600000000000001E-009    -2.1084002662897182E-016
  -1.0560000000000001E-009    -6.6874323211800880E-017
  -1.0520000000000001E-009     1.0884237714597301E-016
  -1.0480000000000001E-009     3.0796987702577368E-016
  -1.0439999999999999E-009     5.2020957266052403E-016
  -1.0399999999999999E-009     7.3461457567603199E-016
  -1.0359999999999999E-009     9.4112591983739951E-016
  -1.0320000000000000E-009     1.1321053796636425E-015
  -1.0280000000000000E-009     1.3035885762638149E-015
  -1.0240000000000000E-009     1.4559642977607064E-015
  -1.0200000000000000E-009     1.5938178511351597E-015
  -1.0160000000000000E-009     1.7247476513196380E-015
  -1.0120000000000000E-009     1.8570881848777683E-015
  -1.0080000000000000E-009     1.9966311454655203E-015
  -1.0040000000000000E-009     2.1426179091995094E-015
  -1.0000000000000001E-009     2.2834644534930858E-015
  -9.9600000000000008E-010     2.3928420297302704E-015
  -9.9199999999999988E-010     2.4268474379472152E-015
  -9.8799999999999990E-010     2.3230342328987809E-015
  -9.8399999999999991E-010     2.0020201808341890E-015
  -9.7999999999999992E-010     1.3722141268591743E-015
  -9.7599999999999994E-010     3.3793599687549950E-016
  -9.7199999999999995E-010    -1.1891726362981249E-015
  -9.6799999999999997E-010    -3.2759848385589688E-015
  -9.6399999999999998E-010    -5.9519760065127221E-015
  -9.5999999999999999E-010    -9.1930120539097417E-015
  -9.5600000000000001E-010    -1.2906643357963720E-014
  -9.5200000000000002E-010    -1.6920945100271610E-014
  -9.4800000000000004E-010    -2.0978971530349715E-014
  -9.4400000000000005E-010    -2.4740709223610054E-014
  -9.4000000000000006E-010    -2.7793988559786896E-014
  -9.3600000000000008E-010    -2.9675131845091976E-014
  -9.3200000000000009E-010    -2.9899277091726198E-014
  -9.2800000000000000E-010    -2.7999273770817554E-014
  -9.2400000000000001E-010    -2.3571022792021751E-014
  -9.1999999999999992E-010    -1.6322094500628714E-014
  -9.1599999999999994E-010    -6.1196245790815559E-015
  -9.1199999999999995E-010     6.9670793487435888E-015
  -9.0799999999999997E-010     2.2634004452582943E-014
  -9.0399999999999998E-010     4.0324490843896346E-014
  -8.9999999999999999E-010     5.9229686856076408E-014
  -8.9600000000000001E-010     7.8310066222407604E-014
  -8.9200000000000002E-010     9.6338952440544467E-014
  -8.8800000000000004E-010     1.1196723886594540E-013
  -8.8400000000000005E-010     1.2380638777630820E-013
  -8.8000000000000006E-010     1.3052487693107628E-013
  -8.7599999999999997E-010     1.3095128009298768E-013
  -8.7199999999999999E-010     1.2417619558481585E-013
  -8.6800000000000000E-010     1.0964428827755016E-013
  -8.6400000000000001E-010     8.7227764616372438E-014
  -8.5999999999999993E-010     5.7273589625268795E-014
  -8.5599999999999994E-010     2.0618374358110508E-014
  -8.5199999999999995E-010    -2.1432833806345197E-014
  -8.4799999999999997E-010    -6.7164569533210289E-014
  -8.4399999999999998E-010    -1.1454319480755371E-013
  -8.3999999999999999E-010    -1.6133765872762551E-013
  -8.3600000000000001E-010    -2.0525986780487587E-013
  -8.3200000000000002E-010    -2.4411343172575650E-013
  -8.2800000000000004E-010    -2.7593834335537526E-013
  -8.2400000000000005E-010    -2.9913815565232871E-013
  -8.2000000000000006E-010    -3.1257803420267627E-013
  -8.1599999999999997E-010    -3.1564334479483591E-013
  -8.1199999999999999E-010    -3.0825239279511085E-013
  -8.0800000000000000E-010    -2.9082080710632341E-013
  -8.0400000000000002E-010    -2.6417989974422684E-013
  -7.9999999999999993E-010    -2.2945653623679396E-013
  -7.9599999999999994E-010    -1.8792580610150350E-013
  -7.9199999999999995E-010    -1.4085249893519558E-013
  -7.8799999999999997E-010    -8.9338543615875843E-014
  -7.8399999999999998E-010    -3.4195130044602576E-014
  -7.7999999999999999E-010     2.4143545913598088E-014
  -7.7600000000000001E-010     8.5650934858027411E-014
  -7.7200000000000002E-010     1.5067417799552452E-013
  -7.6800000000000004E-010     2.1983277828305225E-013
  -7.6400000000000005E-010     2.9385462162537235E-013
  -7.6000000000000006E-010     3.7336138954818798E-013
  -7.5600000000000008E-010     4.5862212682060144E-013
  -7.5199999999999999E-010     5.4929975498718697E-013
  -7.4800000000000000E-010     6.4421932415362204E-013
  -7.4400000000000002E-010     7.4118678859355636E-013
  -7.3999999999999993E-010     8.3688682069385512E-013
  -7.3599999999999994E-010     9.2688237727373002E-013
  -7.3199999999999995E-010     1.0057321728901281E-012
  -7.2799999999999997E-010     1.0672309390391543E-012
  -7.2399999999999998E-010     1.1047672108729922E-012
  -7.2000000000000000E-010     1.1117804810459320E-012
  -7.1600000000000001E-010     1.0822884472308503E-012
  -7.1200000000000002E-010     1.0114440751954334E-012
  -7.0800000000000004E-010     8.9607699515700800E-013
  -7.0400000000000005E-010     7.3516751497235133E-013
  -6.9999999999999996E-010     5.3020484053548089E-013
  -6.9599999999999997E-010     2.8538562030049064E-013
  -6.9199999999999999E-010     7.6188529904474070E-015
  -6.8800000000000000E-010    -2.9368196242940403E-013
  -6.8400000000000002E-010    -6.0702197391890311E-013
  -6.8000000000000003E-010    -9.1944648509395543E-013
  -6.7600000000000004E-010    -1.2173260446543543E-012
  -6.7199999999999995E-010    -1.4872507522398215E-012
  -6.6799999999999997E-010    -1.7169684727799672E-012
  -6.6399999999999998E-010    -1.8962897658375555E-012
  -6.6000000000000000E-010    -2.0178806542370253E-012
  -6.5600000000000001E-010    -2.0778695604406483E-012
  -6.5200000000000002E-010    -2.0762011901376276E-012
  -6.4800000000000004E-010    -2.0166932360177192E-012
  -6.4400000000000005E-010    -1.9067694471963659E-012
  -6.3999999999999996E-010    -1.7568738347809032E-012
  -6.3599999999999998E-010    -1.5795934438928017E-012
  -6.3199999999999999E-010    -1.3885493232654311E-012
  -6.2800000000000000E-010    -1.1971376581015880E-012
  -6.2400000000000002E-010    -1.0172210296310880E-012
  -6.2000000000000003E-010    -8.5788038999001781E-013
  -6.1600000000000004E-010    -7.2434256943171293E-013
  -6.1199999999999995E-010    -6.1718761611845308E-013
  -6.0799999999999997E-010    -5.3192346360919629E-013
  -6.0399999999999998E-010    -4.5898994240761715E-013
  -6.0000000000000000E-010    -3.8422111087350885E-013
  -5.9600000000000001E-010    -2.8975601215272540E-013
  -5.9200000000000002E-010    -1.5535026065029156E-013
  -5.8800000000000004E-010     3.9994337729847354E-014
  -5.8400000000000005E-010     3.1619905261834336E-013
  -5.7999999999999996E-010     6.9021454133719184E-013
  -5.7599999999999998E-010     1.1742123115845993E-012
  -5.7199999999999999E-010     1.7740139869257265E-012
  -5.6800000000000000E-010     2.4878935717120854E-012
  -5.6400000000000002E-010     3.3058627450094358E-012
  -5.6000000000000003E-010     4.2095146812748396E-012
  -5.5600000000000004E-010     5.1724557796617443E-012
  -5.5199999999999995E-010     6.1613045394814936E-012
  -5.4799999999999997E-010     7.1371918791696132E-012
  -5.4399999999999998E-010     8.0576448291402869E-012
  -5.4000000000000000E-010     8.8787059301931315E-012
  -5.3600000000000001E-010     9.5571068420285954E-012
  -5.3200000000000002E-010     1.0052315750630481E-011
  -5.2800000000000004E-010     1.0328259081315849E-011
  -5.2400000000000005E-010     1.0354577438531631E-011
  -5.1999999999999996E-010     1.0107266586178998E-011
  -5.1599999999999998E-010     9.5686366816116752E-012
  -5.1199999999999999E-010     8.7265654771795376E-012
  -5.0800000000000000E-010     7.5730836532339474E-012
  -5.0400000000000002E-010     6.1023837892582034E-012
  -5.0000000000000003E-010     4.3084169044915743E-012
  -4.9600000000000004E-010     2.1822528593201662E-012
  -4.9199999999999996E-010    -2.9056818800013429E-013
  -4.8799999999999997E-010    -3.1324753988620779E-012
  -4.8399999999999998E-010    -6.3758872313746107E-012
  -4.8000000000000000E-010    -1.0064621878969060E-011
  -4.7600000000000001E-010    -1.4254576685690523E-011
  -4.7200000000000002E-010    -1.9013599722450536E-011
  -4.6800000000000004E-010    -2.4420581876127834E-011
  -4.6400000000000005E-010    -3.0563780673009688E-011
  -4.5999999999999996E-010    -3.7538593761210493E-011
  -4.5599999999999998E-010    -4.5444922130988274E-011
  -4.5199999999999999E-010    -5.4384396291906612E-011
  -4.4800000000000000E-010    -6.4457730819533765E-011
  -4.4400000000000002E-010    -7.5762424112113536E-011
  -4.4000000000000003E-010    -8.8391162444967364E-011
  -4.3600000000000005E-010    -1.0243095260875634E-010
  -4.3199999999999996E-010    -1.1796329191238186E-010
  -4.2799999999999997E-010    -1.3506529228379804E-010
  -4.2399999999999998E-010    -1.5381186602159147E-010
  -4.2000000000000000E-010    -1.7427868870267815E-010
  -4.1600000000000001E-010    -1.9654598781837507E-010
  -4.1200000000000002E-010    -2.2070263672180346E-010
  -4.0800000000000004E-010    -2.4685045674210926E-010
  -4.0400000000000005E-010    -2.7510854705425913E-010
  -3.9999999999999996E-010    -3.0561683739271928E-010
  -3.9599999999999998E-010    -3.3853925218707559E-010
  -3.9199999999999999E-010    -3.7406580610799267E-010
  -3.8800000000000000E-010    -4.1241371429023843E-010
  -3.8400000000000002E-010    -4.5382755886613779E-010
  -3.8000000000000003E-010    -4.9857840078715299E-010
  -3.7600000000000005E-010    -5.4696197571146854E-010
  -3.7200000000000006E-010    -5.9929650131351764E-010
  -3.6799999999999997E-010    -6.5592004050429864E-010
  -3.6399999999999998E-010    -7.1718808669629652E-010
  -3.6000000000000000E-010    -7.8347134335743362E-010
  -3.5600000000000001E-010    -8.5515428072113764E-010
  -3.5200000000000003E-010    -9.3263463618598053E-010
  -3.4800000000000004E-010    -1.0163242469829470E-009
  -3.4400000000000005E-010    -1.1066511040880300E-009
  -3.3999999999999996E-010    -1.2040622943132462E-009
  -3.3599999999999998E-010    -1.3090284411987341E-009
  -3.3199999999999999E-010    -1.4220494781724824E-009
  -3.2800000000000000E-010    -1.5436603106877556E-009
  -3.2400000000000002E-010    -1.6744371444943340E-009
  -3.2000000000000003E-010    -1.8150043690212669E-009
  -3.1600000000000005E-010    -1.9660402195142979E-009
  -3.1200000000000006E-010    -2.1282824391732902E-009
  -3.0799999999999997E-010    -2.3025328310666282E-009
  -3.0399999999999998E-010    -2.4896611439118033E-009
  -3.0000000000000000E-010    -2.6906070704768581E-009
  -2.9600000000000001E-010    -2.9063815798480164E-009
  -2.9200000000000003E-010    -3.1380684717419172E-009
  -2.8800000000000004E-010    -3.3868234883271953E-009
  -2.8400000000000005E-010    -3.6538738701352713E-009
  -2.7999999999999996E-010    -3.9405194662833765E-009
  -2.7599999999999998E-010    -4.2481316242515277E-009
  -2.7199999999999999E-010    -4.5781547441947623E-009
  -2.6800000000000011E-010    -4.9321080552999774E-009
  -2.6399999999999992E-010    -5.3115893905442135E-009
  -2.5999999999999993E-010    -5.7182782953191236E-009
  -2.5599999999999994E-010    -6.1539440210367502E-009
  -2.5199999999999996E-010    -6.6204499660216243E-009
  -2.4799999999999997E-010    -7.1197630013841717E-009
  -2.4399999999999998E-010    -7.6539619087157007E-009
  -2.4000000000000000E-010    -8.2252462618725986E-009
  -2.3600000000000001E-010    -8.8359435324036895E-009
  -2.3200000000000003E-010    -9.4885201917804807E-009
  -2.2800000000000004E-010    -1.0185586596378471E-008
  -2.2400000000000005E-010    -1.0929905869261347E-008
  -2.2000000000000007E-010    -1.1724400117429923E-008
  -2.1600000000000008E-010    -1.2572154872714236E-008
  -2.1200000000000010E-010    -1.3476423532665649E-008
  -2.0800000000000011E-010    -1.4440632689627364E-008
  -2.0399999999999992E-010    -1.5468385683448105E-008
  -1.9999999999999993E-010    -1.6563467042374214E-008
  -1.9599999999999994E-010    -1.7729847812120170E-008
  -1.9199999999999996E-010    -1.8971691773117527E-008
  -1.8799999999999997E-010    -2.0293361657763853E-008
  -1.8399999999999998E-010    -2.1699429808563764E-008
  -1.8000000000000000E-010    -2.3194687059913122E-008
  -1.7600000000000001E-010    -2.4784155172596911E-008
  -1.7200000000000003E-010    -2.6473095715573436E-008
  -1.6800000000000004E-010    -2.8267027829542712E-008
  -1.6400000000000005E-010    -3.0171740661444346E-008
  -1.6000000000000007E-010    -3.2193309351669086E-008
  -1.5600000000000008E-010    -3.4338100363129342E-008
  -1.5200000000000010E-010    -3.6612792797541260E-008
  -1.4800000000000011E-010    -3.9024378395424719E-008
  -1.4399999999999992E-010    -4.1580186405099084E-008
  -1.3999999999999993E-010    -4.4287872924542171E-008
  -1.3599999999999994E-010    -4.7155431559531280E-008
  -1.3199999999999996E-010    -5.0191207634497914E-008
  -1.2799999999999997E-010    -5.3403887534386740E-008
  -1.2399999999999999E-010    -5.6802509362796627E-008
  -1.2000000000000000E-010    -6.0396459389266965E-008
  -1.1600000000000001E-010    -6.4195489812846063E-008
  -1.1200000000000003E-010    -6.8209693893095391E-008
  -1.0800000000000004E-010    -7.2449537924512697E-008
  -1.0400000000000005E-010    -7.6925864789245679E-008
  -1.0000000000000007E-010    -8.1649901062519348E-008
  -9.6000000000000082E-011    -8.6633271223490738E-008
  -9.2000000000000096E-011    -9.1887997655248910E-008
  -8.8000000000000110E-011    -9.7426543277379096E-008
  -8.3999999999999917E-011    -1.0326181154596270E-007
  -7.9999999999999931E-011    -1.0940715355900466E-007
  -7.5999999999999944E-011    -1.1587641779442492E-007
  -7.1999999999999958E-011    -1.2268391458292172E-007
  -6.7999999999999972E-011    -1.2984446584596299E-007
  -6.3999999999999986E-011    -1.3737343351749587E-007
  -6.0000000000000000E-011    -1.4528663427881838E-007
  -5.6000000000000013E-011    -1.5360043903456244E-007
  -5.2000000000000027E-011    -1.6233170185842027E-007
  -4.8000000000000041E-011    -1.7149780262570857E-007
  -4.4000000000000055E-011    -1.8111660438080435E-007
  -4.0000000000000069E-011    -1.9120643912629021E-007
  -3.6000000000000082E-011    -2.0178612203380908E-007
  -3.2000000000000096E-011    -2.1287489460064535E-007
  -2.8000000000000110E-011    -2.2449248149314371E-007
  -2.3999999999999917E-011    -2.3665899107072619E-007
  -1.9999999999999931E-011    -2.4939495801845624E-007
  -1.5999999999999945E-011    -2.6272135755789350E-007
  -1.1999999999999959E-011    -2.7665947754940134E-007
  -7.9999999999999724E-012    -2.9123106060069404E-007
  -3.9999999999999862E-012    -3.0645824722341786E-007
   0.0000000000000000         -3.2236354741144169E-007
   3.9999999999999862E-012    -3.3896986906256643E-007
   7.9999999999999724E-012    -3.5630048955681559E-007
   1.1999999999999959E-011    -3.7437902733472583E-007
   1.5999999999999945E-011    -3.9322947031905642E-007
   1.9999999999999931E-011    -4.1287620433649863E-007
   2.3999999999999917E-011    -4.3334387100912863E-007
   2.7999999999999903E-011    -4.5465748144124518E-007
   3.1999999999999889E-011    -4.7684227411082247E-007
   3.6000000000000082E-011    -4.9992365802609129E-007
   4.0000000000000069E-011    -5.2392738325579558E-007
   4.4000000000000055E-011    -5.4887914302526042E-007
   4.8000000000000041E-011    -5.7480485793348635E-007
   5.2000000000000027E-011    -6.0173039173605503E-007
   5.6000000000000013E-011    -6.2968166503196699E-007
   6.0000000000000000E-011    -6.5868442788996617E-007
   6.3999999999999986E-011    -6.8876437353537767E-007
   6.7999999999999972E-011    -7.1994691097643226E-007
   7.1999999999999958E-011    -7.5225722184768529E-007
   7.5999999999999944E-011    -7.8572020356659777E-007
   7.9999999999999931E-011    -8.2036041249011760E-007
   8.3999999999999917E-011    -8.5620195022784173E-007
   8.7999999999999903E-011    -8.9326840679859743E-007
   9.1999999999999889E-011    -9.3158291747386102E-007
   9.6000000000000082E-011    -9.7116799224750139E-007
   1.0000000000000007E-010    -1.0120454589923611E-006
   1.0400000000000005E-010    -1.0542365771470941E-006
   1.0800000000000004E-010    -1.0977616966556525E-006
   1.1200000000000003E-010    -1.1426403716541245E-006
   1.1600000000000001E-010    -1.1888912467838963E-006
   1.2000000000000000E-010    -1.2365317161311395E-006
   1.2399999999999999E-010    -1.2855782642873237E-006
   1.2799999999999997E-010    -1.3360462389755412E-006
   1.3199999999999996E-010    -1.3879495099899941E-006
   1.3599999999999994E-010    -1.4413004691959941E-006
   1.3999999999999993E-010    -1.4961103715904756E-006
   1.4399999999999992E-010    -1.5523883121204562E-006
   1.4799999999999990E-010    -1.6101421351777390E-006
   1.5199999999999989E-010    -1.6693774114173721E-006
   1.5600000000000008E-010    -1.7300982335655135E-006
   1.6000000000000007E-010    -1.7923064206115669E-006
   1.6400000000000005E-010    -1.8560018588686944E-006
   1.6800000000000004E-010    -1.9211820472264662E-006
   1.7200000000000003E-010    -1.9878423245245358E-006
   1.7600000000000001E-010    -2.0559757558658021E-006
   1.8000000000000000E-010    -2.1255730189295718E-006
   1.8399999999999998E-010    -2.1966216081636958E-006
   1.8799999999999997E-010    -2.2691071990266209E-006
   1.9199999999999996E-010    -2.3430120563716628E-006
   1.9599999999999994E-010    -2.4183159439417068E-006
   1.9999999999999993E-010    -2.4949958969955333E-006
   2.0399999999999992E-010    -2.5730253128131153E-006
   2.0799999999999990E-010    -2.6523748601903208E-006
   2.1199999999999989E-010    -2.7330117973178858E-006
   2.1600000000000008E-010    -2.8149004265287658E-006
   2.2000000000000007E-010    -2.8980014121771092E-006
   2.2400000000000005E-010    -2.9822720080119325E-006
   2.2800000000000004E-010    -3.0676656024297699E-006
   2.3200000000000003E-010    -3.1541321732220240E-006
   2.3600000000000001E-010    -3.2416180602012901E-006
   2.4000000000000000E-010    -3.3300657378276810E-006
   2.4399999999999998E-010    -3.4194142699561780E-006
   2.4799999999999997E-010    -3.5095984003419289E-006
   2.5199999999999996E-010    -3.6005492347612744E-006
   2.5599999999999994E-010    -3.6921942410117481E-006
   2.5999999999999993E-010    -3.7844567941647256E-006
   2.6399999999999992E-010    -3.8772559491917491E-006
   2.6799999999999990E-010    -3.9705082599539310E-006
   2.7199999999999989E-010    -4.0641248233441729E-006
   2.7600000000000008E-010    -4.1580133256502450E-006
   2.8000000000000007E-010    -4.2520782699284609E-006
   2.8400000000000005E-010    -4.3462191570142750E-006
   2.8800000000000004E-010    -4.4403323045116849E-006
   2.9200000000000003E-010    -4.5343099372985307E-006
   2.9600000000000001E-010    -4.6280410970211960E-006
   3.0000000000000000E-010    -4.7214102778525557E-006
   3.0399999999999998E-010    -4.8142978812393267E-006
   3.0799999999999997E-010    -4.9065820348914713E-006
   3.1199999999999996E-010    -4.9981363190454431E-006
   3.1599999999999994E-010    -5.0888311307062395E-006
   3.1999999999999993E-010    -5.1785336836474016E-006
   3.2399999999999992E-010    -5.2671075536636636E-006
   3.2799999999999990E-010    -5.3544135880656540E-006
   3.3199999999999989E-010    -5.4403094509325456E-006
   3.3600000000000008E-010    -5.5246509873541072E-006
   3.4000000000000007E-010    -5.6072904044413008E-006
   3.4400000000000005E-010    -5.6880780903156847E-006
   3.4800000000000004E-010    -5.7668621593620628E-006
   3.5200000000000003E-010    -5.8434889069758356E-006
   3.5600000000000001E-010    -5.9178032643103506E-006
   3.6000000000000000E-010    -5.9896478887822013E-006
   3.6399999999999998E-010    -6.0588649830606300E-006
   3.6799999999999997E-010    -6.1252944760781247E-006
   3.7199999999999996E-010    -6.1887767515145242E-006
   3.7599999999999994E-010    -6.2491512835549656E-006
   3.7999999999999993E-010    -6.3062557273951825E-006
   3.8399999999999991E-010    -6.3599295572203118E-006
   3.8799999999999990E-010    -6.4100117924681399E-006
   3.9199999999999989E-010    -6.4563409978291020E-006
   3.9599999999999987E-010    -6.4987571022356860E-006
   4.0000000000000007E-010    -6.5371009441150818E-006
   4.0400000000000005E-010    -6.5712147261365317E-006
   4.0800000000000004E-010    -6.6009429247060325E-006
   4.1200000000000002E-010    -6.6261309257242829E-006
   4.1600000000000001E-010    -6.6466277530707885E-006
   4.2000000000000000E-010    -6.6622837948671076E-006
   4.2399999999999998E-010    -6.6729535319609568E-006
   4.2799999999999997E-010    -6.6784946284315083E-006
   4.3199999999999996E-010    -6.6787683863367420E-006
   4.3599999999999994E-010    -6.6736406552081462E-006
   4.3999999999999993E-010    -6.6629809225560166E-006
   4.4399999999999991E-010    -6.6466641328588594E-006
   4.4799999999999990E-010    -6.6245702328160405E-006
   4.5199999999999989E-010    -6.5965850808424875E-006
   4.5599999999999987E-010    -6.5625999923213385E-006
   4.6000000000000007E-010    -6.5225121943512931E-006
   4.6400000000000005E-010    -6.4762252804939635E-006
   4.6800000000000004E-010    -6.4236501202685758E-006
   4.7200000000000002E-010    -6.3647034949099179E-006
   4.7600000000000001E-010    -6.2993103711050935E-006
   4.8000000000000000E-010    -6.2274034462461714E-006
   4.8399999999999998E-010    -6.1489222389354836E-006
   4.8799999999999997E-010    -6.0638149079750292E-006
   4.9199999999999996E-010    -5.9720382523664739E-006
   4.9599999999999994E-010    -5.8735577113111503E-006
   4.9999999999999993E-010    -5.7683478189574089E-006
   5.0399999999999991E-010    -5.6563912949059159E-006
   5.0799999999999990E-010    -5.5376808631990571E-006
   5.1199999999999989E-010    -5.4122192523209378E-006
   5.1599999999999987E-010    -5.2800182857026812E-006
   5.2000000000000007E-010    -5.1411007007118315E-006
   5.2400000000000005E-010    -4.9954983296629507E-006
   5.2800000000000004E-010    -4.8432534640596714E-006
   5.3200000000000002E-010    -4.6844193093420472E-006
   5.3600000000000001E-010    -4.5190586206445005E-006
   5.4000000000000000E-010    -4.3472459765325766E-006
   5.4399999999999998E-010    -4.1690645957714878E-006
   5.4799999999999997E-010    -3.9846104300522711E-006
   5.5199999999999995E-010    -3.7939887533866568E-006
   5.5599999999999994E-010    -3.5973157537227962E-006
   5.5999999999999993E-010    -3.3947176234505605E-006
   5.6399999999999991E-010    -3.1863312415225664E-006
   5.6799999999999990E-010    -2.9723037187068257E-006
   5.7199999999999989E-010    -2.7527928523340961E-006
   5.7599999999999987E-010    -2.5279659894295037E-006
   5.8000000000000007E-010    -2.2980004814598942E-006
   5.8400000000000005E-010    -2.0630836843338329E-006
   5.8800000000000004E-010    -1.8234125036542537E-006
   5.9200000000000002E-010    -1.5791931673447834E-006
   5.9600000000000001E-010    -1.3306409982760670E-006
   6.0000000000000000E-010    -1.0779803005789290E-006
   6.0399999999999998E-010    -8.2144396174044232E-007
   6.0799999999999997E-010    -5.6127328207367100E-007
   6.1199999999999995E-010    -2.9771749154861027E-007
   6.1599999999999994E-010    -3.1033462022378444E-008
   6.1999999999999993E-010     2.3851464447943727E-007
   6.2399999999999991E-010     5.1065580919384956E-007
   6.2799999999999990E-010     7.8511254741897574E-007
   6.3199999999999989E-010     1.0616013241815381E-006
   6.3599999999999987E-010     1.3398331475400482E-006
   6.4000000000000006E-010     1.6195136822716449E-006
   6.4400000000000005E-010     1.9003439319931203E-006
   6.4800000000000004E-010     2.1820210349687841E-006
   6.5200000000000002E-010     2.4642379230499500E-006
   6.5600000000000001E-010     2.7466851406643400E-006
   6.6000000000000000E-010     3.0290495942608686E-006
   6.6399999999999978E-010     3.3110165986727225E-006
   6.6800000000000017E-010     3.5922696497436846E-006
   6.7200000000000016E-010     3.8724911064491607E-006
   6.7600000000000015E-010     4.1513631003908813E-006
   6.8000000000000013E-010     4.4285666263021994E-006
   6.8400000000000012E-010     4.7037847252795473E-006
   6.8800000000000011E-010     4.9766999836720061E-006
   6.9200000000000009E-010     5.2469977163127623E-006
   6.9600000000000008E-010     5.5143646022770554E-006
   7.0000000000000006E-010     5.7784909586189315E-006
   7.0400000000000005E-010     6.0390693761291914E-006
   7.0800000000000004E-010     6.2957969930721447E-006
   7.1200000000000002E-010     6.5483759499329608E-006
   7.1600000000000001E-010     6.7965129346703179E-006
   7.2000000000000000E-010     7.0399200922111049E-006
   7.2399999999999998E-010     7.2783159339451231E-006
   7.2799999999999997E-010     7.5114248829777353E-006
   7.3199999999999995E-010     7.7389795478666201E-006
   7.3599999999999994E-010     7.9607189036323689E-006
   7.3999999999999993E-010     8.1763919297372922E-006
   7.4399999999999991E-010     8.3857530626119114E-006
   7.4799999999999990E-010     8.5885676526231691E-006
   7.5199999999999988E-010     8.7846101450850256E-006
   7.5599999999999987E-010     8.9736640802584589E-006
   7.5999999999999986E-010     9.1555239123408683E-006
   7.6399999999999984E-010     9.3299922809819691E-006
   7.6799999999999983E-010     9.4968845587573014E-006
   7.7199999999999982E-010     9.6560252131894231E-006
   7.7599999999999980E-010     9.8072514447267167E-006
   7.7999999999999979E-010     9.9504104582592845E-006
   7.8399999999999977E-010     1.0085363101097755E-005
   7.8800000000000017E-010     1.0211981134489179E-005
   7.9200000000000016E-010     1.0330148143111728E-005
   7.9600000000000015E-010     1.0439760444569401E-005
   8.0000000000000013E-010     1.0540727998886723E-005
   8.0400000000000012E-010     1.0632971680024639E-005
   8.0800000000000010E-010     1.0716426913859323E-005
   8.1200000000000009E-010     1.0791040949698072E-005
   8.1600000000000008E-010     1.0856774679268710E-005
   8.2000000000000006E-010     1.0913599908235483E-005
   8.2400000000000005E-010     1.0961502994177863E-005
   8.2800000000000004E-010     1.1000483937095851E-005
   8.3200000000000002E-010     1.1030553650925867E-005
   8.3600000000000001E-010     1.1051735782530159E-005
   8.3999999999999999E-010     1.1064068530686200E-005
   8.4399999999999998E-010     1.1067599189118482E-005
   8.4799999999999997E-010     1.1062389603466727E-005
   8.5199999999999995E-010     1.1048512533307076E-005
   8.5599999999999994E-010     1.1026052561646793E-005
   8.5999999999999993E-010     1.0995105185429566E-005
   8.6399999999999991E-010     1.0955777725030202E-005
   8.6799999999999990E-010     1.0908188414759934E-005
   8.7199999999999988E-010     1.0852464583877008E-005
   8.7599999999999987E-010     1.0788746294565499E-005
   8.7999999999999986E-010     1.0717179975472391E-005
   8.8399999999999984E-010     1.0637925697665196E-005
   8.8799999999999983E-010     1.0551150808169041E-005
   8.9199999999999981E-010     1.0457031748956069E-005
   8.9599999999999980E-010     1.0355753147450741E-005
   8.9999999999999979E-010     1.0247508726024535E-005
   9.0399999999999977E-010     1.0132499483006541E-005
   9.0799999999999976E-010     1.0010931873694062E-005
   9.1200000000000016E-010     9.8830214483314194E-006
   9.1600000000000015E-010     9.7489892141311429E-006
   9.2000000000000013E-010     9.6090616352739744E-006
   9.2400000000000012E-010     9.4634715424035676E-006
   9.2800000000000010E-010     9.3124554041423835E-006
   9.3200000000000009E-010     9.1562542365863919E-006
   9.3600000000000008E-010     8.9951126938103698E-006
   9.4000000000000006E-010     8.8292808868573047E-006
   9.4400000000000005E-010     8.6590089267701842E-006
   9.4800000000000004E-010     8.4845514720655046E-006
   9.5200000000000002E-010     8.3061631812597625E-006
   9.5600000000000001E-010     8.1241032603429630E-006
   9.5999999999999999E-010     7.9386281868210062E-006
   9.6399999999999998E-010     7.7499980761785991E-006
   9.6799999999999997E-010     7.5584712249110453E-006
   9.7199999999999995E-010     7.3643068390083499E-006
   9.7599999999999994E-010     7.1677632149658166E-006