  -1.2000000000000000E-009     0.0000000000000000
  -1.1960000000000000E-009     0.0000000000000000
  -1.1920000000000000E-009     0.0000000000000000
  -1.1880000000000000E-009     0.0000000000000000
  -1.1840000000000000E-009     0.0000000000000000
  -1.1800000000000001E-009     0.0000000000000000
  -1.1760000000000001E-009     0.0000000000000000
  -1.1720000000000001E-009     0.0000000000000000
  -1.1679999999999999E-009     0.0000000000000000
  -1.1639999999999999E-009     0.0000000000000000
  -1.1599999999999999E-009     0.0000000000000000
  -1.1559999999999999E-009     0.0000000000000000
  -1.1520000000000000E-009     0.0000000000000000
  -1.1480000000000000E-009     0.0000000000000000
  -1.1440000000000000E-009     0.0000000000000000
  -1.1400000000000000E-009     0.0000000000000000
  -1.1360000000000000E-009     0.0000000000000000
  -1.1320000000000000E-009     0.0000000000000000
  -1.1280000000000000E-009     0.0000000000000000
  -1.1240000000000000E-009     0.0000000000000000
  -1.1200000000000001E-009     0.0000000000000000
  -1.1160000000000001E-009     0.0000000000000000
  -1.1120000000000001E-009     0.0000000000000000
  -1.1079999999999999E-009     0.0000000000000000
  -1.1039999999999999E-009     0.0000000000000000
  -1.0999999999999999E-009     0.0000000000000000
  -1.0959999999999999E-009     0.0000000000000000
  -1.0920000000000000E-009     0.0000000000000000
  -1.0880000000000000E-009     0.0000000000000000
  -1.0840000000000000E-009     0.0000000000000000
  -1.0800000000000000E-009     0.0000000000000000
  -1.0760000000000000E-009     0.0000000000000000
  -1.0720000000000000E-009     0.0000000000000000
  -1.0680000000000000E-009     0.0000000000000000
  -1.0640000000000000E-009     0.0000000000000000
  -1.0600000000000001E-009     0.0000000000000000
  -1.0560000000000001E-009     0.0000000000000000
  -1.0520000000000001E-009     0.0000000000000000
  -1.0480000000000001E-009     0.0000000000000000
  -1.0439999999999999E-009     0.0000000000000000
  -1.0399999999999999E-009     0.0000000000000000
  -1.0359999999999999E-009     0.0000000000000000
  -1.0320000000000000E-009     0.0000000000000000
  -1.0280000000000000E-009     0.0000000000000000
  -1.0240000000000000E-009     0.0000000000000000
  -1.0200000000000000E-009     0.0000000000000000
  -1.0160000000000000E-009     0.0000000000000000
  -1.0120000000000000E-009     0.0000000000000000
  -1.0080000000000000E-009     0.0000000000000000
  -1.0040000000000000E-009     0.0000000000000000
  -1.0000000000000001E-009     0.0000000000000000
  -9.9600000000000008E-010     0.0000000000000000
  -9.9199999999999988E-010     0.0000000000000000
  -9.8799999999999990E-010     0.0000000000000000
  -9.8399999999999991E-010     0.0000000000000000
  -9.7999999999999992E-010     0.0000000000000000
  -9.7599999999999994E-010     0.0000000000000000
  -9.7199999999999995E-010     0.0000000000000000
  -9.6799999999999997E-010     0.0000000000000000
  -9.6399999999999998E-010     0.0000000000000000
  -9.5999999999999999E-010     0.0000000000000000
  -9.5600000000000001E-010     0.0000000000000000
  -9.5200000000000002E-010     0.0000000000000000
  -9.4800000000000004E-010     0.0000000000000000
  -9.4400000000000005E-010     0.0000000000000000
  -9.4000000000000006E-010     0.0000000000000000
  -9.3600000000000008E-010     0.0000000000000000
  -9.3200000000000009E-010     0.0000000000000000
  -9.2800000000000000E-010     0.0000000000000000
  -9.2400000000000001E-010     0.0000000000000000
  -9.1999999999999992E-010     0.0000000000000000
  -9.1599999999999994E-010     0.0000000000000000
  -9.1199999999999995E-010     0.0000000000000000
  -9.0799999999999997E-010     0.0000000000000000
  -9.0399999999999998E-010     0.0000000000000000
  -8.9999999999999999E-010     0.0000000000000000
  -8.9600000000000001E-010     0.0000000000000000
  -8.9200000000000002E-010     0.0000000000000000
  -8.8800000000000004E-010     0.0000000000000000
  -8.8400000000000005E-010     0.0000000000000000
  -8.8000000000000006E-010     0.0000000000000000
  -8.7599999999999997E-010     0.0000000000000000
  -8.7199999999999999E-010     0.0000000000000000
  -8.6800000000000000E-010     0.0000000000000000
  -8.6400000000000001E-010     0.0000000000000000
  -8.5999999999999993E-010     0.0000000000000000
  -8.5599999999999994E-010     0.0000000000000000
  -8.5199999999999995E-010     0.0000000000000000
  -8.4799999999999997E-010     0.0000000000000000
  -8.4399999999999998E-010     0.0000000000000000
  -8.3999999999999999E-010     0.0000000000000000
  -8.3600000000000001E-010     0.0000000000000000
  -8.3200000000000002E-010     0.0000000000000000
  -8.2800000000000004E-010     0.0000000000000000
  -8.2400000000000005E-010     0.0000000000000000
  -8.2000000000000006E-010     0.0000000000000000
  -8.1599999999999997E-010     0.0000000000000000
  -8.1199999999999999E-010     0.0000000000000000
  -8.0800000000000000E-010     0.0000000000000000
  -8.0400000000000002E-010     0.0000000000000000
  -7.9999999999999993E-010     0.0000000000000000
  -7.9599999999999994E-010     0.0000000000000000
  -7.9199999999999995E-010     0.0000000000000000
  -7.8799999999999997E-010     0.0000000000000000
  -7.8399999999999998E-010    -1.4012984643248171E-045
  -7.7999999999999999E-010    -2.8025969286496341E-045
  -7.7600000000000001E-010    -4.2038953929744512E-045
  -7.7200000000000002E-010    -5.6051938572992683E-045
  -7.6800000000000004E-010    -5.6051938572992683E-045
  -7.6400000000000005E-010    -2.8025969286496341E-045
  -7.6000000000000006E-010     2.8025969286496341E-045
  -7.5600000000000008E-010     1.1210387714598537E-044
  -7.5199999999999999E-010     2.2420775429197073E-044
  -7.4800000000000000E-010     3.6433760072445244E-044
  -7.4400000000000002E-010     5.0446744715693415E-044
  -7.3999999999999993E-010     6.3058430894616768E-044
  -7.3599999999999994E-010     7.0064923216240854E-044
  -7.3199999999999995E-010     6.4459729358941585E-044
  -7.2799999999999997E-010     3.9236357001094878E-044
  -7.2399999999999998E-010    -1.4012984643248171E-044
  -7.2000000000000000E-010    -1.0089348943138683E-043
  -7.1600000000000001E-010    -2.2420775429197073E-043
  -7.1200000000000002E-010    -3.8255448076067506E-043
  -7.0800000000000004E-010    -5.6332198265857646E-043
  -7.0400000000000005E-010    -7.3988558916350341E-043
  -6.9999999999999996E-010    -8.7020634634571140E-043
  -6.9599999999999997E-010    -8.9683101716788293E-043
  -6.9199999999999999E-010    -7.4408948455647786E-043
  -6.8800000000000000E-010    -3.2930513911633201E-043
  -6.8400000000000002E-010     4.3019862854771884E-043
  -6.8000000000000003E-010     1.5918750554729922E-042
  -6.7600000000000004E-010     3.1711384247670610E-042
  -6.7199999999999995E-010     5.0979238132136845E-042
  -6.6799999999999997E-010     7.1914637189149612E-042
  -6.6399999999999998E-010     9.1196504058259095E-042
  -6.6000000000000000E-010     1.0385022919111219E-041
  -6.5600000000000001E-010     1.0313556697430654E-041
  -6.5200000000000002E-010     8.0953012284044682E-042
  -6.4800000000000004E-010     2.8670566580085757E-042
  -6.4400000000000005E-010    -6.1531015568502718E-042
  -6.3999999999999996E-010    -1.9455627878685760E-041
  -6.3599999999999998E-010    -3.6973259981210298E-041
  -6.3199999999999999E-010    -5.7767127893326259E-041
  -6.2800000000000000E-010    -7.9707257949259920E-041
  -6.2400000000000002E-010    -9.9202122184946775E-041
  -6.2000000000000003E-010    -1.1104869940234878E-040
  -6.1600000000000004E-010    -1.0851795437577816E-040
  -6.1199999999999995E-010    -8.3776628689659189E-041
  -6.0799999999999997E-010    -2.8754644487945246E-041
  -6.0399999999999998E-010     6.3469011344663940E-041
  -6.0000000000000000E-010     1.9673109400348972E-040
  -5.9600000000000001E-010     3.6935845312212826E-040
  -5.9200000000000002E-010     5.7145091505012473E-040
  -5.8800000000000004E-010     7.8222021706922046E-040
  -5.8400000000000005E-010     9.6787404671222250E-040
  -5.7999999999999996E-010     1.0807528419089795E-039
  -5.7599999999999998E-010     1.0605152894872005E-039
  -5.7199999999999999E-010     8.3822451149442610E-040
  -5.6800000000000000E-010     3.4412947557042425E-040
  -5.6400000000000002E-010    -4.8035670577976134E-040
  -5.6000000000000003E-010    -1.6664185285812152E-039
  -5.5600000000000004E-010    -3.1980559669682764E-039
  -5.5199999999999995E-010    -4.9903853664644694E-039
  -5.4799999999999997E-010    -6.8688595890550305E-039
  -5.4399999999999998E-010    -8.5534445509277526E-039
  -5.4000000000000000E-010    -9.6529733909602203E-039
  -5.3600000000000001E-010    -9.6756982481561758E-039
  -5.3200000000000002E-010    -8.0622474002279744E-039
  -5.2800000000000004E-010    -4.2464402156498170E-039
  -5.2400000000000005E-010     2.2526713593100029E-039
  -5.1999999999999996E-010     1.1707761788929058E-038
  -5.1599999999999998E-010     2.4034720935483181E-038
  -5.1199999999999999E-010     3.8631021287878915E-038
  -5.0800000000000000E-010     5.4221394363075888E-038
  -5.0400000000000002E-010     6.8739676022171873E-038
  -5.0000000000000003E-010     7.9283236244342945E-038
  -4.9600000000000004E-010     8.2181766065860256E-038
  -4.9199999999999996E-010     7.3222934276994120E-038
  -4.8799999999999997E-010     4.8071930577039003E-038
  -4.8399999999999998E-010     2.9077811939787836E-039
  -4.8000000000000000E-010    -6.4724585979086690E-038
  -4.7600000000000001E-010    -1.5488270545450567E-037
  -4.7200000000000002E-010    -2.6409554692316093E-037
  -4.6800000000000004E-010    -3.8426617244004168E-037
  -4.6400000000000005E-010    -5.0179448715181613E-037
  -4.5999999999999996E-010    -5.9715636771086231E-037
  -4.5599999999999998E-010    -6.4520924623398036E-037
  -4.5199999999999999E-010    -6.1650253736390273E-037
  -4.4800000000000000E-010    -4.7983835987261374E-037
  -4.4400000000000002E-010    -2.0624546216074664E-037
  -4.4000000000000003E-010     2.2561445616317398E-037
  -4.3600000000000005E-010     8.2279860321479307E-037
  -4.3199999999999996E-010     1.5706519081841211E-036
  -4.2799999999999997E-010     2.4253679201520037E-036
  -4.2399999999999998E-010     3.3076480334325411E-036
  -4.2000000000000000E-010     4.0988775570613127E-036
  -4.1600000000000001E-010     4.6414588875182544E-036
  -4.1200000000000002E-010     4.7450321080289389E-036
  -4.0800000000000004E-010     4.2001706743939496E-036
  -4.0400000000000005E-010     2.8007098168233095E-036
  -3.9999999999999996E-010     3.7510266699747626E-037
  -3.9599999999999998E-010    -3.1739606622949866E-036
  -3.9199999999999999E-010    -7.8239250951800613E-036
  -3.8800000000000000E-010    -1.3384791106427569E-035
  -3.8400000000000002E-010    -1.9455573710092323E-035
  -3.8000000000000003E-010    -2.5392669660084337E-035
  -3.7600000000000005E-010    -3.0299454569102082E-035
  -3.7200000000000006E-010    -3.3047310367393416E-035
  -3.6799999999999997E-010    -3.2337812282950815E-035
  -3.6399999999999998E-010    -2.6814102339476980E-035
  -3.6000000000000000E-010    -1.5225678109732955E-035
  -3.5600000000000001E-010     3.3548166814142825E-036
  -3.5200000000000003E-010     2.9271984688790201E-035
  -3.4800000000000004E-010     6.2003963530828880E-035
  -3.4400000000000005E-010     9.9883947561840542E-035
  -3.3999999999999996E-010     1.3986698741374424E-034
  -3.3599999999999998E-010     1.7739146475969130E-034
  -3.3199999999999999E-010     2.0639116294209157E-034
  -3.2800000000000000E-010     2.1951457013743871E-034
  -3.2400000000000002E-010     2.0860256168957600E-034
  -3.2000000000000003E-010     1.6545996751010469E-034
  -3.1600000000000005E-010     8.2931333080378739E-035
  -3.1200000000000006E-010    -4.3745568828089150E-035
  -3.0799999999999997E-010    -2.1538155955059639E-034
  -3.0399999999999998E-010    -4.2720045286323968E-034
  -3.0000000000000000E-010    -6.6731147481925994E-034
  -2.9600000000000001E-010    -9.1552936703412304E-034
  -2.9200000000000003E-010    -1.1428259852804938E-033
  -2.8800000000000004E-010    -1.3117200034161823E-033
  -2.8400000000000005E-010    -1.3779026312548810E-033
  -2.7999999999999996E-010    -1.2933470267128299E-033
  -2.7599999999999998E-010    -1.0110511400078960E-033
  -2.7199999999999999E-010    -4.9140581655190878E-034
  -2.6800000000000011E-010     2.9002522123907126E-034
  -2.6399999999999992E-010     1.3337855935845513E-033
  -2.5999999999999993E-010     2.6076253833809816E-033
  -2.5599999999999994E-010     4.0384721883614023E-033
  -2.5199999999999996E-010     5.5065915314834976E-033
  -2.4799999999999997E-010     6.8434481958950683E-033
  -2.4399999999999998E-010     7.8348535192228622E-033
  -2.4000000000000000E-010     8.2308812394347372E-033
  -2.3600000000000001E-010     7.7637324375782675E-033
  -2.3200000000000003E-010     6.1741349368483046E-033
  -2.2800000000000004E-010     3.2460633649484364E-033
  -2.2400000000000005E-010    -1.1515657857788575E-033
  -2.2000000000000007E-010    -7.0188532588728623E-033
  -2.1600000000000008E-010    -1.4178599801267345E-032
  -2.1200000000000010E-010    -2.2235194166725508E-032
  -2.0800000000000011E-010    -3.0545441111307920E-032
  -2.0399999999999992E-010    -3.8208900207341200E-032
  -1.9999999999999993E-010    -4.4085552054142939E-032
  -1.9599999999999994E-010    -4.6847931452480667E-032
  -1.9199999999999996E-010    -4.5073264121157243E-032
  -1.8799999999999997E-010    -3.7378172472143335E-032
  -1.8399999999999998E-010    -2.2594414954761230E-032
  -1.8000000000000000E-010     2.1220578764837913E-035
  -1.7600000000000001E-010     3.0555997050578304E-032
  -1.7200000000000003E-010     6.8209129406322481E-032
  -1.6800000000000004E-010     1.1108507426358227E-031
  -1.6400000000000005E-010     1.5604431249397387E-031
  -1.6000000000000007E-010     1.9864775425082604E-031
  -1.5600000000000008E-010     2.3323155036840226E-031
  -1.5200000000000010E-010     2.5314630546229313E-031
  -1.4800000000000011E-010     2.5118633320150608E-031
  -1.4399999999999992E-010     2.2022207226920781E-031
  -1.3999999999999993E-010     1.5402886865477152E-031
  -1.3599999999999994E-010     4.8281934643464038E-032
  -1.3199999999999996E-010    -9.8341375437108736E-032
  -1.2799999999999997E-010    -2.8304112514410030E-031
  -1.2399999999999999E-010    -4.9787546011563626E-031
  -1.2000000000000000E-010    -7.2898719450142666E-031
  -1.1600000000000001E-010    -9.5623954583459732E-031
  -1.1200000000000003E-010    -1.1534277827895554E-030
  -1.0800000000000004E-010    -1.2892247458180167E-030
  -1.0400000000000005E-010    -1.3289817515142398E-030
  -1.0000000000000007E-010    -1.2374539057377458E-030
  -9.6000000000000082E-011    -9.8243727121385928E-031
  -9.2000000000000096E-011    -5.3920212692839929E-031
  -8.8000000000000110E-011     1.0451295587779591E-031
  -8.3999999999999917E-011     9.4331418611114771E-031
  -7.9999999999999931E-011     1.9492707482962593E-030
  -7.5999999999999944E-011     3.0679512942337002E-030
  -7.1999999999999958E-011     4.2160799484897487E-030
  -6.7999999999999972E-011     5.2815408810694171E-030
  -6.3999999999999986E-011     6.1264331821353682E-030
  -6.0000000000000000E-011     6.5937589546663542E-030
  -5.6000000000000013E-011     6.5181135422022384E-030
  -5.2000000000000027E-011     5.7404388293027476E-030
  -4.8000000000000041E-011     4.1264869664147082E-030
  -4.4000000000000055E-011     1.5881575671699797E-030
  -4.0000000000000069E-011    -1.8936672323950193E-030
  -3.6000000000000082E-011    -6.2467187919081190E-030
  -3.2000000000000096E-011    -1.1287800924731521E-029
  -2.8000000000000110E-011    -1.6708940881797247E-029
  -2.3999999999999917E-011    -2.2072281123356205E-029
  -1.9999999999999931E-011    -2.6816723777286325E-029
  -1.5999999999999945E-011    -3.0278989103170025E-029
  -1.1999999999999959E-011    -3.1731046994006320E-029
  -7.9999999999999724E-012    -3.0434718594766962E-029
  -3.9999999999999862E-012    -2.5712831890677709E-029
   0.0000000000000000         -1.7034355333924083E-029
   3.9999999999999862E-012    -4.1089358013219027E-030
   7.9999999999999724E-012     1.3015974727333030E-029
   1.1999999999999959E-011     3.3864363482217604E-029
   1.5999999999999945E-011     5.7457971275198975E-029
   1.9999999999999931E-011     8.2271646660153045E-029
   2.3999999999999917E-011     1.0623003461239797E-028
   2.7999999999999903E-011     1.2675718577572260E-028
   3.1999999999999889E-011     1.4088857637204242E-028
   3.6000000000000082E-011     1.4545135718860098E-028
   4.0000000000000069E-011     1.3731383372814097E-028
   4.4000000000000055E-011     1.1369842982486710E-028
   4.8000000000000041E-011     7.2544972198737283E-029
   5.2000000000000027E-011     1.2902674375190605E-029
   5.6000000000000013E-011    -6.4679046990153401E-029
   6.0000000000000000E-011    -1.5779859035856477E-028
   6.3999999999999986E-011    -2.6193256319011320E-028
   6.7999999999999972E-011    -3.7029580595716309E-028
   7.1999999999999958E-011    -4.7387761467365569E-028
   7.5999999999999944E-011    -5.6169674605680819E-028
   7.9999999999999931E-011    -6.2130735932350416E-028
   8.3999999999999917E-011    -6.3957326410206158E-028
   8.7999999999999903E-011    -6.0370643000649504E-028
   9.1999999999999889E-011    -5.0254113373947371E-028
   9.6000000000000082E-011    -3.2798497878654699E-028
   1.0000000000000007E-010    -7.6558086590636652E-029
   1.0400000000000005E-010     2.4909963456229926E-028
   1.0800000000000004E-010     6.3889856269429412E-028
   1.1200000000000003E-010     1.0743129971143548E-027
   1.1600000000000001E-010     1.5279130250342920E-027
   1.2000000000000000E-010     1.9635857266598951E-027
   1.2399999999999999E-010     2.3375947736980854E-027
   1.2799999999999997E-010     2.6005878261379511E-027
   1.3199999999999996E-010     2.7006056051958579E-027
   1.3599999999999994E-010     2.5870616349525307E-027
   1.3999999999999993E-010     2.2155765191064599E-027
   1.4399999999999992E-010     1.5534417079296309E-027
   1.4799999999999990E-010     5.8537884732146862E-028
   1.5199999999999989E-010    -6.8084324650835791E-028
   1.5600000000000008E-010    -2.2094620767190193E-027
   1.6000000000000007E-010    -3.9330374507444048E-027
   1.6400000000000005E-010    -5.7506488580134249E-027
   1.6800000000000004E-010    -7.5285757084063682E-027
   1.7200000000000003E-010    -9.1039779288233718E-027
   1.7600000000000001E-010    -1.0291955459395573E-026
   1.8000000000000000E-010    -1.0896165134896536E-026
   1.8399999999999998E-010    -1.0722896921519794E-026
   1.8799999999999997E-010    -9.5982008266882912E-027
   1.9199999999999996E-010    -7.3872971914058981E-027
   1.9599999999999994E-010    -4.0151452368774770E-027
   1.9999999999999993E-010     5.1332013030397158E-028
   2.0399999999999992E-010     6.0950575173643500E-027
   2.0799999999999990E-010     1.2514896156830386E-026
   2.1199999999999989E-010     1.9437716053176437E-026
   2.1600000000000008E-010     2.6408853679967274E-026
   2.2000000000000007E-010     3.2864530794210446E-026
   2.2400000000000005E-010     3.8153627459563558E-026
   2.2800000000000004E-010     4.1571509079877499E-026
   2.3200000000000003E-010     4.2405720242684986E-026
   2.3600000000000001E-010     3.9992409844339250E-026
   2.4000000000000000E-010     3.3781137862270685E-026
   2.4399999999999998E-010     2.3404627915340691E-026
   2.4799999999999997E-010     8.7488557063778094E-027
   2.5199999999999996E-010    -9.9821511389134195E-027
   2.5599999999999994E-010    -3.2213104249820907E-026
   2.5999999999999993E-010    -5.6962579771192050E-026
   2.6399999999999992E-010    -8.2833094431616293E-026
   2.6799999999999990E-010    -1.0803214671325355E-025
   2.7199999999999989E-010    -1.3042894319241618E-025
   2.7600000000000008E-010    -1.4764973977553593E-025
   2.8000000000000007E-010    -1.5721217608315695E-025
   2.8400000000000005E-010    -1.5669603918401282E-025
   2.8800000000000004E-010    -1.4394463266703586E-025
   2.9200000000000003E-010    -1.1728696424569331E-025
   2.9600000000000001E-010    -7.5768062327432733E-026
   3.0000000000000000E-010    -1.9370987973207263E-026
   3.0399999999999998E-010     5.0788082265853593E-026
   3.0799999999999997E-010     1.3231202812888860E-025
   3.1199999999999996E-010     2.2144284568591711E-025
   3.1599999999999994E-010     3.1306886726401461E-025
   3.1999999999999993E-010     4.0083578129377093E-025
   3.2399999999999992E-010     4.7737306312247983E-025
   3.2799999999999990E-010     5.3464096287887152E-025
   3.3199999999999989E-010     5.6439546502103053E-025
   3.3600000000000008E-010     5.5875890594180667E-025
   3.4000000000000007E-010     5.1087396431114657E-025
   3.4400000000000005E-010     4.1560816316826261E-025
   3.4800000000000004E-010     2.7026695087614610E-025
   3.5200000000000003E-010     7.5264460921110626E-026
   3.5600000000000001E-010    -1.6530500150220616E-025
   3.6000000000000000E-010    -4.4325428662979873E-025
   3.6399999999999998E-010    -7.4610873637397880E-025
   3.6799999999999997E-010    -1.0571830674467552E-024
   3.7199999999999996E-010    -1.3559736016300761E-024
   3.7599999999999994E-010    -1.6188946304529976E-024
   3.7999999999999993E-010    -1.8203681279246335E-024
   3.8399999999999991E-010    -1.9342522297220912E-024
   3.8799999999999990E-010    -1.9355686413576788E-024
   3.9199999999999989E-010    -1.8024599992999851E-024
   3.9599999999999987E-010    -1.5182795635118099E-024
   4.0000000000000007E-010    -1.0736939261930310E-024
   4.0400000000000005E-010    -4.6865294537236019E-025
   4.0800000000000004E-010     2.8592990740882574E-025
   4.1200000000000002E-010     1.1669513860788354E-024
   4.1600000000000001E-010     2.1385064618846313E-024
   4.2000000000000000E-010     3.1520359389887188E-024
   4.2399999999999998E-010     4.1473498289303479E-024
   4.2799999999999997E-010     5.0546045565287396E-024
   4.3199999999999996E-010     5.7972571453655254E-024
   4.3599999999999994E-010     6.2959619934413129E-024
   4.3999999999999993E-010     6.4733081801267642E-024
   4.4399999999999991E-010     6.2592200079197391E-024
   4.4799999999999990E-010     5.5967724850385839E-024
   4.5199999999999989E-010     4.4481176429726052E-024
   4.5599999999999987E-010     2.8001511215794977E-024
   4.6000000000000007E-010     6.6951428678154466E-025
   4.6400000000000005E-010    -1.8934862647229850E-024
   4.6800000000000004E-010    -4.8024629175452106E-024
   4.7200000000000002E-010    -7.9344174161153970E-024
   4.7600000000000001E-010    -1.1131419807208298E-023
   4.8000000000000000E-010    -1.4204728019501638E-023
   4.8399999999999998E-010    -1.6941460049112477E-023
   4.8799999999999997E-010    -1.9113795233195701E-023
   4.9199999999999996E-010    -2.0490520018152842E-023
   4.9599999999999994E-010    -2.0850560868461143E-023
   4.9999999999999993E-010    -1.9997983667925430E-023
   5.0399999999999991E-010    -1.7777774093226153E-023
   5.0799999999999990E-010    -1.4091589588474841E-023
   5.1199999999999989E-010    -8.9125181638898773E-024
   5.1599999999999987E-010    -2.2978683948680803E-024
   5.2000000000000007E-010     5.6010544220321236E-024
   5.2400000000000005E-010     1.4533170257390407E-023
   5.2800000000000004E-010     2.4146749896611102E-023
   5.3200000000000002E-010     3.3994149485861116E-023
   5.3600000000000001E-010     4.3542714364717117E-023
   5.4000000000000000E-010     5.2192072474929791E-023
   5.4399999999999998E-010     5.9297721301489950E-023
   5.4799999999999997E-010     6.4200504449213022E-023
   5.5199999999999995E-010     6.6261154284056866E-023
   5.5599999999999994E-010     6.4898696837431552E-023
   5.5999999999999993E-010     5.9631226448668427E-023
   5.6399999999999991E-010     5.0117137946814205E-023
   5.6799999999999990E-010     3.6194705379967717E-023
   5.7199999999999989E-010     1.7917733795030465E-023
   5.7599999999999987E-010    -4.4151255077639994E-024
   5.8000000000000007E-010    -3.0239761644966205E-023
   5.8400000000000005E-010    -5.8716917726855549E-023
   5.8800000000000004E-010    -8.8735359711696568E-023
   5.9200000000000002E-010    -1.1892950310823565E-022
   5.9600000000000001E-010    -1.4771253842840263E-022
   6.0000000000000000E-010    -1.7332545100396121E-022
   6.0399999999999998E-010    -1.9390174544606055E-022
   6.0799999999999997E-010    -2.0754669145633011E-022
   6.1199999999999995E-010    -2.1242938704996264E-022
   6.1599999999999994E-010    -2.0688479298063899E-022
   6.1999999999999993E-010    -1.8952217902689074E-022
   6.2399999999999991E-010    -1.5933590530674214E-022
   6.2799999999999990E-010    -1.1581335107131885E-022
   6.3199999999999989E-010    -5.9034740319238232E-023
   6.3599999999999987E-010     1.0241122433628537E-023
   6.4000000000000006E-010     9.0511079298461824E-023
   6.4400000000000005E-010     1.7948772947296015E-022
   6.4800000000000004E-010     2.7409094583116545E-022
   6.5200000000000002E-010     3.7047581401014327E-022
   6.5600000000000001E-010     4.6410072924990417E-022
   6.6000000000000000E-010     5.4983877724233367E-022
   6.6399999999999978E-010     6.2213342371944672E-022
   6.6800000000000017E-010     6.7519798897732543E-022
   6.7200000000000016E-010     7.0325649657681398E-022
   6.7600000000000015E-010     7.0082120092086258E-022
   6.8000000000000013E-010     6.6299929637447737E-022
   6.8400000000000012E-010     5.8582012414643169E-022
   6.8800000000000011E-010     4.6656995223566732E-022
   6.9200000000000009E-010     3.0412137850176583E-022
   6.9600000000000008E-010     9.9240689806284442E-023
   7.0000000000000006E-010    -1.4514417140407131E-022
   7.0400000000000005E-010    -4.2373341668697319E-022
   7.0800000000000004E-010    -7.2872228974899247E-022
   7.1200000000000002E-010    -1.0497625763443123E-021
   7.1600000000000001E-010    -1.3740370664332935E-021
   7.2000000000000000E-010    -1.6864603161274094E-021
   7.2399999999999998E-010    -1.9700182743970491E-021
   7.2799999999999997E-010    -2.2062530601858810E-021
   7.3199999999999995E-010    -2.3758933443156587E-021
   7.3599999999999994E-010    -2.4596263981878295E-021
   7.3999999999999993E-010    -2.4389977738687214E-021
   7.4399999999999991E-010    -2.2974198343578753E-021
   7.4799999999999990E-010    -2.0212564184000622E-021
   7.5199999999999988E-010    -1.6009504193305443E-021
   7.5599999999999987E-010    -1.0321449015718008E-021
   7.5999999999999986E-010    -3.1674714146603882E-022
   7.6399999999999984E-010     5.3612431049820879E-022
   7.6799999999999983E-010     1.5093725792071702E-021
   7.7199999999999982E-010     2.5774000749195098E-021
   7.7599999999999980E-010     3.7058959678275746E-021
   7.7999999999999979E-010     4.8519910572303070E-021
   7.8399999999999977E-010     5.9648381712110960E-021
   7.8800000000000017E-010     6.9866534125455707E-021
   7.9200000000000016E-010     7.8542503606336234E-021
   7.9600000000000015E-010     8.5010740957009802E-021
   8.0000000000000013E-010     8.8597223225216403E-021
   8.0400000000000012E-010     8.8649132039828374E-021
   8.0800000000000010E-010     8.4568449745299685E-021
   8.1200000000000009E-010     7.5848415125342237E-021
   8.1600000000000008E-010     6.2111772428320759E-021
   8.2000000000000006E-010     4.3149242535878636E-021
   8.2400000000000005E-010     1.8956580492821564E-021
   8.2800000000000004E-010    -1.0231720316043570E-021
   8.3200000000000002E-010    -4.3914150342355772E-021
   8.3600000000000001E-010    -8.1301449832820352E-021
   8.3999999999999999E-010    -1.2130553599889000E-020
   8.4399999999999998E-010    -1.6254015026136031E-020
   8.4799999999999997E-010    -2.0333493708249970E-020
   8.5199999999999995E-010    -2.4176463358659098E-020
   8.5599999999999994E-010    -2.7569422522032370E-020
   8.5999999999999993E-010    -3.0284061271369482E-020
   8.6399999999999991E-010    -3.2085062878270436E-020
   8.6799999999999990E-010    -3.2739469371550718E-020
   8.7199999999999988E-010    -3.2027402573461808E-020
   8.7599999999999987E-010    -2.9753919278079686E-020
   8.7999999999999986E-010    -2.5761624140059130E-020
   8.8399999999999984E-010    -1.9943631530208937E-020
   8.8799999999999983E-010    -1.2256346445308148E-020
   8.9199999999999981E-010    -2.7314959874405395E-021
   8.9599999999999980E-010     8.5132289655028214E-021
   8.9999999999999979E-010     2.1265605089562190E-020
   9.0399999999999977E-010     3.5213049595813978E-020
   9.0799999999999976E-010     4.9940218458147832E-020
   9.1200000000000016E-010     6.4930653706298025E-020
   9.1600000000000015E-010     7.9573023631148123E-020
   9.2000000000000013E-010     9.3172409276448350E-020
   9.2400000000000012E-010     1.0496688036280934E-019
   9.2800000000000010E-010     1.1414952866503414E-019
   9.3200000000000009E-010     1.1989586190756052E-019
   9.3600000000000008E-010     1.2139607027069908E-019
   9.4000000000000006E-010     1.1789181007849767E-019
   9.4400000000000005E-010     1.0871642545602685E-019
   9.4800000000000004E-010     9.3337567517971926E-020
   9.5200000000000002E-010     7.1400744135414168E-020
   9.5600000000000001E-010     4.2772207311887144E-020
   9.5999999999999999E-010     7.5791942277077020E-021
   9.6399999999999998E-010    -3.3754423214327551E-020
   9.6799999999999997E-010    -8.0479316314473605E-020
   9.7199999999999995E-010    -1.3150092155834393E-019
   9.7599999999999994E-010    -1.8537082630631258E-019
   9.7999999999999992E-010    -2.4029134090510307E-019
   9.8399999999999991E-010    -2.9413518946377630E-019
   9.8799999999999990E-010    -3.4448166669378704E-019
   9.9199999999999988E-010    -3.8867017200425262E-019
   9.9599999999999987E-010    -4.2387198034478898E-019
   9.9999999999999986E-010    -4.4717942261530149E-019
   1.0039999999999998E-009    -4.5571230762166882E-019
   1.0079999999999998E-009    -4.4673920743305843E-019
   1.0119999999999998E-009    -4.1781117629782466E-019