  -1.2000000000000000E-009     0.0000000000000000
  -1.1960000000000000E-009     0.0000000000000000
  -1.1920000000000000E-009     0.0000000000000000
  -1.1880000000000000E-009     0.0000000000000000
  -1.1840000000000000E-009     0.0000000000000000
  -1.1800000000000001E-009     0.0000000000000000
  -1.1760000000000001E-009     0.0000000000000000
  -1.1720000000000001E-009     0.0000000000000000
  -1.1679999999999999E-009     0.0000000000000000
  -1.1639999999999999E-009     0.0000000000000000
  -1.1599999999999999E-009     0.0000000000000000
  -1.1559999999999999E-009     0.0000000000000000
  -1.1520000000000000E-009     0.0000000000000000
  -1.1480000000000000E-009     0.0000000000000000
  -1.1440000000000000E-009     0.0000000000000000
  -1.1400000000000000E-009     0.0000000000000000
  -1.1360000000000000E-009     0.0000000000000000
  -1.1320000000000000E-009     0.0000000000000000
  -1.1280000000000000E-009     0.0000000000000000
  -1.1240000000000000E-009     0.0000000000000000
  -1.1200000000000001E-009     0.0000000000000000
  -1.1160000000000001E-009     0.0000000000000000
  -1.1120000000000001E-009     0.0000000000000000
  -1.1079999999999999E-009     0.0000000000000000
  -1.1039999999999999E-009    -1.4012984643248171E-045
  -1.0999999999999999E-009    -5.6051938572992683E-045
  -1.0959999999999999E-009    -1.4012984643248171E-044
  -1.0920000000000000E-009    -3.5032461608120427E-044
  -1.0880000000000000E-009    -8.2676609395164207E-044
  -1.0840000000000000E-009    -1.8637269575520067E-043
  -1.0800000000000000E-009    -4.0637655465419695E-043
  -1.0760000000000000E-009    -8.5058816784516396E-043
  -1.0720000000000000E-009    -1.7095841264762768E-042
  -1.0680000000000000E-009    -3.3084656742708931E-042
  -1.0640000000000000E-009    -6.1741210338151440E-042
  -1.0600000000000001E-009    -1.1129112403667697E-041
  -1.0560000000000001E-009    -1.9393970746255468E-041
  -1.0520000000000001E-009    -3.2688089277305008E-041
  -1.0480000000000001E-009    -5.3308196179844691E-041
  -1.0439999999999999E-009    -8.4105933828775521E-041
  -1.0399999999999999E-009    -1.2829447960279430E-040
  -1.0359999999999999E-009    -1.8896790051113023E-040
  -1.0320000000000000E-009    -2.6816928971476889E-040
  -1.0280000000000000E-009    -3.6535214081262361E-040
  -1.0240000000000000E-009    -4.7503737680918434E-040
  -1.0200000000000000E-009    -5.8355673248342682E-040
  -1.0160000000000000E-009    -6.6480822134037269E-040
  -1.0120000000000000E-009    -6.7516521829019741E-040
  -1.0080000000000000E-009    -5.4789368656636023E-040
  -1.0040000000000000E-009    -1.8779361239802603E-040
  -1.0000000000000001E-009     5.3279609691172465E-040
  -9.9600000000000008E-010     1.7749757193139944E-039
  -9.9199999999999988E-010     3.7290962369042021E-039
  -9.8799999999999990E-010     6.6026941561442461E-039
  -9.8399999999999991E-010     1.0597407918259682E-038
  -9.7999999999999992E-010     1.5871431508186602E-038
  -9.7599999999999994E-010     2.2483961378251943E-038
  -9.7199999999999995E-010     3.0318216117035806E-038
  -9.6799999999999997E-010     3.8980286522321090E-038
  -9.6399999999999998E-010     4.7672050442065416E-038
  -9.5999999999999999E-010     5.5038407419715829E-038
  -9.5600000000000001E-010     5.8992159826420586E-038
  -9.5200000000000002E-010     5.6524904830671595E-038
  -9.4800000000000004E-010     4.3520039526031056E-038
  -9.4400000000000005E-010     1.4595575881089678E-038
  -9.4000000000000006E-010    -3.6978730650415023E-038
  -9.3600000000000008E-010    -1.1922255181746944E-037
  -9.3200000000000009E-010    -2.4114815232068288E-037
  -9.2800000000000000E-010    -4.1209358333933705E-037
  -9.2400000000000001E-010    -6.4051864064798890E-037
  -9.1999999999999992E-010    -9.3206203716320432E-037
  -9.1599999999999994E-010    -1.2866448069139217E-036
  -9.1199999999999995E-010    -1.6944160234829164E-036
  -9.0799999999999997E-010    -2.1304075526198278E-036
  -9.0399999999999998E-010    -2.5479066055489408E-036
  -8.9999999999999999E-010    -2.8708036179983031E-036
  -8.9600000000000001E-010    -2.9855418465741174E-036
  -8.9200000000000002E-010    -2.7338067610411957E-036
  -8.8800000000000004E-010    -1.9077271015500939E-036
  -8.8400000000000005E-010    -2.5009484886484796E-037
  -8.8000000000000006E-010     2.5371397904554335E-036
  -8.7599999999999997E-010     6.7721998819102652E-036
  -8.7199999999999999E-010     1.2756372285655455E-035
  -8.6800000000000000E-010     2.0716348798534325E-035
  -8.6400000000000001E-010     3.0722773158501597E-035
  -8.5999999999999993E-010     4.2583815363379501E-035
  -8.5599999999999994E-010     5.5715751780432317E-035
  -8.5199999999999995E-010     6.8997380056222657E-035
  -8.4799999999999997E-010     8.0621239873117020E-035
  -8.4399999999999998E-010     8.7962259491187304E-035
  -8.3999999999999999E-010     8.7492830873138712E-035
  -8.3600000000000001E-010     7.4781426412148868E-035
  -8.3200000000000002E-010     4.4619151115432786E-035
  -8.2800000000000004E-010    -8.6775288573204522E-036
  -8.2400000000000005E-010    -9.0740266030811008E-035
  -8.2000000000000006E-010    -2.0635906643618435E-034
  -8.1599999999999997E-010    -3.5840643677354038E-034
  -8.1199999999999999E-010    -5.4648089521255040E-034
  -8.0800000000000000E-010    -7.6531436739273337E-034
  -8.0400000000000002E-010    -1.0030400541715460E-033
  -7.9999999999999993E-010    -1.2394777021989947E-033
  -7.9599999999999994E-010    -1.4446617105029635E-033
  -7.9199999999999995E-010    -1.5779033523201967E-033
  -7.8799999999999997E-010    -1.5877393013007022E-033
  -7.8399999999999998E-010    -1.4131581863944377E-033
  -7.7999999999999999E-010    -9.8650782815318440E-034
  -7.7600000000000001E-010    -2.3845164637594152E-034
  -7.7200000000000002E-010     8.9474524937914263E-034
  -7.6800000000000004E-010     2.4614750687172927E-033
  -7.6400000000000005E-010     4.4826922382211140E-033
  -7.6000000000000006E-010     6.9378653715210530E-033
  -7.5600000000000008E-010     9.7497411635520612E-033
  -7.5199999999999999E-010     1.2769098320658927E-032
  -7.4800000000000000E-010     1.5761100254854219E-032
  -7.4400000000000002E-010     1.8395296402338592E-032
  -7.3999999999999993E-010     2.0241640971071343E-032
  -7.3599999999999994E-010     2.0775190510069887E-032
  -7.3199999999999995E-010     1.9392161162241986E-032
  -7.2799999999999997E-010     1.5439899362227906E-032
  -7.2399999999999998E-010     8.2628003191633779E-033
  -7.2000000000000000E-010    -2.7345060395568315E-033
  -7.1600000000000001E-010    -1.8006670623117051E-032
  -7.1200000000000002E-010    -3.7771240150643046E-032
  -7.0800000000000004E-010    -6.1899781027718935E-032
  -7.0400000000000005E-010    -8.9802002603031982E-032
  -6.9999999999999996E-010    -1.2031092992106749E-031
  -6.9599999999999997E-010    -1.5157952634079365E-031
  -6.9199999999999999E-010    -1.8100171500896570E-031
  -6.8800000000000000E-010    -2.0517273531314443E-031
  -6.8400000000000002E-010    -2.1990539409109629E-031
  -6.8000000000000003E-010    -2.2031949724100396E-031
  -6.7600000000000004E-010    -2.0102154754287657E-031
  -6.7199999999999995E-010    -1.5638967273424546E-031
  -6.6799999999999997E-010    -8.0975703352863017E-032
  -6.6399999999999998E-010     2.9969510592858417E-032
  -6.6000000000000000E-010     1.7984913104304094E-031
  -6.5600000000000001E-010     3.6996338405407258E-031
  -6.5200000000000002E-010     5.9866676561389828E-031
  -6.4800000000000004E-010     8.6047879192056630E-031
  -6.4400000000000005E-010     1.1452044945089430E-030
  -6.3999999999999996E-010     1.4371385165356581E-030
  -6.3599999999999998E-010     1.7144460974539616E-030
  -6.3199999999999999E-010     1.9488310193695037E-030
  -6.2800000000000000E-010     2.1056150704584501E-030
  -6.2400000000000002E-010     2.1443651947135327E-030
  -6.2000000000000003E-010     2.0202030866904143E-030
  -6.1600000000000004E-010     1.6859242786838019E-030
  -6.1199999999999995E-010     1.0950337373390113E-030
  -6.0799999999999997E-010     2.0575977719194508E-031
  -6.0399999999999998E-010    -1.0139439992791750E-030
  -6.0000000000000000E-010    -2.5804873286426190E-030
  -5.9600000000000001E-010    -4.4879934209309989E-030
  -5.9200000000000002E-010    -6.7012092946027024E-030
  -5.8800000000000004E-010    -9.1484087293988032E-030
  -5.8400000000000005E-010    -1.1714873632950237E-029
  -5.7999999999999996E-010    -1.4237671836594613E-029
  -5.7599999999999998E-010    -1.6502588020685538E-029
  -5.7199999999999999E-010    -1.8244189918434456E-029
  -5.6800000000000000E-010    -1.9150013451957766E-029
  -5.6400000000000002E-010    -1.8869892960077719E-029
  -5.6000000000000003E-010    -1.7031318984996135E-029
  -5.5600000000000004E-010    -1.3261527785976864E-029
  -5.5199999999999995E-010    -7.2166528469297960E-030
  -5.4799999999999997E-010     1.3821517119906335E-030
  -5.4399999999999998E-010     1.2706339359055248E-029
  -5.4000000000000000E-010     2.6772773454102300E-029
  -5.3600000000000001E-010     4.3393940078684099E-029
  -5.3200000000000002E-010     6.2128694446609366E-029
  -5.2800000000000004E-010     8.2237551681606315E-029
  -5.2400000000000005E-010     1.0264727528510301E-028
  -5.1999999999999996E-010     1.2193022755610487E-028
  -5.1599999999999998E-010     1.3830442375797439E-028
  -5.1199999999999999E-010     1.4966014004431902E-028
  -5.0800000000000000E-010     1.5361878071144761E-028
  -5.0400000000000002E-010     1.4762868117604151E-028
  -5.0000000000000003E-010     1.2910113881453909E-028
  -4.9600000000000004E-010     9.5587899444573119E-029
  -4.9199999999999996E-010     4.4998546667443554E-029
  -4.8799999999999997E-010    -2.4146853738998140E-029
  -4.8399999999999998E-010    -1.1243852256643543E-028
  -4.8000000000000000E-010    -2.1928363901775992E-028
  -4.7600000000000001E-010    -3.4261605190693807E-028
  -4.7200000000000002E-010    -4.7862955792193954E-028
  -4.6800000000000004E-010    -6.2155994503571055E-028
  -4.6400000000000005E-010    -7.6354296720983747E-028
  -4.5999999999999996E-010    -8.9457760728085767E-028
  -4.5599999999999998E-010    -1.0026242993874232E-027
  -4.5199999999999999E-010    -1.0738658924777653E-027
  -4.4800000000000000E-010    -1.0931555253182618E-027
  -4.4400000000000002E-010    -1.0446687945208549E-027
  -4.4000000000000003E-010    -9.1277013412853393E-028
  -4.3600000000000005E-010    -6.8308979564023701E-028
  -4.3199999999999996E-010    -3.4379594881324261E-028
  -4.2799999999999997E-010     1.1297123478905294E-028
  -4.2399999999999998E-010     6.8955389060908111E-028
  -4.2000000000000000E-010     1.3811888448195698E-027
  -4.1600000000000001E-010     2.1744675444435143E-027
  -4.1200000000000002E-010     3.0459491109417886E-027
  -4.0800000000000004E-010     3.9610535684594171E-027
  -4.0400000000000005E-010     4.8733692794175728E-027
  -3.9999999999999996E-010     5.7245213072018788E-027
  -3.9599999999999998E-010     6.4447451506928405E-027
  -3.9199999999999999E-010     6.9543073101928265E-027
  -3.8800000000000000E-010     7.1658907442551860E-027
  -3.8400000000000002E-010     6.9880426694706911E-027
  -3.8000000000000003E-010     6.3297363181338123E-027
  -3.7600000000000005E-010     5.1060416463709725E-027
  -3.7200000000000006E-010     3.2448410518566251E-027
  -3.6799999999999997E-010     6.9444141932544981E-028
  -3.6399999999999998E-010    -2.5681584399553755E-027
  -3.6000000000000000E-010    -6.5286783332272029E-027
  -3.5600000000000001E-010    -1.1127083364856588E-026
  -3.5200000000000003E-010    -1.6249762734831133E-026
  -3.4800000000000004E-010    -2.1723001414026998E-026
  -3.4400000000000005E-010    -2.7308435527319130E-026
  -3.3999999999999996E-010    -3.2701258157245073E-026
  -3.3599999999999998E-010    -3.7531977332858202E-026
  -3.3199999999999999E-010    -4.1372417227434435E-026
  -3.2800000000000000E-010    -4.3746715988826663E-026
  -3.2400000000000002E-010    -4.4147814781276616E-026
  -3.2000000000000003E-010    -4.2059767757890640E-026
  -3.1600000000000005E-010    -3.6985971571392554E-026
  -3.1200000000000006E-010    -2.8483034007753662E-026
  -3.0799999999999997E-010    -1.6199559133784802E-026
  -3.0399999999999998E-010     8.1208172218986718E-029
  -3.0000000000000000E-010     2.0396570320496754E-026
  -2.9600000000000001E-010     4.4559501566188831E-026
  -2.9200000000000003E-010     7.2116332752527339E-026
  -2.8800000000000004E-010     1.0231005169259561E-025
  -2.8400000000000005E-010     1.3405273599792027E-025
  -2.7999999999999996E-010     1.6591061248433466E-025
  -2.7599999999999998E-010     1.9610571809396289E-025
  -2.7199999999999999E-010     2.2253751345142770E-025
  -2.6800000000000011E-010     2.4282795270603707E-025
  -2.6399999999999992E-010     2.5439228379802779E-025
  -2.5999999999999993E-010     2.5453755746410489E-025
  -2.5599999999999994E-010     2.4058894358989025E-025
  -2.5199999999999996E-010     2.1004318930789128E-025
  -2.4799999999999997E-010     1.6074612502712736E-025
  -2.4399999999999998E-010     9.1089442088151665E-026
  -2.4000000000000000E-010     2.2031194116331688E-028
  -2.3600000000000001E-010    -1.1174542592769365E-025
  -2.3200000000000003E-010    -2.4351721992197393E-025
  -2.2800000000000004E-010    -3.9244368176880350E-025
  -2.2400000000000005E-010    -5.5436066126855349E-025
  -2.2000000000000007E-010    -7.2348864295483205E-025
  -2.1600000000000008E-010    -8.9239515194196981E-025
  -2.1200000000000010E-010    -1.0520377221924512E-024
  -2.0800000000000011E-010    -1.1919005913206472E-024
  -2.0399999999999992E-010    -1.3002382120934960E-024
  -1.9999999999999993E-010    -1.3644336418005057E-024
  -1.9599999999999994E-010    -1.3714753100633479E-024
  -1.9199999999999996E-010    -1.3085531018573649E-024
  -1.8799999999999997E-010    -1.1637648810598083E-024
  -1.8399999999999998E-010    -9.2692014249703315E-025
  -1.8000000000000000E-010    -5.9041900020814018E-025
  -1.7600000000000001E-010    -1.5017567239405361E-025
  -1.7200000000000003E-010     3.9345021898005893E-025
  -1.6800000000000004E-010     1.0347606822919795E-024
  -1.6400000000000005E-010     1.7619172819370564E-024
  -1.6000000000000007E-010     2.5562870000744528E-024
  -1.5600000000000008E-010     3.3919993405326720E-024
  -1.5200000000000010E-010     4.2357764032401920E-024
  -1.4800000000000011E-010     5.0470973617242038E-024
  -1.4399999999999992E-010     5.7787559905553770E-024
  -1.3999999999999993E-010     6.3778583771777375E-024
  -1.3599999999999994E-010     6.7873000639536940E-024
  -1.3199999999999996E-010     6.9477378059966382E-024
  -1.2799999999999997E-010     6.8000622556783595E-024
  -1.2399999999999999E-010     6.2883404138055201E-024
  -1.2000000000000000E-010     5.3631785436586114E-024
  -1.1600000000000001E-010     3.9854215342069886E-024
  -1.1200000000000003E-010     2.1300764970362132E-024
  -1.0800000000000004E-010    -2.0969475930681648E-025
  -1.0400000000000005E-010    -3.0186890609376483E-024
  -1.0000000000000007E-010    -6.2560898078478221E-024
  -9.6000000000000082E-011    -9.8524459324607129E-024
  -9.2000000000000096E-011    -1.3707450615233848E-023
  -8.8000000000000110E-011    -1.7688773228177308E-023
  -8.3999999999999917E-011    -2.1632214740452056E-023
  -7.9999999999999931E-011    -2.5343410869064306E-023
  -7.5999999999999944E-011    -2.8601291233934922E-023
  -7.1999999999999958E-011    -3.1163473588769318E-023
  -6.7999999999999972E-011    -3.2773674380401101E-023
  -6.3999999999999986E-011    -3.3171159302436623E-023
  -6.0000000000000000E-011    -3.2102158112553525E-023
  -5.6000000000000013E-011    -2.9333073319497762E-023
  -5.2000000000000027E-011    -2.4665157729086142E-023
  -4.8000000000000041E-011    -1.7950258530152728E-023
  -4.4000000000000055E-011    -9.1070520519782840E-024
  -4.0000000000000069E-011     1.8628757005872415E-024
  -3.6000000000000082E-011     1.4859908555723897E-023
  -3.2000000000000096E-011     2.9673094457753365E-023
  -2.8000000000000110E-011     4.5969607074306109E-023
  -2.3999999999999917E-011     6.3287924910504389E-023
  -1.9999999999999931E-011     8.1035711245279471E-023
  -1.5999999999999945E-011     9.8493259875805638E-023
  -1.1999999999999959E-011     1.1482338743325166E-022
  -7.9999999999999724E-012     1.2908825189728011E-022
  -3.9999999999999862E-012     1.4027374417523678E-022
   0.0000000000000000          1.4732144012425578E-022
   3.9999999999999862E-012     1.4916795524409919E-022
   7.9999999999999724E-012     1.4479126658951163E-022
   1.1999999999999959E-011     1.3326305526900350E-022
   1.5999999999999945E-011     1.1380569375664414E-022
   1.9999999999999931E-011     8.5852186699084122E-023
   2.3999999999999917E-011     4.9106869029046623E-023
   2.7999999999999903E-011     3.6043634572313367E-024
   3.1999999999999889E-011    -5.0236041373336358E-023
   3.6000000000000082E-011    -1.1156371319868257E-022
   4.0000000000000069E-011    -1.7906091154702489E-022
   4.4000000000000055E-011    -2.5092125538593394E-022
   4.8000000000000041E-011    -3.2484549916661634E-022
   5.2000000000000027E-011    -3.9805767291803557E-022
   5.6000000000000013E-011    -4.6734396993409569E-022
   6.0000000000000000E-011    -5.2911649935655776E-022
   6.3999999999999986E-011    -5.7950272406903009E-022
   6.7999999999999972E-011    -6.1446150529156995E-022
   7.1999999999999958E-011    -6.2992408780166459E-022
   7.5999999999999944E-011    -6.2195919274447598E-022
   7.9999999999999931E-011    -5.8695795187257351E-022
   8.3999999999999917E-011    -5.2183489668280986E-022
   8.7999999999999903E-011    -4.2423874205019604E-022
   9.1999999999999889E-011    -2.9276582043441800E-022
   9.6000000000000082E-011    -1.2716824018461907E-022
   1.0000000000000007E-010     7.1453196948506378E-023
   1.0400000000000005E-010     3.0048110727942019E-022
   1.0800000000000004E-010     5.5564943831777026E-022
   1.1200000000000003E-010     8.3095780478497071E-022
   1.1600000000000001E-010     1.1186430328236288E-021
   1.2000000000000000E-010     1.4092169811447849E-021
   1.2399999999999999E-010     1.6915801117547151E-021
   1.2799999999999997E-010     1.9532159662561740E-021
   1.3199999999999996E-010     2.1804725304451811E-021
   1.3599999999999994E-010     2.3589298813581778E-021
   1.3999999999999993E-010     2.4738540662824549E-021
   1.4399999999999992E-010     2.5107300445619460E-021
   1.4799999999999990E-010     2.4558653113401274E-021
   1.5199999999999989E-010     2.2970488551622552E-021
   1.5600000000000008E-010     2.0242494955139900E-021
   1.6000000000000007E-010     1.6303286596700314E-021
   1.6400000000000005E-010     1.1117442738135155E-021
   1.6800000000000004E-010     4.6921557714161237E-022
   1.7200000000000003E-010    -2.9168277120953472E-022
   1.7600000000000001E-010    -1.1600296294067522E-021
   1.8000000000000000E-010    -2.1192028020310452E-021
   1.8399999999999998E-010    -3.1466940048636682E-021
   1.8799999999999997E-010    -4.2141225216461171E-021
   1.9199999999999996E-010    -5.2874737808614164E-021
   1.9599999999999994E-010    -6.3275863542807922E-021
   1.9999999999999993E-010    -7.2908967426323965E-021
   2.0399999999999992E-010    -8.1304519448374748E-021
   2.0799999999999990E-010    -8.7971869835364913E-021
   2.1199999999999989E-010    -9.2414451725821220E-021
   2.1600000000000008E-010    -9.4147314329763118E-021
   2.2000000000000007E-010    -9.2716469584631109E-021
   2.2400000000000005E-010    -8.7719652449957264E-021
   2.2800000000000004E-010    -7.8827897073538368E-021
   2.3200000000000003E-010    -6.5807205853869245E-021
   2.3600000000000001E-010    -4.8539600540497386E-021
   2.4000000000000000E-010    -2.7042662760407378E-021
   2.4399999999999998E-010    -1.4866777956486562E-022
   2.4799999999999997E-010     2.7791491435934448E-021
   2.5199999999999996E-010     6.0278698993431336E-021
   2.5599999999999994E-010     9.5280810262902189E-021
   2.5999999999999993E-010     1.3192377241007192E-020
   2.6399999999999992E-010     1.6916106867412240E-020
   2.6799999999999990E-010     2.0578809305421629E-020
   2.7199999999999989E-010     2.4046368204702393E-020
   2.7600000000000008E-010     2.7173891248738508E-020
   2.8000000000000007E-010     2.9809304836203793E-020
   2.8400000000000005E-010     3.1797620846582527E-020
   2.8800000000000004E-010     3.2985801173029595E-020
   2.9200000000000003E-010     3.3228139243113490E-020
   2.9600000000000001E-010     3.2392008277838697E-020
   3.0000000000000000E-010     3.0363871275783778E-020
   3.0399999999999998E-010     2.7055331386917797E-020
   3.0799999999999997E-010     2.2409062732968843E-020
   3.1199999999999996E-010     1.6404406801255829E-020
   3.1599999999999994E-010     9.0624049986105736E-021
   3.1999999999999993E-010     4.5005920708536189E-022
   3.2399999999999992E-010    -9.3164132623561418E-021
   3.2799999999999990E-010    -2.0069539082314591E-020
   3.3199999999999989E-010    -3.1589946814043432E-020
   3.3600000000000008E-010    -4.3607320457267584E-020
   3.4000000000000007E-010    -5.5803045226550679E-020
   3.4400000000000005E-010    -6.7814670610752441E-020
   3.4800000000000004E-010    -7.9242254783703481E-020
   3.5200000000000003E-010    -8.9656523319231455E-020
   3.5600000000000001E-010    -9.8608834132602915E-020
   3.6000000000000000E-010    -1.0564280970788733E-019
   3.6399999999999998E-010    -1.1030742981609018E-019
   3.6799999999999997E-010    -1.1217137792890185E-019
   3.7199999999999996E-010    -1.1083826004949901E-019
   3.7599999999999994E-010    -1.0596234699357716E-019
   3.7999999999999993E-010    -9.7264484691445249E-020
   3.8399999999999991E-010    -8.4547642598602282E-020
   3.8799999999999990E-010    -6.7711596151610091E-020
   3.9199999999999989E-010    -4.6766268286645044E-020
   3.9599999999999987E-010    -2.1843246960175563E-020
   4.0000000000000007E-010     6.7951166720933628E-021
   4.0400000000000005E-010     3.8749427660237167E-020
   4.0800000000000004E-010     7.3480263270675408E-020
   4.1200000000000002E-010     1.1030885153276800E-019
   4.1600000000000001E-010     1.4842171524403160E-019
   4.2000000000000000E-010     1.8687951327072981E-019
   4.2399999999999998E-010     2.2463022697006003E-019
   4.2799999999999997E-010     2.6052655683241122E-019
   4.3199999999999996E-010     2.9334773937001996E-019
   4.3599999999999994E-010     3.2182524141474789E-019
   4.3999999999999993E-010     3.4467217672861566E-019
   4.4399999999999991E-010     3.6061605718618112E-019
   4.4799999999999990E-010     3.6843402549875535E-019
   4.5199999999999989E-010     3.6699025928772647E-019
   4.5599999999999987E-010     3.5527448668183166E-019
   4.6000000000000007E-010     3.3244099305291789E-019
   4.6400000000000005E-010     2.9784705906503144E-019
   4.6800000000000004E-010     2.5108979606107071E-019
   4.7200000000000002E-010     1.9204064207926907E-019
   4.7600000000000001E-010     1.2087613555692121E-019
   4.8000000000000000E-010     3.8104242938317145E-020
   4.8399999999999998E-010    -5.5414903648807242E-020
   4.8799999999999997E-010    -1.5845482153823455E-019
   4.9199999999999996E-010    -2.6941587913460647E-019
   4.9599999999999994E-010    -3.8632676932888989E-019
   4.9999999999999993E-010    -5.0685481694429114E-019
   5.0399999999999991E-010    -6.2832582460860869E-019
   5.0799999999999990E-010    -7.4775410975022654E-019
   5.1199999999999989E-010    -8.6188208002054602E-019
   5.1599999999999987E-010    -9.6723097565468707E-019
   5.2000000000000007E-010    -1.0601607883671101E-018
   5.2400000000000005E-010    -1.1369405200048947E-018
   5.2800000000000004E-010    -1.1938276952841212E-018
   5.3200000000000002E-010    -1.2271555259469187E-018
   5.3600000000000001E-010    -1.2334281399294849E-018
   5.4000000000000000E-010    -1.2094206702162052E-018
   5.4399999999999998E-010    -1.1522842033798705E-018
   5.4799999999999997E-010    -1.0596530028685791E-018
   5.5199999999999995E-010    -9.2975111190717968E-019
   5.5599999999999994E-010    -7.6149787072415995E-019
   5.5999999999999993E-010    -5.5460743671909458E-019
   5.6399999999999991E-010    -3.0968155793822175E-019
   5.6799999999999990E-010    -2.8291699830807481E-020
   5.7199999999999989E-010     2.8695215981951894E-019
   5.7599999999999987E-010     6.3234892091533691E-019
   5.8000000000000007E-010     1.0030730217893395E-018
   5.8400000000000005E-010     1.3931627132729155E-018
   5.8800000000000004E-010     1.7955328315280304E-018
   5.9200000000000002E-010     2.2020149680057229E-018
   5.9600000000000001E-010     2.6034252465575465E-018
   6.0000000000000000E-010     2.9896639986993820E-018
   6.0399999999999998E-010     3.3498451139797251E-018
   6.0799999999999997E-010     3.6724581673797473E-018
   6.1199999999999995E-010     3.9455630135523988E-018
   6.1599999999999994E-010     4.1570131255877979E-018
   6.1999999999999993E-010     4.2947101598467439E-018
   6.2399999999999991E-010     4.3468841633932199E-018
   6.2799999999999990E-010     4.3023992172307306E-018
   6.3199999999999989E-010     4.1510747959702797E-018
   6.3599999999999987E-010     3.8840253254718226E-018
   6.4000000000000006E-010     3.4940075987015387E-018
   6.4400000000000005E-010     2.9757675712036442E-018
   6.4800000000000004E-010     2.3263834342594489E-018
   6.5200000000000002E-010     1.5455952463614577E-018
   6.5600000000000001E-010     6.3611052475092180E-019
   6.6000000000000000E-010    -3.9612203534758971E-019
   6.6399999999999978E-010    -1.5416806141125505E-018
   6.6800000000000017E-010    -2.7874900968483057E-018
   6.7200000000000016E-010    -4.1167042007477826E-018
   6.7600000000000015E-010    -5.5086568521821096E-018
   6.8000000000000013E-010    -6.9388980398102911E-018
   6.8400000000000012E-010    -8.3793139625631812E-018
   6.8800000000000011E-010    -9.7983447849397378E-018
   6.9200000000000009E-010    -1.1161305996675000E-017
   6.9600000000000008E-010    -1.2430812342804021E-017
   7.0000000000000006E-010    -1.3567313009518191E-017
   7.0400000000000005E-010    -1.4529730207598126E-017
   7.0800000000000004E-010    -1.5276207770868030E-017
   7.1200000000000002E-010    -1.5764959016323562E-017
   7.1600000000000001E-010    -1.5955200631043407E-017
   7.2000000000000000E-010    -1.5808179203329457E-017
   7.2399999999999998E-010    -1.5288246557503126E-017
   7.2799999999999997E-010    -1.4364001263150676E-017
   7.3199999999999995E-010    -1.3009449996703241E-017
   7.3599999999999994E-010    -1.1205175520461750E-017
   7.3999999999999993E-010    -8.9394872908289920E-018
   7.4399999999999991E-010    -6.2095265716079837E-018
   7.4799999999999990E-010    -3.0222933787324550E-018
   7.5199999999999988E-010     6.0443178203682537E-019
   7.5599999999999987E-010     4.6413009044579939E-018
   7.5999999999999986E-010     9.0467808880832452E-018
   7.6399999999999984E-010     1.3766733020314925E-017
   7.6799999999999983E-010     1.8734218123672486E-017
   7.7199999999999982E-010     2.3869555544109919E-017
   7.7599999999999980E-010     2.9080656091212310E-017
   7.7999999999999979E-010     3.4263667239073625E-017
   7.8399999999999977E-010     3.9303897087040936E-017
   7.8800000000000017E-010     4.4077103107108780E-017
   7.9200000000000016E-010     4.8451088602501381E-017
   7.9600000000000015E-010     5.2287638310306029E-017
   8.0000000000000013E-010     5.5444758406571871E-017
   8.0400000000000012E-010     5.7779254001098627E-017
   8.0800000000000010E-010     5.9149581256188674E-017
   8.1200000000000009E-010     5.9418931115970641E-017
   8.1600000000000008E-010     5.8458574424796576E-017
   8.2000000000000006E-010     5.6151362555594269E-017
   8.2400000000000005E-010     5.2395347152227784E-017
   8.2800000000000004E-010     4.7107456120139645E-017
   8.3200000000000002E-010     4.0227189469327725E-017
   8.3600000000000001E-010     3.1720209278203722E-017
   8.3999999999999999E-010     2.1581782419302608E-017
   8.4399999999999998E-010     9.8399883656981075E-018
   8.4799999999999997E-010    -3.4414204184390925E-018
   8.5199999999999995E-010    -1.8160558442699610E-017
   8.5599999999999994E-010    -3.4175463315995870E-017
   8.5999999999999993E-010    -5.1302740824718740E-017
   8.6399999999999991E-010    -6.9316908151331166E-017
   8.6799999999999990E-010    -8.7950468320623299E-017
   8.7199999999999988E-010    -1.0689485649433326E-016
   8.7599999999999987E-010    -1.2580224653360494E-016
   8.7999999999999986E-010    -1.4428834356073602E-016
   8.8399999999999984E-010    -1.6193610296321196E-016
   8.8799999999999983E-010    -1.7830058098081803E-016
   8.9199999999999981E-010    -1.9291469188270269E-016
   8.9599999999999980E-010    -2.0529602393562501E-016
   8.9999999999999979E-010    -2.1495462151915759E-016
   9.0399999999999977E-010    -2.2140172015295509E-016
   9.0799999999999976E-010    -2.2415930208719047E-016
   9.1200000000000016E-010    -2.2277040628170984E-016
   9.1600000000000015E-010    -2.1681007365989774E-016
   9.2000000000000013E-010    -2.0589678205346513E-016
   9.2400000000000012E-010    -1.8970419878459248E-016
   9.2800000000000010E-010    -1.6797303912719137E-016
   9.3200000000000009E-010    -1.4052289829838643E-016
   9.3600000000000008E-010    -1.0726378566497681E-016
   9.4000000000000006E-010    -6.8207036910076916E-017
   9.4400000000000005E-010    -2.3475536331126410E-017
   9.4800000000000004E-010     2.6687167629759497E-017
   9.5200000000000002E-010     8.1909065381336106E-017
   9.5600000000000001E-010     1.4168345255013303E-016
   9.5999999999999999E-010     2.0536459389968321E-016
   9.6399999999999998E-010     2.7216545023819958E-016
   9.6799999999999997E-010     3.4115779256949964E-016
   9.7199999999999995E-010     4.1127483583607580E-016
   9.7599999999999994E-010     4.8131683727748115E-016
   9.7999999999999992E-010     5.4995954029002240E-016
   9.8399999999999991E-010     6.1576552996220899E-016