  -1.2000000000000000E-009     0.0000000000000000
  -1.1960000000000000E-009     0.0000000000000000
  -1.1920000000000000E-009     0.0000000000000000
  -1.1880000000000000E-009     0.0000000000000000
  -1.1840000000000000E-009     0.0000000000000000
  -1.1800000000000001E-009     0.0000000000000000
  -1.1760000000000001E-009     0.0000000000000000
  -1.1720000000000001E-009     0.0000000000000000
  -1.1679999999999999E-009     0.0000000000000000
  -1.1639999999999999E-009     0.0000000000000000
  -1.1599999999999999E-009     0.0000000000000000
  -1.1559999999999999E-009     0.0000000000000000
  -1.1520000000000000E-009     0.0000000000000000
  -1.1480000000000000E-009     0.0000000000000000
  -1.1440000000000000E-009     0.0000000000000000
  -1.1400000000000000E-009     0.0000000000000000
  -1.1360000000000000E-009     0.0000000000000000
  -1.1320000000000000E-009     0.0000000000000000
  -1.1280000000000000E-009     0.0000000000000000
  -1.1240000000000000E-009     0.0000000000000000
  -1.1200000000000001E-009     0.0000000000000000
  -1.1160000000000001E-009     0.0000000000000000
  -1.1120000000000001E-009     0.0000000000000000
  -1.1079999999999999E-009     0.0000000000000000
  -1.1039999999999999E-009     0.0000000000000000
  -1.0999999999999999E-009     0.0000000000000000
  -1.0959999999999999E-009     0.0000000000000000
  -1.0920000000000000E-009     0.0000000000000000
  -1.0880000000000000E-009     0.0000000000000000
  -1.0840000000000000E-009     0.0000000000000000
  -1.0800000000000000E-009     0.0000000000000000
  -1.0760000000000000E-009     0.0000000000000000
  -1.0720000000000000E-009     0.0000000000000000
  -1.0680000000000000E-009     0.0000000000000000
  -1.0640000000000000E-009     0.0000000000000000
  -1.0600000000000001E-009     0.0000000000000000
  -1.0560000000000001E-009     0.0000000000000000
  -1.0520000000000001E-009     0.0000000000000000
  -1.0480000000000001E-009     0.0000000000000000
  -1.0439999999999999E-009     0.0000000000000000
  -1.0399999999999999E-009     0.0000000000000000
  -1.0359999999999999E-009     0.0000000000000000
  -1.0320000000000000E-009     0.0000000000000000
  -1.0280000000000000E-009     0.0000000000000000
  -1.0240000000000000E-009     0.0000000000000000
  -1.0200000000000000E-009     0.0000000000000000
  -1.0160000000000000E-009     0.0000000000000000
  -1.0120000000000000E-009     0.0000000000000000
  -1.0080000000000000E-009     0.0000000000000000
  -1.0040000000000000E-009     0.0000000000000000
  -1.0000000000000001E-009     0.0000000000000000
  -9.9600000000000008E-010     0.0000000000000000
  -9.9199999999999988E-010     0.0000000000000000
  -9.8799999999999990E-010     0.0000000000000000
  -9.8399999999999991E-010     0.0000000000000000
  -9.7999999999999992E-010     0.0000000000000000
  -9.7599999999999994E-010     0.0000000000000000
  -9.7199999999999995E-010     0.0000000000000000
  -9.6799999999999997E-010     0.0000000000000000
  -9.6399999999999998E-010     0.0000000000000000
  -9.5999999999999999E-010     0.0000000000000000
  -9.5600000000000001E-010     0.0000000000000000
  -9.5200000000000002E-010     0.0000000000000000
  -9.4800000000000004E-010     0.0000000000000000
  -9.4400000000000005E-010     0.0000000000000000
  -9.4000000000000006E-010     0.0000000000000000
  -9.3600000000000008E-010     0.0000000000000000
  -9.3200000000000009E-010     0.0000000000000000
  -9.2800000000000000E-010     0.0000000000000000
  -9.2400000000000001E-010     0.0000000000000000
  -9.1999999999999992E-010     0.0000000000000000
  -9.1599999999999994E-010     0.0000000000000000
  -9.1199999999999995E-010     0.0000000000000000
  -9.0799999999999997E-010     0.0000000000000000
  -9.0399999999999998E-010     0.0000000000000000
  -8.9999999999999999E-010     0.0000000000000000
  -8.9600000000000001E-010     0.0000000000000000
  -8.9200000000000002E-010     0.0000000000000000
  -8.8800000000000004E-010     0.0000000000000000
  -8.8400000000000005E-010     0.0000000000000000
  -8.8000000000000006E-010     0.0000000000000000
  -8.7599999999999997E-010     0.0000000000000000
  -8.7199999999999999E-010     0.0000000000000000
  -8.6800000000000000E-010     0.0000000000000000
  -8.6400000000000001E-010     0.0000000000000000
  -8.5999999999999993E-010     0.0000000000000000
  -8.5599999999999994E-010     0.0000000000000000
  -8.5199999999999995E-010     0.0000000000000000
  -8.4799999999999997E-010     0.0000000000000000
  -8.4399999999999998E-010     0.0000000000000000
  -8.3999999999999999E-010     0.0000000000000000
  -8.3600000000000001E-010     0.0000000000000000
  -8.3200000000000002E-010     0.0000000000000000
  -8.2800000000000004E-010     0.0000000000000000
  -8.2400000000000005E-010     0.0000000000000000
  -8.2000000000000006E-010     0.0000000000000000
  -8.1599999999999997E-010     0.0000000000000000
  -8.1199999999999999E-010     0.0000000000000000
  -8.0800000000000000E-010     0.0000000000000000
  -8.0400000000000002E-010     0.0000000000000000
  -7.9999999999999993E-010     0.0000000000000000
  -7.9599999999999994E-010     0.0000000000000000
  -7.9199999999999995E-010     0.0000000000000000
  -7.8799999999999997E-010     0.0000000000000000
  -7.8399999999999998E-010     0.0000000000000000
  -7.7999999999999999E-010     0.0000000000000000
  -7.7600000000000001E-010     0.0000000000000000
  -7.7200000000000002E-010     0.0000000000000000
  -7.6800000000000004E-010     0.0000000000000000
  -7.6400000000000005E-010     0.0000000000000000
  -7.6000000000000006E-010     0.0000000000000000
  -7.5600000000000008E-010     0.0000000000000000
  -7.5199999999999999E-010     0.0000000000000000
  -7.4800000000000000E-010     0.0000000000000000
  -7.4400000000000002E-010     0.0000000000000000
  -7.3999999999999993E-010     0.0000000000000000
  -7.3599999999999994E-010     0.0000000000000000
  -7.3199999999999995E-010     0.0000000000000000
  -7.2799999999999997E-010     0.0000000000000000
  -7.2399999999999998E-010     0.0000000000000000
  -7.2000000000000000E-010     0.0000000000000000
  -7.1600000000000001E-010     0.0000000000000000
  -7.1200000000000002E-010     0.0000000000000000
  -7.0800000000000004E-010     0.0000000000000000
  -7.0400000000000005E-010     0.0000000000000000
  -6.9999999999999996E-010     0.0000000000000000
  -6.9599999999999997E-010     0.0000000000000000
  -6.9199999999999999E-010     0.0000000000000000
  -6.8800000000000000E-010     0.0000000000000000
  -6.8400000000000002E-010     0.0000000000000000
  -6.8000000000000003E-010     0.0000000000000000
  -6.7600000000000004E-010     0.0000000000000000
  -6.7199999999999995E-010     0.0000000000000000
  -6.6799999999999997E-010     0.0000000000000000
  -6.6399999999999998E-010     0.0000000000000000
  -6.6000000000000000E-010     0.0000000000000000
  -6.5600000000000001E-010     0.0000000000000000
  -6.5200000000000002E-010     0.0000000000000000
  -6.4800000000000004E-010     0.0000000000000000
  -6.4400000000000005E-010     0.0000000000000000
  -6.3999999999999996E-010     0.0000000000000000
  -6.3599999999999998E-010     0.0000000000000000
  -6.3199999999999999E-010     0.0000000000000000
  -6.2800000000000000E-010     0.0000000000000000
  -6.2400000000000002E-010     0.0000000000000000
  -6.2000000000000003E-010     0.0000000000000000
  -6.1600000000000004E-010     0.0000000000000000
  -6.1199999999999995E-010     0.0000000000000000
  -6.0799999999999997E-010     0.0000000000000000
  -6.0399999999999998E-010     0.0000000000000000
  -6.0000000000000000E-010     0.0000000000000000
  -5.9600000000000001E-010     0.0000000000000000
  -5.9200000000000002E-010     0.0000000000000000
  -5.8800000000000004E-010     0.0000000000000000
  -5.8400000000000005E-010     0.0000000000000000
  -5.7999999999999996E-010     0.0000000000000000
  -5.7599999999999998E-010     0.0000000000000000
  -5.7199999999999999E-010     0.0000000000000000
  -5.6800000000000000E-010     0.0000000000000000
  -5.6400000000000002E-010     0.0000000000000000
  -5.6000000000000003E-010     0.0000000000000000
  -5.5600000000000004E-010     0.0000000000000000
  -5.5199999999999995E-010     0.0000000000000000
  -5.4799999999999997E-010     0.0000000000000000
  -5.4399999999999998E-010     0.0000000000000000
  -5.4000000000000000E-010     0.0000000000000000
  -5.3600000000000001E-010     0.0000000000000000
  -5.3200000000000002E-010     0.0000000000000000
  -5.2800000000000004E-010     0.0000000000000000
  -5.2400000000000005E-010     0.0000000000000000
  -5.1999999999999996E-010     0.0000000000000000
  -5.1599999999999998E-010     0.0000000000000000
  -5.1199999999999999E-010     0.0000000000000000
  -5.0800000000000000E-010     0.0000000000000000
  -5.0400000000000002E-010     0.0000000000000000
  -5.0000000000000003E-010     0.0000000000000000
  -4.9600000000000004E-010     0.0000000000000000
  -4.9199999999999996E-010     0.0000000000000000
  -4.8799999999999997E-010     0.0000000000000000
  -4.8399999999999998E-010     0.0000000000000000
  -4.8000000000000000E-010     0.0000000000000000
  -4.7600000000000001E-010     0.0000000000000000
  -4.7200000000000002E-010     0.0000000000000000
  -4.6800000000000004E-010     0.0000000000000000
  -4.6400000000000005E-010     0.0000000000000000
  -4.5999999999999996E-010     0.0000000000000000
  -4.5599999999999998E-010     0.0000000000000000
  -4.5199999999999999E-010     0.0000000000000000
  -4.4800000000000000E-010     0.0000000000000000
  -4.4400000000000002E-010     0.0000000000000000
  -4.4000000000000003E-010     0.0000000000000000
  -4.3600000000000005E-010     0.0000000000000000
  -4.3199999999999996E-010     0.0000000000000000
  -4.2799999999999997E-010     0.0000000000000000
  -4.2399999999999998E-010     0.0000000000000000
  -4.2000000000000000E-010     0.0000000000000000
  -4.1600000000000001E-010     0.0000000000000000
  -4.1200000000000002E-010     0.0000000000000000
  -4.0800000000000004E-010     0.0000000000000000
  -4.0400000000000005E-010     0.0000000000000000
  -3.9999999999999996E-010     0.0000000000000000
  -3.9599999999999998E-010     0.0000000000000000
  -3.9199999999999999E-010     0.0000000000000000
  -3.8800000000000000E-010     0.0000000000000000
  -3.8400000000000002E-010     0.0000000000000000
  -3.8000000000000003E-010     0.0000000000000000
  -3.7600000000000005E-010     0.0000000000000000
  -3.7200000000000006E-010     0.0000000000000000
  -3.6799999999999997E-010     0.0000000000000000
  -3.6399999999999998E-010     0.0000000000000000
  -3.6000000000000000E-010     0.0000000000000000
  -3.5600000000000001E-010     0.0000000000000000
  -3.5200000000000003E-010     0.0000000000000000
  -3.4800000000000004E-010     0.0000000000000000
  -3.4400000000000005E-010     0.0000000000000000
  -3.3999999999999996E-010     0.0000000000000000
  -3.3599999999999998E-010     0.0000000000000000
  -3.3199999999999999E-010     0.0000000000000000
  -3.2800000000000000E-010     0.0000000000000000
  -3.2400000000000002E-010     0.0000000000000000
  -3.2000000000000003E-010     0.0000000000000000
  -3.1600000000000005E-010     0.0000000000000000
  -3.1200000000000006E-010     0.0000000000000000
  -3.0799999999999997E-010     0.0000000000000000
  -3.0399999999999998E-010     0.0000000000000000
  -3.0000000000000000E-010     0.0000000000000000
  -2.9600000000000001E-010     0.0000000000000000
  -2.9200000000000003E-010     0.0000000000000000
  -2.8800000000000004E-010     0.0000000000000000
  -2.8400000000000005E-010     0.0000000000000000
  -2.7999999999999996E-010     0.0000000000000000
  -2.7599999999999998E-010     0.0000000000000000
  -2.7199999999999999E-010     0.0000000000000000
  -2.6800000000000011E-010     0.0000000000000000
  -2.6399999999999992E-010     0.0000000000000000
  -2.5999999999999993E-010     0.0000000000000000
  -2.5599999999999994E-010     0.0000000000000000
  -2.5199999999999996E-010     0.0000000000000000
  -2.4799999999999997E-010     0.0000000000000000
  -2.4399999999999998E-010     0.0000000000000000
  -2.4000000000000000E-010     0.0000000000000000
  -2.3600000000000001E-010     0.0000000000000000
  -2.3200000000000003E-010     0.0000000000000000
  -2.2800000000000004E-010     0.0000000000000000
  -2.2400000000000005E-010     0.0000000000000000
  -2.2000000000000007E-010     0.0000000000000000
  -2.1600000000000008E-010     0.0000000000000000
  -2.1200000000000010E-010     0.0000000000000000
  -2.0800000000000011E-010     0.0000000000000000
  -2.0399999999999992E-010     0.0000000000000000
  -1.9999999999999993E-010     0.0000000000000000
  -1.9599999999999994E-010     0.0000000000000000
  -1.9199999999999996E-010     0.0000000000000000
  -1.8799999999999997E-010     0.0000000000000000
  -1.8399999999999998E-010     0.0000000000000000
  -1.8000000000000000E-010     0.0000000000000000
  -1.7600000000000001E-010     0.0000000000000000
  -1.7200000000000003E-010     0.0000000000000000
  -1.6800000000000004E-010     0.0000000000000000
  -1.6400000000000005E-010     0.0000000000000000
  -1.6000000000000007E-010     0.0000000000000000
  -1.5600000000000008E-010     0.0000000000000000
  -1.5200000000000010E-010     0.0000000000000000
  -1.4800000000000011E-010     0.0000000000000000
  -1.4399999999999992E-010     0.0000000000000000
  -1.3999999999999993E-010     0.0000000000000000
  -1.3599999999999994E-010     0.0000000000000000
  -1.3199999999999996E-010     0.0000000000000000
  -1.2799999999999997E-010     0.0000000000000000
  -1.2399999999999999E-010     0.0000000000000000
  -1.2000000000000000E-010     0.0000000000000000
  -1.1600000000000001E-010     0.0000000000000000
  -1.1200000000000003E-010     0.0000000000000000
  -1.0800000000000004E-010     0.0000000000000000
  -1.0400000000000005E-010     0.0000000000000000
  -1.0000000000000007E-010     0.0000000000000000
  -9.6000000000000082E-011     0.0000000000000000
  -9.2000000000000096E-011     0.0000000000000000
  -8.8000000000000110E-011     0.0000000000000000
  -8.3999999999999917E-011     0.0000000000000000
  -7.9999999999999931E-011     0.0000000000000000
  -7.5999999999999944E-011     0.0000000000000000
  -7.1999999999999958E-011     0.0000000000000000
  -6.7999999999999972E-011     0.0000000000000000
  -6.3999999999999986E-011     0.0000000000000000
  -6.0000000000000000E-011     0.0000000000000000
  -5.6000000000000013E-011     0.0000000000000000
  -5.2000000000000027E-011     0.0000000000000000
  -4.8000000000000041E-011     0.0000000000000000
  -4.4000000000000055E-011     0.0000000000000000
  -4.0000000000000069E-011     0.0000000000000000
  -3.6000000000000082E-011     0.0000000000000000
  -3.2000000000000096E-011     0.0000000000000000
  -2.8000000000000110E-011     0.0000000000000000
  -2.3999999999999917E-011     0.0000000000000000
  -1.9999999999999931E-011     0.0000000000000000
  -1.5999999999999945E-011     0.0000000000000000
  -1.1999999999999959E-011     0.0000000000000000
  -7.9999999999999724E-012     0.0000000000000000
  -3.9999999999999862E-012     0.0000000000000000
   0.0000000000000000          0.0000000000000000
   3.9999999999999862E-012     0.0000000000000000
   7.9999999999999724E-012     0.0000000000000000
   1.1999999999999959E-011     0.0000000000000000
   1.5999999999999945E-011     0.0000000000000000
   1.9999999999999931E-011     0.0000000000000000
   2.3999999999999917E-011     0.0000000000000000
   2.7999999999999903E-011     0.0000000000000000
   3.1999999999999889E-011     0.0000000000000000
   3.6000000000000082E-011     0.0000000000000000
   4.0000000000000069E-011     0.0000000000000000
   4.4000000000000055E-011     0.0000000000000000
   4.8000000000000041E-011     0.0000000000000000
   5.2000000000000027E-011     0.0000000000000000
   5.6000000000000013E-011     0.0000000000000000
   6.0000000000000000E-011     0.0000000000000000
   6.3999999999999986E-011     0.0000000000000000
   6.7999999999999972E-011     0.0000000000000000
   7.1999999999999958E-011     0.0000000000000000
   7.5999999999999944E-011     0.0000000000000000
   7.9999999999999931E-011     0.0000000000000000
   8.3999999999999917E-011     0.0000000000000000
   8.7999999999999903E-011     0.0000000000000000
   9.1999999999999889E-011     0.0000000000000000
   9.6000000000000082E-011     0.0000000000000000
   1.0000000000000007E-010     0.0000000000000000
   1.0400000000000005E-010     0.0000000000000000
   1.0800000000000004E-010     0.0000000000000000
   1.1200000000000003E-010     0.0000000000000000
   1.1600000000000001E-010     0.0000000000000000
   1.2000000000000000E-010     0.0000000000000000
   1.2399999999999999E-010     0.0000000000000000
   1.2799999999999997E-010     0.0000000000000000
   1.3199999999999996E-010     0.0000000000000000
   1.3599999999999994E-010     0.0000000000000000
   1.3999999999999993E-010     0.0000000000000000
   1.4399999999999992E-010     0.0000000000000000
   1.4799999999999990E-010     0.0000000000000000
   1.5199999999999989E-010     0.0000000000000000
   1.5600000000000008E-010     0.0000000000000000
   1.6000000000000007E-010     0.0000000000000000
   1.6400000000000005E-010     0.0000000000000000
   1.6800000000000004E-010     0.0000000000000000
   1.7200000000000003E-010     0.0000000000000000
   1.7600000000000001E-010     0.0000000000000000
   1.8000000000000000E-010     0.0000000000000000
   1.8399999999999998E-010     0.0000000000000000
   1.8799999999999997E-010     0.0000000000000000
   1.9199999999999996E-010     0.0000000000000000
   1.9599999999999994E-010     0.0000000000000000
   1.9999999999999993E-010     0.0000000000000000
   2.0399999999999992E-010     0.0000000000000000
   2.0799999999999990E-010     0.0000000000000000
   2.1199999999999989E-010     0.0000000000000000
   2.1600000000000008E-010     0.0000000000000000
   2.2000000000000007E-010     0.0000000000000000
   2.2400000000000005E-010     0.0000000000000000
   2.2800000000000004E-010     0.0000000000000000
   2.3200000000000003E-010     0.0000000000000000
   2.3600000000000001E-010     0.0000000000000000
   2.4000000000000000E-010     0.0000000000000000
   2.4399999999999998E-010     0.0000000000000000
   2.4799999999999997E-010     0.0000000000000000
   2.5199999999999996E-010     0.0000000000000000
   2.5599999999999994E-010     0.0000000000000000
   2.5999999999999993E-010     0.0000000000000000
   2.6399999999999992E-010     0.0000000000000000
   2.6799999999999990E-010     0.0000000000000000
   2.7199999999999989E-010     0.0000000000000000
   2.7600000000000008E-010     0.0000000000000000
   2.8000000000000007E-010     0.0000000000000000
   2.8400000000000005E-010     0.0000000000000000
   2.8800000000000004E-010     0.0000000000000000
   2.9200000000000003E-010     0.0000000000000000
   2.9600000000000001E-010     0.0000000000000000
   3.0000000000000000E-010     0.0000000000000000
   3.0399999999999998E-010     0.0000000000000000
   3.0799999999999997E-010     0.0000000000000000
   3.1199999999999996E-010     0.0000000000000000
   3.1599999999999994E-010     0.0000000000000000
   3.1999999999999993E-010     0.0000000000000000
   3.2399999999999992E-010     0.0000000000000000
   3.2799999999999990E-010     0.0000000000000000
   3.3199999999999989E-010     0.0000000000000000
   3.3600000000000008E-010     0.0000000000000000
   3.4000000000000007E-010     0.0000000000000000
   3.4400000000000005E-010     0.0000000000000000
   3.4800000000000004E-010     0.0000000000000000
   3.5200000000000003E-010     0.0000000000000000
   3.5600000000000001E-010     0.0000000000000000
   3.6000000000000000E-010     0.0000000000000000
   3.6399999999999998E-010     0.0000000000000000
   3.6799999999999997E-010     0.0000000000000000
   3.7199999999999996E-010     0.0000000000000000
   3.7599999999999994E-010     0.0000000000000000
   3.7999999999999993E-010     0.0000000000000000
   3.8399999999999991E-010     0.0000000000000000
   3.8799999999999990E-010     0.0000000000000000
   3.9199999999999989E-010     0.0000000000000000
   3.9599999999999987E-010     0.0000000000000000
   4.0000000000000007E-010     0.0000000000000000
   4.0400000000000005E-010     0.0000000000000000
   4.0800000000000004E-010     0.0000000000000000
   4.1200000000000002E-010     0.0000000000000000
   4.1600000000000001E-010     0.0000000000000000
   4.2000000000000000E-010     0.0000000000000000
   4.2399999999999998E-010     0.0000000000000000
   4.2799999999999997E-010     0.0000000000000000
   4.3199999999999996E-010     0.0000000000000000
   4.3599999999999994E-010     0.0000000000000000
   4.3999999999999993E-010     0.0000000000000000
   4.4399999999999991E-010     0.0000000000000000
   4.4799999999999990E-010     0.0000000000000000
   4.5199999999999989E-010     0.0000000000000000
   4.5599999999999987E-010     0.0000000000000000
   4.6000000000000007E-010     0.0000000000000000
   4.6400000000000005E-010     0.0000000000000000
   4.6800000000000004E-010     0.0000000000000000
   4.7200000000000002E-010     0.0000000000000000
   4.7600000000000001E-010     0.0000000000000000
   4.8000000000000000E-010     0.0000000000000000
   4.8399999999999998E-010     0.0000000000000000
   4.8799999999999997E-010     0.0000000000000000
   4.9199999999999996E-010     0.0000000000000000
   4.9599999999999994E-010     0.0000000000000000
   4.9999999999999993E-010     0.0000000000000000
   5.0399999999999991E-010     0.0000000000000000
   5.0799999999999990E-010     0.0000000000000000
   5.1199999999999989E-010     0.0000000000000000
   5.1599999999999987E-010     0.0000000000000000
   5.2000000000000007E-010     0.0000000000000000
   5.2400000000000005E-010     0.0000000000000000
   5.2800000000000004E-010     0.0000000000000000
   5.3200000000000002E-010     0.0000000000000000
   5.3600000000000001E-010     0.0000000000000000
   5.4000000000000000E-010     0.0000000000000000
   5.4399999999999998E-010     0.0000000000000000
   5.4799999999999997E-010     0.0000000000000000
   5.5199999999999995E-010     0.0000000000000000
   5.5599999999999994E-010     0.0000000000000000
   5.5999999999999993E-010     0.0000000000000000
   5.6399999999999991E-010     0.0000000000000000
   5.6799999999999990E-010     0.0000000000000000
   5.7199999999999989E-010     0.0000000000000000
   5.7599999999999987E-010     0.0000000000000000
   5.8000000000000007E-010     0.0000000000000000
   5.8400000000000005E-010     0.0000000000000000
   5.8800000000000004E-010     0.0000000000000000
   5.9200000000000002E-010     0.0000000000000000
   5.9600000000000001E-010     0.0000000000000000
   6.0000000000000000E-010     0.0000000000000000
   6.0399999999999998E-010     0.0000000000000000
   6.0799999999999997E-010     0.0000000000000000
   6.1199999999999995E-010     0.0000000000000000
   6.1599999999999994E-010     0.0000000000000000
   6.1999999999999993E-010     0.0000000000000000
   6.2399999999999991E-010     0.0000000000000000
   6.2799999999999990E-010     0.0000000000000000
   6.3199999999999989E-010     0.0000000000000000
   6.3599999999999987E-010     0.0000000000000000
   6.4000000000000006E-010     0.0000000000000000
   6.4400000000000005E-010     0.0000000000000000
   6.4800000000000004E-010     0.0000000000000000
   6.5200000000000002E-010     0.0000000000000000
   6.5600000000000001E-010     0.0000000000000000
   6.6000000000000000E-010     0.0000000000000000
   6.6399999999999978E-010     0.0000000000000000
   6.6800000000000017E-010     0.0000000000000000
   6.7200000000000016E-010     0.0000000000000000
   6.7600000000000015E-010     0.0000000000000000
   6.8000000000000013E-010     0.0000000000000000
   6.8400000000000012E-010     0.0000000000000000
   6.8800000000000011E-010     0.0000000000000000
   6.9200000000000009E-010     0.0000000000000000
   6.9600000000000008E-010     0.0000000000000000
   7.0000000000000006E-010     0.0000000000000000
   7.0400000000000005E-010     0.0000000000000000
   7.0800000000000004E-010     0.0000000000000000
   7.1200000000000002E-010     0.0000000000000000
   7.1600000000000001E-010     0.0000000000000000
   7.2000000000000000E-010     0.0000000000000000
   7.2399999999999998E-010     0.0000000000000000
   7.2799999999999997E-010     0.0000000000000000
   7.3199999999999995E-010     0.0000000000000000
   7.3599999999999994E-010     0.0000000000000000
   7.3999999999999993E-010     0.0000000000000000
   7.4399999999999991E-010     0.0000000000000000
   7.4799999999999990E-010     0.0000000000000000
   7.5199999999999988E-010     0.0000000000000000
   7.5599999999999987E-010     0.0000000000000000
   7.5999999999999986E-010     0.0000000000000000
   7.6399999999999984E-010     0.0000000000000000
   7.6799999999999983E-010     0.0000000000000000
   7.7199999999999982E-010     0.0000000000000000
   7.7599999999999980E-010     0.0000000000000000
   7.7999999999999979E-010     0.0000000000000000
   7.8399999999999977E-010     0.0000000000000000
   7.8800000000000017E-010     0.0000000000000000
   7.9200000000000016E-010     0.0000000000000000
   7.9600000000000015E-010     0.0000000000000000
   8.0000000000000013E-010     0.0000000000000000
   8.0400000000000012E-010     0.0000000000000000
   8.0800000000000010E-010     0.0000000000000000
   8.1200000000000009E-010     0.0000000000000000
   8.1600000000000008E-010     0.0000000000000000
   8.2000000000000006E-010     0.0000000000000000
   8.2400000000000005E-010     0.0000000000000000
   8.2800000000000004E-010     0.0000000000000000
   8.3200000000000002E-010     0.0000000000000000
   8.3600000000000001E-010     0.0000000000000000
   8.3999999999999999E-010     0.0000000000000000
   8.4399999999999998E-010     0.0000000000000000
   8.4799999999999997E-010     0.0000000000000000
   8.5199999999999995E-010     0.0000000000000000
   8.5599999999999994E-010     0.0000000000000000
   8.5999999999999993E-010     0.0000000000000000
   8.6399999999999991E-010    -1.4012984643248171E-045
   8.6799999999999990E-010    -1.4012984643248171E-045
   8.7199999999999988E-010    -1.4012984643248171E-045
   8.7599999999999987E-010     0.0000000000000000
   8.7999999999999986E-010     2.8025969286496341E-045
   8.8399999999999984E-010     5.6051938572992683E-045
   8.8799999999999983E-010     5.6051938572992683E-045
   8.9199999999999981E-010     2.8025969286496341E-045
   8.9599999999999980E-010    -2.8025969286496341E-045
   8.9999999999999979E-010    -9.8090892502737195E-045
   9.0399999999999977E-010    -1.6815581571897805E-044
   9.0799999999999976E-010    -2.1019476964872256E-044
   9.1200000000000016E-010    -2.2420775429197073E-044
   9.1600000000000015E-010    -1.8216880036222622E-044
   9.2000000000000013E-010    -8.4077907859489024E-045
   9.2400000000000012E-010     7.0064923216240854E-045
   9.2800000000000010E-010     2.5223372357846707E-044
   9.3200000000000009E-010     4.6242849322718963E-044
   9.3600000000000008E-010     7.0064923216240854E-044
   9.4000000000000006E-010     9.6689594038412378E-044
   9.4400000000000005E-010     1.2331426486058390E-043
   9.4800000000000004E-010     1.4713633875410579E-043
   9.5200000000000002E-010     1.5974802493302915E-043
   9.5600000000000001E-010     1.5274153261140506E-043
   9.5999999999999999E-010     1.1630777253895982E-043
   9.6399999999999998E-010     4.0637655465419695E-044
   9.6799999999999997E-010    -8.4077907859489024E-044
   9.7199999999999995E-010    -2.5503632050711671E-043
   9.7599999999999994E-010    -4.6523109015583927E-043
   9.7999999999999992E-010    -6.9504403830510927E-043
   9.8399999999999991E-010    -9.2065309106140482E-043
   9.8799999999999990E-010    -1.1042231898879559E-042
   9.9199999999999988E-010    -1.2009127839263682E-042
   9.9599999999999987E-010    -1.1574725315322989E-042
   9.9999999999999986E-010    -9.2065309106140482E-043
   1.0039999999999998E-009    -4.3300122547636847E-043
   1.0079999999999998E-009     3.4612072068822982E-043
   1.0119999999999998E-009     1.4391335228615871E-042
   1.0159999999999998E-009     2.8264190025431560E-042
   1.0199999999999998E-009     4.4379122365166957E-042
   1.0239999999999998E-009     6.1306807814210747E-042
   1.0279999999999998E-009     7.6889246737502713E-042
   1.0320000000000002E-009     8.8127660421387746E-042
   1.0360000000000001E-009     9.1350646889334825E-042
   1.0400000000000001E-009     8.2396349702299244E-042
   1.0440000000000001E-009     5.7046860482663303E-042
   1.0480000000000001E-009     1.1504660392106748E-042
   1.0520000000000001E-009    -5.6822652728371332E-042
   1.0560000000000001E-009    -1.4845355931057112E-041
   1.0600000000000001E-009    -2.6082368316477820E-041
   1.0640000000000000E-009    -3.8727685658544969E-041
   1.0680000000000000E-009    -5.1616828933404637E-041
   1.0720000000000000E-009    -6.3021997134544323E-041
   1.0760000000000000E-009    -7.0646462078935653E-041
   1.0800000000000000E-009    -7.1686225539464667E-041
   1.0840000000000000E-009    -6.2989767269864852E-041
   1.0880000000000000E-009    -4.1342508592975078E-041
   1.0920000000000000E-009    -3.8759915523224440E-042
   1.0959999999999999E-009     5.1392621179112666E-041
   1.0999999999999999E-009     1.2490894251298554E-040
   1.1039999999999999E-009     2.1484007405795933E-040
   1.1079999999999999E-009     3.1633191793361286E-040
   1.1119999999999999E-009     4.2082674441831446E-040
   1.1159999999999999E-009     5.1557694138210130E-040
   1.1199999999999999E-009     5.8348947015713923E-040
   1.1239999999999998E-009     6.0345937457223220E-040
   1.1279999999999998E-009     5.5136890675788577E-040
   1.1319999999999998E-009     4.0188819567296456E-040
   1.1359999999999998E-009     1.3119937131933965E-040
   1.1399999999999998E-009    -2.7931942159540146E-040
   1.1439999999999998E-009    -8.3851177767961269E-040
   1.1479999999999998E-009    -1.5401377148716556E-039
   1.1520000000000002E-009    -2.3572208364348132E-039
   1.1560000000000001E-009    -3.2365930760356732E-039
   1.1600000000000001E-009    -4.0943530894212516E-039
   1.1640000000000001E-009    -4.8131827678598103E-039