  -1.2000000000000000E-009     0.0000000000000000
  -1.1960000000000000E-009     0.0000000000000000
  -1.1920000000000000E-009     0.0000000000000000
  -1.1880000000000000E-009     0.0000000000000000
  -1.1840000000000000E-009     0.0000000000000000
  -1.1800000000000001E-009     0.0000000000000000
  -1.1760000000000001E-009     0.0000000000000000
  -1.1720000000000001E-009     0.0000000000000000
  -1.1679999999999999E-009     0.0000000000000000
  -1.1639999999999999E-009     0.0000000000000000
  -1.1599999999999999E-009     0.0000000000000000
  -1.1559999999999999E-009     0.0000000000000000
  -1.1520000000000000E-009     0.0000000000000000
  -1.1480000000000000E-009     0.0000000000000000
  -1.1440000000000000E-009     0.0000000000000000
  -1.1400000000000000E-009     0.0000000000000000
  -1.1360000000000000E-009     0.0000000000000000
  -1.1320000000000000E-009     0.0000000000000000
  -1.1280000000000000E-009     0.0000000000000000
  -1.1240000000000000E-009     0.0000000000000000
  -1.1200000000000001E-009     0.0000000000000000
  -1.1160000000000001E-009     0.0000000000000000
  -1.1120000000000001E-009     0.0000000000000000
  -1.1079999999999999E-009     0.0000000000000000
  -1.1039999999999999E-009     0.0000000000000000
  -1.0999999999999999E-009     0.0000000000000000
  -1.0959999999999999E-009     0.0000000000000000
  -1.0920000000000000E-009     0.0000000000000000
  -1.0880000000000000E-009     0.0000000000000000
  -1.0840000000000000E-009     0.0000000000000000
  -1.0800000000000000E-009     0.0000000000000000
  -1.0760000000000000E-009     0.0000000000000000
  -1.0720000000000000E-009     0.0000000000000000
  -1.0680000000000000E-009     0.0000000000000000
  -1.0640000000000000E-009     0.0000000000000000
  -1.0600000000000001E-009     0.0000000000000000
  -1.0560000000000001E-009     0.0000000000000000
  -1.0520000000000001E-009     0.0000000000000000
  -1.0480000000000001E-009     0.0000000000000000
  -1.0439999999999999E-009     0.0000000000000000
  -1.0399999999999999E-009     0.0000000000000000
  -1.0359999999999999E-009     0.0000000000000000
  -1.0320000000000000E-009     0.0000000000000000
  -1.0280000000000000E-009     0.0000000000000000
  -1.0240000000000000E-009     0.0000000000000000
  -1.0200000000000000E-009     0.0000000000000000
  -1.0160000000000000E-009     0.0000000000000000
  -1.0120000000000000E-009     0.0000000000000000
  -1.0080000000000000E-009     0.0000000000000000
  -1.0040000000000000E-009     0.0000000000000000
  -1.0000000000000001E-009     0.0000000000000000
  -9.9600000000000008E-010     0.0000000000000000
  -9.9199999999999988E-010     0.0000000000000000
  -9.8799999999999990E-010     0.0000000000000000
  -9.8399999999999991E-010     0.0000000000000000
  -9.7999999999999992E-010     0.0000000000000000
  -9.7599999999999994E-010     0.0000000000000000
  -9.7199999999999995E-010     0.0000000000000000
  -9.6799999999999997E-010     0.0000000000000000
  -9.6399999999999998E-010     0.0000000000000000
  -9.5999999999999999E-010     0.0000000000000000
  -9.5600000000000001E-010     0.0000000000000000
  -9.5200000000000002E-010     0.0000000000000000
  -9.4800000000000004E-010     0.0000000000000000
  -9.4400000000000005E-010     0.0000000000000000
  -9.4000000000000006E-010     0.0000000000000000
  -9.3600000000000008E-010     0.0000000000000000
  -9.3200000000000009E-010     0.0000000000000000
  -9.2800000000000000E-010     0.0000000000000000
  -9.2400000000000001E-010     0.0000000000000000
  -9.1999999999999992E-010     0.0000000000000000
  -9.1599999999999994E-010     0.0000000000000000
  -9.1199999999999995E-010     0.0000000000000000
  -9.0799999999999997E-010     0.0000000000000000
  -9.0399999999999998E-010     0.0000000000000000
  -8.9999999999999999E-010     0.0000000000000000
  -8.9600000000000001E-010     0.0000000000000000
  -8.9200000000000002E-010     0.0000000000000000
  -8.8800000000000004E-010     0.0000000000000000
  -8.8400000000000005E-010     0.0000000000000000
  -8.8000000000000006E-010     0.0000000000000000
  -8.7599999999999997E-010     0.0000000000000000
  -8.7199999999999999E-010     0.0000000000000000
  -8.6800000000000000E-010     0.0000000000000000
  -8.6400000000000001E-010     0.0000000000000000
  -8.5999999999999993E-010     0.0000000000000000
  -8.5599999999999994E-010     0.0000000000000000
  -8.5199999999999995E-010     0.0000000000000000
  -8.4799999999999997E-010     0.0000000000000000
  -8.4399999999999998E-010     0.0000000000000000
  -8.3999999999999999E-010     0.0000000000000000
  -8.3600000000000001E-010     0.0000000000000000
  -8.3200000000000002E-010     0.0000000000000000
  -8.2800000000000004E-010     0.0000000000000000
  -8.2400000000000005E-010     0.0000000000000000
  -8.2000000000000006E-010     0.0000000000000000
  -8.1599999999999997E-010     0.0000000000000000
  -8.1199999999999999E-010     0.0000000000000000
  -8.0800000000000000E-010     0.0000000000000000
  -8.0400000000000002E-010     0.0000000000000000
  -7.9999999999999993E-010     0.0000000000000000
  -7.9599999999999994E-010     0.0000000000000000
  -7.9199999999999995E-010     0.0000000000000000
  -7.8799999999999997E-010     0.0000000000000000
  -7.8399999999999998E-010     0.0000000000000000
  -7.7999999999999999E-010     0.0000000000000000
  -7.7600000000000001E-010     0.0000000000000000
  -7.7200000000000002E-010     0.0000000000000000
  -7.6800000000000004E-010     0.0000000000000000
  -7.6400000000000005E-010     0.0000000000000000
  -7.6000000000000006E-010     0.0000000000000000
  -7.5600000000000008E-010     0.0000000000000000
  -7.5199999999999999E-010     0.0000000000000000
  -7.4800000000000000E-010     0.0000000000000000
  -7.4400000000000002E-010     0.0000000000000000
  -7.3999999999999993E-010     0.0000000000000000
  -7.3599999999999994E-010     0.0000000000000000
  -7.3199999999999995E-010     0.0000000000000000
  -7.2799999999999997E-010     0.0000000000000000
  -7.2399999999999998E-010     0.0000000000000000
  -7.2000000000000000E-010     0.0000000000000000
  -7.1600000000000001E-010     0.0000000000000000
  -7.1200000000000002E-010     0.0000000000000000
  -7.0800000000000004E-010     0.0000000000000000
  -7.0400000000000005E-010     0.0000000000000000
  -6.9999999999999996E-010     0.0000000000000000
  -6.9599999999999997E-010     0.0000000000000000
  -6.9199999999999999E-010     0.0000000000000000
  -6.8800000000000000E-010     0.0000000000000000
  -6.8400000000000002E-010     0.0000000000000000
  -6.8000000000000003E-010     0.0000000000000000
  -6.7600000000000004E-010     0.0000000000000000
  -6.7199999999999995E-010     0.0000000000000000
  -6.6799999999999997E-010     0.0000000000000000
  -6.6399999999999998E-010     0.0000000000000000
  -6.6000000000000000E-010     0.0000000000000000
  -6.5600000000000001E-010     0.0000000000000000
  -6.5200000000000002E-010     0.0000000000000000
  -6.4800000000000004E-010     0.0000000000000000
  -6.4400000000000005E-010     0.0000000000000000
  -6.3999999999999996E-010     0.0000000000000000
  -6.3599999999999998E-010     0.0000000000000000
  -6.3199999999999999E-010     0.0000000000000000
  -6.2800000000000000E-010     0.0000000000000000
  -6.2400000000000002E-010     0.0000000000000000
  -6.2000000000000003E-010     0.0000000000000000
  -6.1600000000000004E-010     0.0000000000000000
  -6.1199999999999995E-010     0.0000000000000000
  -6.0799999999999997E-010     0.0000000000000000
  -6.0399999999999998E-010     0.0000000000000000
  -6.0000000000000000E-010     0.0000000000000000
  -5.9600000000000001E-010     0.0000000000000000
  -5.9200000000000002E-010     0.0000000000000000
  -5.8800000000000004E-010     0.0000000000000000
  -5.8400000000000005E-010     0.0000000000000000
  -5.7999999999999996E-010     0.0000000000000000
  -5.7599999999999998E-010     0.0000000000000000
  -5.7199999999999999E-010     0.0000000000000000
  -5.6800000000000000E-010     0.0000000000000000
  -5.6400000000000002E-010     0.0000000000000000
  -5.6000000000000003E-010     0.0000000000000000
  -5.5600000000000004E-010     0.0000000000000000
  -5.5199999999999995E-010     0.0000000000000000
  -5.4799999999999997E-010     0.0000000000000000
  -5.4399999999999998E-010     0.0000000000000000
  -5.4000000000000000E-010     0.0000000000000000
  -5.3600000000000001E-010     0.0000000000000000
  -5.3200000000000002E-010     0.0000000000000000
  -5.2800000000000004E-010     0.0000000000000000
  -5.2400000000000005E-010     0.0000000000000000
  -5.1999999999999996E-010     0.0000000000000000
  -5.1599999999999998E-010     0.0000000000000000
  -5.1199999999999999E-010     0.0000000000000000
  -5.0800000000000000E-010     0.0000000000000000
  -5.0400000000000002E-010     0.0000000000000000
  -5.0000000000000003E-010     0.0000000000000000
  -4.9600000000000004E-010     0.0000000000000000
  -4.9199999999999996E-010     0.0000000000000000
  -4.8799999999999997E-010     0.0000000000000000
  -4.8399999999999998E-010     0.0000000000000000
  -4.8000000000000000E-010     0.0000000000000000
  -4.7600000000000001E-010     0.0000000000000000
  -4.7200000000000002E-010     0.0000000000000000
  -4.6800000000000004E-010     0.0000000000000000
  -4.6400000000000005E-010     0.0000000000000000
  -4.5999999999999996E-010     0.0000000000000000
  -4.5599999999999998E-010     0.0000000000000000
  -4.5199999999999999E-010     0.0000000000000000
  -4.4800000000000000E-010     0.0000000000000000
  -4.4400000000000002E-010     0.0000000000000000
  -4.4000000000000003E-010     0.0000000000000000
  -4.3600000000000005E-010     0.0000000000000000
  -4.3199999999999996E-010     0.0000000000000000
  -4.2799999999999997E-010     0.0000000000000000
  -4.2399999999999998E-010     0.0000000000000000
  -4.2000000000000000E-010     0.0000000000000000
  -4.1600000000000001E-010     0.0000000000000000
  -4.1200000000000002E-010     0.0000000000000000
  -4.0800000000000004E-010     0.0000000000000000
  -4.0400000000000005E-010     0.0000000000000000
  -3.9999999999999996E-010     0.0000000000000000
  -3.9599999999999998E-010     0.0000000000000000
  -3.9199999999999999E-010     0.0000000000000000
  -3.8800000000000000E-010     0.0000000000000000
  -3.8400000000000002E-010     0.0000000000000000
  -3.8000000000000003E-010     0.0000000000000000
  -3.7600000000000005E-010     0.0000000000000000
  -3.7200000000000006E-010     0.0000000000000000
  -3.6799999999999997E-010     0.0000000000000000
  -3.6399999999999998E-010     0.0000000000000000
  -3.6000000000000000E-010     0.0000000000000000
  -3.5600000000000001E-010     0.0000000000000000
  -3.5200000000000003E-010     0.0000000000000000
  -3.4800000000000004E-010     0.0000000000000000
  -3.4400000000000005E-010     0.0000000000000000
  -3.3999999999999996E-010     0.0000000000000000
  -3.3599999999999998E-010     0.0000000000000000
  -3.3199999999999999E-010     0.0000000000000000
  -3.2800000000000000E-010     0.0000000000000000
  -3.2400000000000002E-010     0.0000000000000000
  -3.2000000000000003E-010     0.0000000000000000
  -3.1600000000000005E-010     0.0000000000000000
  -3.1200000000000006E-010     0.0000000000000000
  -3.0799999999999997E-010     0.0000000000000000
  -3.0399999999999998E-010     0.0000000000000000
  -3.0000000000000000E-010     0.0000000000000000
  -2.9600000000000001E-010     0.0000000000000000
  -2.9200000000000003E-010     0.0000000000000000
  -2.8800000000000004E-010     0.0000000000000000
  -2.8400000000000005E-010     0.0000000000000000
  -2.7999999999999996E-010     0.0000000000000000
  -2.7599999999999998E-010     0.0000000000000000
  -2.7199999999999999E-010     0.0000000000000000
  -2.6800000000000011E-010     0.0000000000000000
  -2.6399999999999992E-010     0.0000000000000000
  -2.5999999999999993E-010     0.0000000000000000
  -2.5599999999999994E-010     0.0000000000000000
  -2.5199999999999996E-010     0.0000000000000000
  -2.4799999999999997E-010     0.0000000000000000
  -2.4399999999999998E-010     0.0000000000000000
  -2.4000000000000000E-010     0.0000000000000000
  -2.3600000000000001E-010     0.0000000000000000
  -2.3200000000000003E-010     0.0000000000000000
  -2.2800000000000004E-010     0.0000000000000000
  -2.2400000000000005E-010     0.0000000000000000
  -2.2000000000000007E-010     0.0000000000000000
  -2.1600000000000008E-010    -1.4012984643248171E-045
  -2.1200000000000010E-010    -1.4012984643248171E-045
  -2.0800000000000011E-010     1.4012984643248171E-045
  -2.0399999999999992E-010     4.2038953929744512E-045
  -1.9999999999999993E-010     7.0064923216240854E-045
  -1.9599999999999994E-010     7.0064923216240854E-045
  -1.9199999999999996E-010     4.2038953929744512E-045
  -1.8799999999999997E-010    -4.2038953929744512E-045
  -1.8399999999999998E-010    -1.5414283107572988E-044
  -1.8000000000000000E-010    -2.6624670822171524E-044
  -1.7600000000000001E-010    -3.2229864679470793E-044
  -1.7200000000000003E-010    -2.9427267750821158E-044
  -1.6800000000000004E-010    -1.1210387714598537E-044
  -1.6400000000000005E-010     1.9618178500547439E-044
  -1.6000000000000007E-010     5.8854535501642317E-044
  -1.5600000000000008E-010     9.8090892502737195E-044
  -1.5200000000000010E-010     1.2331426486058390E-043
  -1.4800000000000011E-010     1.2051166793193427E-043
  -1.4399999999999992E-010     7.5670117073540122E-044
  -1.3999999999999993E-010    -1.6815581571897805E-044
  -1.3599999999999994E-010    -1.5134023414708024E-043
  -1.3199999999999996E-010    -3.0408176675848530E-043
  -1.2799999999999997E-010    -4.3860641933366774E-043
  -1.2399999999999999E-010    -4.9886225329963488E-043
  -1.2000000000000000E-010    -4.2459343469041957E-043
  -1.1600000000000001E-010    -1.6955711418330287E-043
  -1.1200000000000003E-010     2.8446358825793787E-043
  -1.0800000000000004E-010     8.9402842023923329E-043
  -1.0400000000000005E-010     1.5442309076859484E-042
  -1.0000000000000007E-010     2.0430931609855833E-042
  -9.6000000000000082E-011     2.1411840534883205E-042
  -9.2000000000000096E-011     1.5890724585443426E-042
  -8.8000000000000110E-011     2.1019476964872256E-043
  -8.3999999999999917E-011    -1.9926464162698899E-042
  -7.9999999999999931E-011    -4.7504017940611299E-042
  -7.5999999999999944E-011    -7.4689208148512750E-042
  -7.1999999999999958E-011    -9.2569776553297416E-042
  -6.7999999999999972E-011    -9.0467828856810190E-042
  -6.3999999999999986E-011    -5.8392107008415127E-042
  -6.0000000000000000E-011     9.3886997109762744E-043
  -5.6000000000000013E-011     1.1046435794272533E-041
  -5.2000000000000027E-011     2.3082188304358387E-041
  -4.8000000000000041E-011     3.4314996794386120E-041
  -4.4000000000000055E-011     4.0847850235068418E-041
  -4.0000000000000069E-011     3.8205001331351813E-041
  -3.6000000000000082E-011     2.2398354653767876E-041
  -3.2000000000000096E-011    -8.6165842571333002E-042
  -2.8000000000000110E-011    -5.3336222149131187E-041
  -2.3999999999999917E-011    -1.0535942763719002E-040
  -1.9999999999999931E-011    -1.5280599234076400E-040
  -1.5999999999999945E-011    -1.7907193075606837E-040
  -1.1999999999999959E-011    -1.6536162658111436E-040
  -7.9999999999999724E-012    -9.5122942355297232E-041
  -3.9999999999999862E-012     3.9967834799472432E-041
   0.0000000000000000          2.3341989039644208E-040
   3.9999999999999862E-012     4.5838574715761254E-040
   7.9999999999999724E-012     6.6523001217813446E-040
   1.1999999999999959E-011     7.8446229461214017E-040
   1.5999999999999945E-011     7.3680133124352449E-040
   1.9999999999999931E-011     4.5099950295215643E-040
   2.3999999999999917E-011    -1.1183903173622798E-040
   2.7999999999999903E-011    -9.3113200097762580E-040
   3.1999999999999889E-011    -1.9031412794580708E-039
   3.6000000000000082E-011    -2.8290282202837288E-039
   4.0000000000000069E-011    -3.4236299872629639E-039
   4.4000000000000055E-011    -3.3525561291524091E-039
   4.8000000000000041E-011    -2.3009895316583869E-039
   5.2000000000000027E-011    -7.0563785469540488E-041
   5.6000000000000013E-011     3.3087375261729721E-039
   6.0000000000000000E-011     7.4749435956509431E-039
   6.3999999999999986E-011     1.1670847383483350E-038
   6.7999999999999972E-011     1.4757554773177912E-038
   7.1999999999999958E-011     1.5337815651673247E-038
   7.5999999999999944E-011     1.2008362730302161E-038
   7.9999999999999931E-011     3.7351680631501215E-039
   8.3999999999999917E-011    -9.6899536574337522E-039
   8.7999999999999903E-011    -2.7193881060977194E-038
   9.1999999999999889E-011    -4.6088770951372592E-038
   9.6000000000000082E-011    -6.2006050142714973E-038
   1.0000000000000007E-010    -6.9241256794492298E-038
   1.0400000000000005E-010    -6.1613170894869153E-038
   1.0800000000000004E-010    -3.3855651157780445E-038
   1.1200000000000003E-010     1.6568437364341766E-038
   1.1600000000000001E-010     8.7501380901323984E-038
   1.2000000000000000E-010     1.7040727635641487E-037
   1.2399999999999999E-010     2.4953397074671117E-037
   1.2799999999999997E-010     3.0252832091209796E-037
   1.3199999999999996E-010     3.0302503077095639E-037
   1.3599999999999994E-010     2.2547116498740599E-037
   1.3999999999999993E-010     5.2006967241454238E-038
   1.4399999999999992E-010    -2.1937183966042264E-037
   1.4799999999999990E-010    -5.6682105855515867E-037
   1.5199999999999989E-010    -9.3889391648578582E-037
   1.5600000000000008E-010    -1.2534872602302924E-036
   1.6000000000000007E-010    -1.4039125473736580E-036
   1.6400000000000005E-010    -1.2738698974898738E-036
   1.6800000000000004E-010    -7.6173346893893364E-037
   1.7200000000000003E-010     1.8752357657875679E-037
   1.7600000000000001E-010     1.5470507237701277E-036
   1.8000000000000000E-010     3.1765187830883563E-036
   1.8399999999999998E-010     4.8035130237288291E-036
   1.8799999999999997E-010     6.0283165788046342E-036
   1.9199999999999996E-010     6.3615696577416410E-036
   1.9599999999999994E-010     5.3007204444355858E-036
   1.9999999999999993E-010     2.4446248551188359E-036
   2.0399999999999992E-010    -2.3636331221556250E-036
   2.0799999999999990E-010    -8.8867236603850326E-036
   2.1199999999999989E-010    -1.6367930880805304E-035
   2.1600000000000008E-010    -2.3471462470881396E-035
   2.2000000000000007E-010    -2.8331557639680567E-035
   2.2400000000000005E-010    -2.8747799156157407E-035
   2.2800000000000004E-010    -2.2546851216125720E-035
   2.3200000000000003E-010    -8.1013945673844120E-036
   2.3600000000000001E-010     1.5042909688152650E-035
   2.4000000000000000E-010     4.5528147465982348E-035
   2.4399999999999998E-010     7.9673153169655958E-035
   2.4799999999999997E-010     1.1126414484855371E-034
   2.5199999999999996E-010     1.3182835092854680E-034
   2.5599999999999994E-010     1.3154285732986564E-034
   2.5999999999999993E-010     1.0085513089258534E-034
   2.6399999999999992E-010     3.2766181824639020E-035
   2.6799999999999990E-010    -7.4441554720305163E-035
   2.7199999999999989E-010    -2.1444279414999537E-034
   2.7600000000000008E-010    -3.7067237594126036E-034
   2.8000000000000007E-010    -5.1542534465428331E-034
   2.8400000000000005E-010    -6.1102136662670002E-034
   2.8800000000000004E-010    -6.1368092259543545E-034
   2.9200000000000003E-010    -4.8045236733640478E-034
   2.9600000000000001E-010    -1.7901215463701349E-034
   3.0000000000000000E-010     3.0053361268131960E-034
   3.0399999999999998E-010     9.3352600187421995E-034
   3.0799999999999997E-010     1.6507766552314859E-033
   3.1199999999999996E-010     2.3338077496813534E-033
   3.1599999999999994E-010     2.8185836403413802E-033
   3.1999999999999993E-010     2.9106085012924492E-033
   3.2399999999999992E-010     2.4130983333931707E-033
   3.2799999999999990E-010     1.1679108510560491E-033
   3.3199999999999989E-010    -8.9389062825189636E-034
   3.3600000000000008E-010    -3.6982900007051864E-033
   3.4000000000000007E-010    -6.9812491945900573E-033
   3.4400000000000005E-010    -1.0260961452672766E-032
   3.4800000000000004E-010    -1.2843439522140805E-032
   3.5200000000000003E-010    -1.3874514106389005E-032
   3.5600000000000001E-010    -1.2447333190744219E-032
   3.6000000000000000E-010    -7.7669643123590595E-033
   3.6399999999999998E-010     6.3721808475424012E-034
   3.6799999999999997E-010     1.2674263844538400E-032
   3.7199999999999996E-010     2.7466983036977587E-032
   3.7599999999999994E-010     4.3190554165313866E-032
   3.7999999999999993E-010     5.7033510656487108E-032
   3.8399999999999991E-010     6.5340552909595590E-032
   3.8799999999999990E-010     6.3985243187928018E-032
   3.9199999999999989E-010     4.8995183473240723E-032
   3.9599999999999987E-010     1.7411913093271191E-032
   4.0000000000000007E-010    -3.1685482552509407E-032
   4.0400000000000005E-010    -9.6125562708336970E-032
   4.0800000000000004E-010    -1.6975176387385608E-031
   4.1200000000000002E-010    -2.4193302975092917E-031
   4.1600000000000001E-010    -2.9774091710000317E-031
   4.2000000000000000E-010    -3.1903586713096852E-031
   4.2399999999999998E-010    -2.8663122595083366E-031
   4.2799999999999997E-010    -1.8356657315279888E-031
   4.3199999999999996E-010     6.7570592793432152E-034
   4.3599999999999994E-010     2.6542262773487972E-031
   4.3999999999999993E-010     5.9421225328134424E-031
   4.4399999999999991E-010     9.5127416365717592E-031
   4.4799999999999990E-010     1.2801936578195193E-030
   4.5199999999999989E-010     1.5059064406915310E-030
   4.5599999999999987E-010     1.5410186450296888E-030
   4.6000000000000007E-010     1.2970466733074844E-030
   4.6400000000000005E-010     7.0051131405049707E-031
   4.6800000000000004E-010    -2.8709966044963635E-031
   4.7200000000000002E-010    -1.6475847310955745E-030
   4.7600000000000001E-010    -3.2857485802659188E-030
   4.8000000000000000E-010    -5.0148706776701227E-030
   4.8399999999999998E-010    -6.5528938809752721E-030
   4.8799999999999997E-010    -7.5343515422169301E-030
   4.9199999999999996E-010    -7.5422681675313000E-030
   4.9599999999999994E-010    -6.1623675742422652E-030
   4.9999999999999993E-010    -3.0589334658114800E-030
   5.0399999999999991E-010     1.9324512108874056E-030
   5.0799999999999990E-010     8.7048798525849598E-030
   5.1199999999999989E-010     1.6787520328161016E-029
   5.1599999999999987E-010     2.5279618023812105E-029
   5.2000000000000007E-010     3.2833292812365592E-029
   5.2400000000000005E-010     3.7707586778897714E-029
   5.2800000000000004E-010     3.7912812670065403E-029
   5.3200000000000002E-010     3.1456279985518561E-029
   5.3600000000000001E-010     1.6687478799979482E-029
   5.4000000000000000E-010    -7.2767546505732147E-030
   5.4399999999999998E-010    -4.0087783411855137E-029
   5.4799999999999997E-010    -7.9724562178983392E-029
   5.5199999999999995E-010    -1.2216066507395080E-028
   5.5599999999999994E-010    -1.6123715771833589E-028
   5.5999999999999993E-010    -1.8884387087542002E-028
   5.6399999999999991E-010    -1.9549994494853307E-028
   5.6799999999999990E-010    -1.7139401872548593E-028
   5.7199999999999989E-010    -1.0789288252638191E-028
   5.7599999999999987E-010     5.4628311681865661E-031
   5.8000000000000007E-010     1.5421514491872712E-028
   5.8400000000000005E-010     3.4599957378148618E-028
   5.8800000000000004E-010     5.5958294164634598E-028
   5.9200000000000002E-010     7.6843622556779073E-028
   5.9600000000000001E-010     9.3606290865493648E-028
   6.0000000000000000E-010     1.0179452646880181E-027
   6.0399999999999998E-010     9.6554071090124142E-028
   6.0799999999999997E-010     7.3248855056280853E-028
   6.1199999999999995E-010     2.8289917545556054E-028
   6.1599999999999994E-010    -3.9877231722538110E-028
   6.1999999999999993E-010    -1.2971996177238258E-027
   6.2399999999999991E-010    -2.3563935832922547E-027
   6.2799999999999990E-010    -3.4724401341505199E-027
   6.3199999999999989E-010    -4.4908553257449685E-027
   6.3599999999999987E-010    -5.2107267240561074E-027
   6.4000000000000006E-010    -5.3975973954440676E-027
   6.4400000000000005E-010    -4.8064670953814268E-027
   6.4800000000000004E-010    -3.2152891976039584E-027
   6.5200000000000002E-010    -4.6790992814797741E-028
   6.5600000000000001E-010     3.4763875201645360E-027
   6.6000000000000000E-010     8.4916069325900730E-027
   6.6399999999999978E-010     1.4238956287422774E-026
   6.6800000000000017E-010     2.0134725507489732E-026
   6.7200000000000016E-010     2.5342059513355807E-026
   6.7600000000000015E-010     2.8796821921732785E-026
   6.8000000000000013E-010     2.9276597263526890E-026
   6.8400000000000012E-010     2.5519066341940594E-026
   6.8800000000000011E-010     1.6391170674323866E-026
   6.9200000000000009E-010     1.1039819479076402E-027
   6.9600000000000008E-010    -2.0540267805507375E-026
   7.0000000000000006E-010    -4.7891847245068690E-026
   7.0400000000000005E-010    -7.9220462775325915E-026
   7.0800000000000004E-010    -1.1154665763148124E-025
   7.1200000000000002E-010    -1.4058498500526436E-025
   7.1600000000000001E-010    -1.6084819623269197E-025
   7.2000000000000000E-010    -1.6595751273034038E-025
   7.2399999999999998E-010    -1.4919272705424494E-025
   7.2799999999999997E-010    -1.0429547284259299E-025
   7.3199999999999995E-010    -2.6510610573764963E-026
   7.3599999999999994E-010     8.6187238555978704E-026
   7.3999999999999993E-010     2.3177736727857155E-025
   7.4399999999999991E-010     4.0292914696529132E-025
   7.4799999999999990E-010     5.8597613558993544E-025
   7.5199999999999988E-010     7.6034954925786796E-025
   7.5599999999999987E-010     8.9871225146336651E-025
   7.5999999999999986E-010     9.6802975502797628E-025
   7.6399999999999984E-010     9.3178070896455241E-025
   7.6799999999999983E-010     7.5343676114541624E-025
   7.7199999999999982E-010     4.0122996522734855E-025
   7.7599999999999980E-010    -1.4593123094541524E-025
   7.7999999999999979E-010    -8.9172176055175052E-025
   7.8399999999999977E-010    -1.8153777938382054E-024
   7.8800000000000017E-010    -2.8651572044742352E-024
   7.9200000000000016E-010    -3.9532549419356966E-024
   7.9600000000000015E-010    -4.9533073221197620E-024
   8.0000000000000013E-010    -5.7017032127770094E-024
   8.0400000000000012E-010    -6.0038976817663590E-024
   8.0800000000000010E-010    -5.6467345960403041E-024
   8.1200000000000009E-010    -4.4174487031298753E-024
   8.1600000000000008E-010    -2.1294669047717037E-024
   8.2000000000000006E-010     1.3456056027527563E-024
   8.2400000000000005E-010     6.0413295261495486E-024
   8.2800000000000004E-010     1.1857655411746529E-023
   8.3200000000000002E-010     1.8523678366714260E-023
   8.3600000000000001E-010     2.5566604862700297E-023
   8.3999999999999999E-010     3.2292485005434388E-023
   8.4399999999999998E-010     3.7784856482832403E-023
   8.4799999999999997E-010     4.0927489002615661E-023
   8.5199999999999995E-010     4.0456924006320464E-023
   8.5599999999999994E-010     3.5049146816954730E-023
   8.5999999999999993E-010     2.3442677339205055E-023
   8.6399999999999991E-010     4.5971480618956009E-024
   8.6799999999999990E-010    -2.2117331065004959E-023
   8.7199999999999988E-010    -5.6709474982347052E-023
   8.7599999999999987E-010    -9.8349340092257116E-023
   8.7999999999999986E-010    -1.4516388661581459E-022
   8.8399999999999984E-010    -1.9407029662251369E-022
   8.8799999999999983E-010    -2.4067570665376621E-022
   8.9199999999999981E-010    -2.7927445617606410E-022
   8.9599999999999980E-010    -3.0297421066250620E-022
   8.9999999999999979E-010    -3.0397905537268948E-022
   9.0399999999999977E-010    -2.7405186881736443E-022
   9.0799999999999976E-010    -2.0516797921538840E-022
   9.1200000000000016E-010    -9.0357270354605452E-023
   9.1600000000000015E-010     7.5285375940986944E-023
   9.2000000000000013E-010     2.9346357737141684E-022
   9.2400000000000012E-010     5.6148297004857102E-022
   9.2800000000000010E-010     8.7108459681334343E-022
   9.3200000000000009E-010     1.2074229789536885E-021
   9.3600000000000008E-010     1.5483231733149711E-021
   9.4000000000000006E-010     1.8639636628378425E-021
   9.4400000000000005E-010     2.1171396972610643E-021
   9.4800000000000004E-010     2.2642516285506678E-021
   9.5200000000000002E-010     2.2571444588002824E-021
   9.5600000000000001E-010     2.0458844286691215E-021
   9.5999999999999999E-010     1.5825066746616342E-021
   9.6399999999999998E-010     8.2569311118659397E-022
   9.6799999999999997E-010    -2.5374610948954521E-022
   9.7199999999999995E-010    -1.6668165941148006E-021
   9.7599999999999994E-010    -3.4000447246457422E-021
   9.7999999999999992E-010    -5.4093904288495726E-021
   9.8399999999999991E-010    -7.6149132436509342E-021
   9.8799999999999990E-010    -9.8968250571105741E-021
   9.9199999999999988E-010    -1.2093611584485411E-020
   9.9599999999999987E-010    -1.4002930230778197E-020
   9.9999999999999986E-010    -1.5385951981159851E-020
   1.0039999999999998E-009    -1.5975715602038820E-020
   1.0079999999999998E-009    -1.5489908550877306E-020
   1.0119999999999998E-009    -1.3648258771687613E-020
   1.0159999999999998E-009    -1.0194408129237927E-020
   1.0199999999999998E-009    -4.9217819980337679E-021
   1.0239999999999998E-009     2.2974487129778936E-021
   1.0279999999999998E-009     1.1481672414606631E-020
   1.0320000000000002E-009     2.2509222672921650E-020
   1.0360000000000001E-009     3.5090084027879142E-020
   1.0400000000000001E-009     4.8742525554656403E-020
   1.0440000000000001E-009     6.2777560732959315E-020
   1.0480000000000001E-009     7.6294267091095453E-020
   1.0520000000000001E-009     8.8188833493923890E-020
   1.0560000000000001E-009     9.7180112268964840E-020
   1.0600000000000001E-009     1.0185381843920869E-019
   1.0640000000000000E-009     1.0072664268293741E-019