  -1.2000000000000000E-009     0.0000000000000000
  -1.1960000000000000E-009     0.0000000000000000
  -1.1920000000000000E-009     0.0000000000000000
  -1.1880000000000000E-009     0.0000000000000000
  -1.1840000000000000E-009     0.0000000000000000
  -1.1800000000000001E-009     0.0000000000000000
  -1.1760000000000001E-009     0.0000000000000000
  -1.1720000000000001E-009     0.0000000000000000
  -1.1679999999999999E-009     0.0000000000000000
  -1.1639999999999999E-009     0.0000000000000000
  -1.1599999999999999E-009     0.0000000000000000
  -1.1559999999999999E-009     0.0000000000000000
  -1.1520000000000000E-009     0.0000000000000000
  -1.1480000000000000E-009     0.0000000000000000
  -1.1440000000000000E-009     0.0000000000000000
  -1.1400000000000000E-009     0.0000000000000000
  -1.1360000000000000E-009     0.0000000000000000
  -1.1320000000000000E-009     0.0000000000000000
  -1.1280000000000000E-009     0.0000000000000000
  -1.1240000000000000E-009     0.0000000000000000
  -1.1200000000000001E-009     0.0000000000000000
  -1.1160000000000001E-009     0.0000000000000000
  -1.1120000000000001E-009     0.0000000000000000
  -1.1079999999999999E-009     0.0000000000000000
  -1.1039999999999999E-009     0.0000000000000000
  -1.0999999999999999E-009     0.0000000000000000
  -1.0959999999999999E-009     0.0000000000000000
  -1.0920000000000000E-009     0.0000000000000000
  -1.0880000000000000E-009     0.0000000000000000
  -1.0840000000000000E-009     0.0000000000000000
  -1.0800000000000000E-009     0.0000000000000000
  -1.0760000000000000E-009     0.0000000000000000
  -1.0720000000000000E-009     0.0000000000000000
  -1.0680000000000000E-009     0.0000000000000000
  -1.0640000000000000E-009     0.0000000000000000
  -1.0600000000000001E-009     0.0000000000000000
  -1.0560000000000001E-009     0.0000000000000000
  -1.0520000000000001E-009     0.0000000000000000
  -1.0480000000000001E-009     0.0000000000000000
  -1.0439999999999999E-009     0.0000000000000000
  -1.0399999999999999E-009     0.0000000000000000
  -1.0359999999999999E-009     0.0000000000000000
  -1.0320000000000000E-009     0.0000000000000000
  -1.0280000000000000E-009     0.0000000000000000
  -1.0240000000000000E-009     0.0000000000000000
  -1.0200000000000000E-009     0.0000000000000000
  -1.0160000000000000E-009     0.0000000000000000
  -1.0120000000000000E-009     0.0000000000000000
  -1.0080000000000000E-009     0.0000000000000000
  -1.0040000000000000E-009     0.0000000000000000
  -1.0000000000000001E-009     0.0000000000000000
  -9.9600000000000008E-010     0.0000000000000000
  -9.9199999999999988E-010     0.0000000000000000
  -9.8799999999999990E-010     0.0000000000000000
  -9.8399999999999991E-010     0.0000000000000000
  -9.7999999999999992E-010     0.0000000000000000
  -9.7599999999999994E-010     0.0000000000000000
  -9.7199999999999995E-010     0.0000000000000000
  -9.6799999999999997E-010     0.0000000000000000
  -9.6399999999999998E-010     0.0000000000000000
  -9.5999999999999999E-010     0.0000000000000000
  -9.5600000000000001E-010     0.0000000000000000
  -9.5200000000000002E-010     0.0000000000000000
  -9.4800000000000004E-010     0.0000000000000000
  -9.4400000000000005E-010     0.0000000000000000
  -9.4000000000000006E-010     0.0000000000000000
  -9.3600000000000008E-010     0.0000000000000000
  -9.3200000000000009E-010     0.0000000000000000
  -9.2800000000000000E-010     0.0000000000000000
  -9.2400000000000001E-010     0.0000000000000000
  -9.1999999999999992E-010     0.0000000000000000
  -9.1599999999999994E-010     0.0000000000000000
  -9.1199999999999995E-010     0.0000000000000000
  -9.0799999999999997E-010     0.0000000000000000
  -9.0399999999999998E-010     0.0000000000000000
  -8.9999999999999999E-010     0.0000000000000000
  -8.9600000000000001E-010     0.0000000000000000
  -8.9200000000000002E-010     0.0000000000000000
  -8.8800000000000004E-010     0.0000000000000000
  -8.8400000000000005E-010     0.0000000000000000
  -8.8000000000000006E-010     0.0000000000000000
  -8.7599999999999997E-010     0.0000000000000000
  -8.7199999999999999E-010     0.0000000000000000
  -8.6800000000000000E-010     0.0000000000000000
  -8.6400000000000001E-010     0.0000000000000000
  -8.5999999999999993E-010     0.0000000000000000
  -8.5599999999999994E-010     0.0000000000000000
  -8.5199999999999995E-010     0.0000000000000000
  -8.4799999999999997E-010     0.0000000000000000
  -8.4399999999999998E-010     0.0000000000000000
  -8.3999999999999999E-010     0.0000000000000000
  -8.3600000000000001E-010     0.0000000000000000
  -8.3200000000000002E-010     0.0000000000000000
  -8.2800000000000004E-010     0.0000000000000000
  -8.2400000000000005E-010     0.0000000000000000
  -8.2000000000000006E-010     0.0000000000000000
  -8.1599999999999997E-010     0.0000000000000000
  -8.1199999999999999E-010     0.0000000000000000
  -8.0800000000000000E-010     0.0000000000000000
  -8.0400000000000002E-010     0.0000000000000000
  -7.9999999999999993E-010     0.0000000000000000
  -7.9599999999999994E-010     0.0000000000000000
  -7.9199999999999995E-010     0.0000000000000000
  -7.8799999999999997E-010     0.0000000000000000
  -7.8399999999999998E-010     0.0000000000000000
  -7.7999999999999999E-010     0.0000000000000000
  -7.7600000000000001E-010     0.0000000000000000
  -7.7200000000000002E-010     0.0000000000000000
  -7.6800000000000004E-010     0.0000000000000000
  -7.6400000000000005E-010     0.0000000000000000
  -7.6000000000000006E-010     0.0000000000000000
  -7.5600000000000008E-010     0.0000000000000000
  -7.5199999999999999E-010     0.0000000000000000
  -7.4800000000000000E-010     0.0000000000000000
  -7.4400000000000002E-010     0.0000000000000000
  -7.3999999999999993E-010     0.0000000000000000
  -7.3599999999999994E-010     0.0000000000000000
  -7.3199999999999995E-010     0.0000000000000000
  -7.2799999999999997E-010     0.0000000000000000
  -7.2399999999999998E-010     0.0000000000000000
  -7.2000000000000000E-010     0.0000000000000000
  -7.1600000000000001E-010     0.0000000000000000
  -7.1200000000000002E-010     0.0000000000000000
  -7.0800000000000004E-010     0.0000000000000000
  -7.0400000000000005E-010     0.0000000000000000
  -6.9999999999999996E-010     0.0000000000000000
  -6.9599999999999997E-010     0.0000000000000000
  -6.9199999999999999E-010     0.0000000000000000
  -6.8800000000000000E-010     0.0000000000000000
  -6.8400000000000002E-010     0.0000000000000000
  -6.8000000000000003E-010     0.0000000000000000
  -6.7600000000000004E-010     0.0000000000000000
  -6.7199999999999995E-010     0.0000000000000000
  -6.6799999999999997E-010     0.0000000000000000
  -6.6399999999999998E-010     0.0000000000000000
  -6.6000000000000000E-010     0.0000000000000000
  -6.5600000000000001E-010     0.0000000000000000
  -6.5200000000000002E-010     0.0000000000000000
  -6.4800000000000004E-010     0.0000000000000000
  -6.4400000000000005E-010     0.0000000000000000
  -6.3999999999999996E-010     0.0000000000000000
  -6.3599999999999998E-010     0.0000000000000000
  -6.3199999999999999E-010     0.0000000000000000
  -6.2800000000000000E-010     0.0000000000000000
  -6.2400000000000002E-010     0.0000000000000000
  -6.2000000000000003E-010     0.0000000000000000
  -6.1600000000000004E-010     0.0000000000000000
  -6.1199999999999995E-010     0.0000000000000000
  -6.0799999999999997E-010     0.0000000000000000
  -6.0399999999999998E-010     0.0000000000000000
  -6.0000000000000000E-010     0.0000000000000000
  -5.9600000000000001E-010     0.0000000000000000
  -5.9200000000000002E-010     0.0000000000000000
  -5.8800000000000004E-010     0.0000000000000000
  -5.8400000000000005E-010     0.0000000000000000
  -5.7999999999999996E-010     0.0000000000000000
  -5.7599999999999998E-010     0.0000000000000000
  -5.7199999999999999E-010     0.0000000000000000
  -5.6800000000000000E-010     0.0000000000000000
  -5.6400000000000002E-010     0.0000000000000000
  -5.6000000000000003E-010     0.0000000000000000
  -5.5600000000000004E-010     0.0000000000000000
  -5.5199999999999995E-010     0.0000000000000000
  -5.4799999999999997E-010     0.0000000000000000
  -5.4399999999999998E-010     0.0000000000000000
  -5.4000000000000000E-010     0.0000000000000000
  -5.3600000000000001E-010     0.0000000000000000
  -5.3200000000000002E-010     0.0000000000000000
  -5.2800000000000004E-010     0.0000000000000000
  -5.2400000000000005E-010     0.0000000000000000
  -5.1999999999999996E-010     0.0000000000000000
  -5.1599999999999998E-010     0.0000000000000000
  -5.1199999999999999E-010     0.0000000000000000
  -5.0800000000000000E-010     0.0000000000000000
  -5.0400000000000002E-010     0.0000000000000000
  -5.0000000000000003E-010     0.0000000000000000
  -4.9600000000000004E-010     0.0000000000000000
  -4.9199999999999996E-010     0.0000000000000000
  -4.8799999999999997E-010     0.0000000000000000
  -4.8399999999999998E-010     0.0000000000000000
  -4.8000000000000000E-010     0.0000000000000000
  -4.7600000000000001E-010     0.0000000000000000
  -4.7200000000000002E-010     0.0000000000000000
  -4.6800000000000004E-010     0.0000000000000000
  -4.6400000000000005E-010     0.0000000000000000
  -4.5999999999999996E-010     0.0000000000000000
  -4.5599999999999998E-010     0.0000000000000000
  -4.5199999999999999E-010     0.0000000000000000
  -4.4800000000000000E-010     0.0000000000000000
  -4.4400000000000002E-010     0.0000000000000000
  -4.4000000000000003E-010     0.0000000000000000
  -4.3600000000000005E-010     0.0000000000000000
  -4.3199999999999996E-010     0.0000000000000000
  -4.2799999999999997E-010     0.0000000000000000
  -4.2399999999999998E-010     0.0000000000000000
  -4.2000000000000000E-010     0.0000000000000000
  -4.1600000000000001E-010     0.0000000000000000
  -4.1200000000000002E-010     0.0000000000000000
  -4.0800000000000004E-010     0.0000000000000000
  -4.0400000000000005E-010     0.0000000000000000
  -3.9999999999999996E-010     0.0000000000000000
  -3.9599999999999998E-010     0.0000000000000000
  -3.9199999999999999E-010     0.0000000000000000
  -3.8800000000000000E-010     0.0000000000000000
  -3.8400000000000002E-010     0.0000000000000000
  -3.8000000000000003E-010     0.0000000000000000
  -3.7600000000000005E-010     0.0000000000000000
  -3.7200000000000006E-010     0.0000000000000000
  -3.6799999999999997E-010     0.0000000000000000
  -3.6399999999999998E-010     0.0000000000000000
  -3.6000000000000000E-010     0.0000000000000000
  -3.5600000000000001E-010     0.0000000000000000
  -3.5200000000000003E-010     0.0000000000000000
  -3.4800000000000004E-010     0.0000000000000000
  -3.4400000000000005E-010     0.0000000000000000
  -3.3999999999999996E-010     0.0000000000000000
  -3.3599999999999998E-010     0.0000000000000000
  -3.3199999999999999E-010     0.0000000000000000
  -3.2800000000000000E-010     0.0000000000000000
  -3.2400000000000002E-010     0.0000000000000000
  -3.2000000000000003E-010     0.0000000000000000
  -3.1600000000000005E-010     0.0000000000000000
  -3.1200000000000006E-010     0.0000000000000000
  -3.0799999999999997E-010     0.0000000000000000
  -3.0399999999999998E-010     0.0000000000000000
  -3.0000000000000000E-010     0.0000000000000000
  -2.9600000000000001E-010     0.0000000000000000
  -2.9200000000000003E-010     0.0000000000000000
  -2.8800000000000004E-010     0.0000000000000000
  -2.8400000000000005E-010     0.0000000000000000
  -2.7999999999999996E-010     0.0000000000000000
  -2.7599999999999998E-010     0.0000000000000000
  -2.7199999999999999E-010     0.0000000000000000
  -2.6800000000000011E-010     0.0000000000000000
  -2.6399999999999992E-010     0.0000000000000000
  -2.5999999999999993E-010     0.0000000000000000
  -2.5599999999999994E-010     0.0000000000000000
  -2.5199999999999996E-010     0.0000000000000000
  -2.4799999999999997E-010     0.0000000000000000
  -2.4399999999999998E-010     0.0000000000000000
  -2.4000000000000000E-010     0.0000000000000000
  -2.3600000000000001E-010     0.0000000000000000
  -2.3200000000000003E-010     0.0000000000000000
  -2.2800000000000004E-010     0.0000000000000000
  -2.2400000000000005E-010     0.0000000000000000
  -2.2000000000000007E-010     0.0000000000000000
  -2.1600000000000008E-010     0.0000000000000000
  -2.1200000000000010E-010     0.0000000000000000
  -2.0800000000000011E-010     0.0000000000000000
  -2.0399999999999992E-010     0.0000000000000000
  -1.9999999999999993E-010     0.0000000000000000
  -1.9599999999999994E-010     0.0000000000000000
  -1.9199999999999996E-010     0.0000000000000000
  -1.8799999999999997E-010     0.0000000000000000
  -1.8399999999999998E-010     0.0000000000000000
  -1.8000000000000000E-010     0.0000000000000000
  -1.7600000000000001E-010     0.0000000000000000
  -1.7200000000000003E-010     0.0000000000000000
  -1.6800000000000004E-010     0.0000000000000000
  -1.6400000000000005E-010     0.0000000000000000
  -1.6000000000000007E-010     0.0000000000000000
  -1.5600000000000008E-010     0.0000000000000000
  -1.5200000000000010E-010     0.0000000000000000
  -1.4800000000000011E-010     0.0000000000000000
  -1.4399999999999992E-010     0.0000000000000000
  -1.3999999999999993E-010     0.0000000000000000
  -1.3599999999999994E-010     0.0000000000000000
  -1.3199999999999996E-010     0.0000000000000000
  -1.2799999999999997E-010     0.0000000000000000
  -1.2399999999999999E-010     0.0000000000000000
  -1.2000000000000000E-010     0.0000000000000000
  -1.1600000000000001E-010     0.0000000000000000
  -1.1200000000000003E-010     0.0000000000000000
  -1.0800000000000004E-010     0.0000000000000000
  -1.0400000000000005E-010     0.0000000000000000
  -1.0000000000000007E-010     0.0000000000000000
  -9.6000000000000082E-011     0.0000000000000000
  -9.2000000000000096E-011     0.0000000000000000
  -8.8000000000000110E-011     0.0000000000000000
  -8.3999999999999917E-011     0.0000000000000000
  -7.9999999999999931E-011     0.0000000000000000
  -7.5999999999999944E-011     0.0000000000000000
  -7.1999999999999958E-011     0.0000000000000000
  -6.7999999999999972E-011     0.0000000000000000
  -6.3999999999999986E-011     0.0000000000000000
  -6.0000000000000000E-011     0.0000000000000000
  -5.6000000000000013E-011     0.0000000000000000
  -5.2000000000000027E-011     0.0000000000000000
  -4.8000000000000041E-011     0.0000000000000000
  -4.4000000000000055E-011     0.0000000000000000
  -4.0000000000000069E-011     0.0000000000000000
  -3.6000000000000082E-011     0.0000000000000000
  -3.2000000000000096E-011     0.0000000000000000
  -2.8000000000000110E-011     0.0000000000000000
  -2.3999999999999917E-011     0.0000000000000000
  -1.9999999999999931E-011     0.0000000000000000
  -1.5999999999999945E-011     0.0000000000000000
  -1.1999999999999959E-011     0.0000000000000000
  -7.9999999999999724E-012     0.0000000000000000
  -3.9999999999999862E-012     0.0000000000000000
   0.0000000000000000          0.0000000000000000
   3.9999999999999862E-012     0.0000000000000000
   7.9999999999999724E-012     0.0000000000000000
   1.1999999999999959E-011     0.0000000000000000
   1.5999999999999945E-011     0.0000000000000000
   1.9999999999999931E-011     0.0000000000000000
   2.3999999999999917E-011     0.0000000000000000
   2.7999999999999903E-011     0.0000000000000000
   3.1999999999999889E-011     0.0000000000000000
   3.6000000000000082E-011     0.0000000000000000
   4.0000000000000069E-011     0.0000000000000000
   4.4000000000000055E-011     0.0000000000000000
   4.8000000000000041E-011     0.0000000000000000
   5.2000000000000027E-011     0.0000000000000000
   5.6000000000000013E-011     0.0000000000000000
   6.0000000000000000E-011     0.0000000000000000
   6.3999999999999986E-011     0.0000000000000000
   6.7999999999999972E-011     0.0000000000000000
   7.1999999999999958E-011     0.0000000000000000
   7.5999999999999944E-011     0.0000000000000000
   7.9999999999999931E-011     0.0000000000000000
   8.3999999999999917E-011     0.0000000000000000
   8.7999999999999903E-011     0.0000000000000000
   9.1999999999999889E-011     0.0000000000000000
   9.6000000000000082E-011     0.0000000000000000
   1.0000000000000007E-010     0.0000000000000000
   1.0400000000000005E-010     0.0000000000000000
   1.0800000000000004E-010     0.0000000000000000
   1.1200000000000003E-010     0.0000000000000000
   1.1600000000000001E-010     0.0000000000000000
   1.2000000000000000E-010     0.0000000000000000
   1.2399999999999999E-010     0.0000000000000000
   1.2799999999999997E-010     0.0000000000000000
   1.3199999999999996E-010     0.0000000000000000
   1.3599999999999994E-010     0.0000000000000000
   1.3999999999999993E-010     0.0000000000000000
   1.4399999999999992E-010     0.0000000000000000
   1.4799999999999990E-010     0.0000000000000000
   1.5199999999999989E-010     0.0000000000000000
   1.5600000000000008E-010     0.0000000000000000
   1.6000000000000007E-010     0.0000000000000000
   1.6400000000000005E-010     0.0000000000000000
   1.6800000000000004E-010     0.0000000000000000
   1.7200000000000003E-010     0.0000000000000000
   1.7600000000000001E-010     0.0000000000000000
   1.8000000000000000E-010     0.0000000000000000
   1.8399999999999998E-010     0.0000000000000000
   1.8799999999999997E-010     0.0000000000000000
   1.9199999999999996E-010     0.0000000000000000
   1.9599999999999994E-010     0.0000000000000000
   1.9999999999999993E-010     0.0000000000000000
   2.0399999999999992E-010     0.0000000000000000
   2.0799999999999990E-010     0.0000000000000000
   2.1199999999999989E-010     0.0000000000000000
   2.1600000000000008E-010     0.0000000000000000
   2.2000000000000007E-010     0.0000000000000000
   2.2400000000000005E-010     0.0000000000000000
   2.2800000000000004E-010     0.0000000000000000
   2.3200000000000003E-010     0.0000000000000000
   2.3600000000000001E-010     0.0000000000000000
   2.4000000000000000E-010     0.0000000000000000
   2.4399999999999998E-010     0.0000000000000000
   2.4799999999999997E-010     0.0000000000000000
   2.5199999999999996E-010     0.0000000000000000
   2.5599999999999994E-010     0.0000000000000000
   2.5999999999999993E-010     0.0000000000000000
   2.6399999999999992E-010     0.0000000000000000
   2.6799999999999990E-010     0.0000000000000000
   2.7199999999999989E-010     0.0000000000000000
   2.7600000000000008E-010     0.0000000000000000
   2.8000000000000007E-010     0.0000000000000000
   2.8400000000000005E-010     0.0000000000000000
   2.8800000000000004E-010     0.0000000000000000
   2.9200000000000003E-010     0.0000000000000000
   2.9600000000000001E-010     0.0000000000000000
   3.0000000000000000E-010     0.0000000000000000
   3.0399999999999998E-010     0.0000000000000000
   3.0799999999999997E-010     0.0000000000000000
   3.1199999999999996E-010     0.0000000000000000
   3.1599999999999994E-010     0.0000000000000000
   3.1999999999999993E-010     0.0000000000000000
   3.2399999999999992E-010     0.0000000000000000
   3.2799999999999990E-010     0.0000000000000000
   3.3199999999999989E-010     0.0000000000000000
   3.3600000000000008E-010     0.0000000000000000
   3.4000000000000007E-010     0.0000000000000000
   3.4400000000000005E-010     0.0000000000000000
   3.4800000000000004E-010     0.0000000000000000
   3.5200000000000003E-010     0.0000000000000000
   3.5600000000000001E-010     0.0000000000000000
   3.6000000000000000E-010     0.0000000000000000
   3.6399999999999998E-010     0.0000000000000000
   3.6799999999999997E-010     0.0000000000000000
   3.7199999999999996E-010     0.0000000000000000
   3.7599999999999994E-010     0.0000000000000000
   3.7999999999999993E-010     0.0000000000000000
   3.8399999999999991E-010     0.0000000000000000
   3.8799999999999990E-010     0.0000000000000000
   3.9199999999999989E-010     0.0000000000000000
   3.9599999999999987E-010     0.0000000000000000
   4.0000000000000007E-010     0.0000000000000000
   4.0400000000000005E-010     0.0000000000000000
   4.0800000000000004E-010     0.0000000000000000
   4.1200000000000002E-010     0.0000000000000000
   4.1600000000000001E-010     0.0000000000000000
   4.2000000000000000E-010     0.0000000000000000
   4.2399999999999998E-010     0.0000000000000000
   4.2799999999999997E-010     0.0000000000000000
   4.3199999999999996E-010     0.0000000000000000
   4.3599999999999994E-010     0.0000000000000000
   4.3999999999999993E-010     0.0000000000000000
   4.4399999999999991E-010     0.0000000000000000
   4.4799999999999990E-010     0.0000000000000000
   4.5199999999999989E-010     0.0000000000000000
   4.5599999999999987E-010     0.0000000000000000
   4.6000000000000007E-010     0.0000000000000000
   4.6400000000000005E-010     0.0000000000000000
   4.6800000000000004E-010     0.0000000000000000
   4.7200000000000002E-010     0.0000000000000000
   4.7600000000000001E-010     0.0000000000000000
   4.8000000000000000E-010     0.0000000000000000
   4.8399999999999998E-010     0.0000000000000000
   4.8799999999999997E-010     0.0000000000000000
   4.9199999999999996E-010     0.0000000000000000
   4.9599999999999994E-010     0.0000000000000000
   4.9999999999999993E-010     0.0000000000000000
   5.0399999999999991E-010     0.0000000000000000
   5.0799999999999990E-010     0.0000000000000000
   5.1199999999999989E-010     0.0000000000000000
   5.1599999999999987E-010     0.0000000000000000
   5.2000000000000007E-010     0.0000000000000000
   5.2400000000000005E-010     0.0000000000000000
   5.2800000000000004E-010     0.0000000000000000
   5.3200000000000002E-010     0.0000000000000000
   5.3600000000000001E-010     0.0000000000000000
   5.4000000000000000E-010     0.0000000000000000
   5.4399999999999998E-010     0.0000000000000000
   5.4799999999999997E-010     0.0000000000000000
   5.5199999999999995E-010     0.0000000000000000
   5.5599999999999994E-010     0.0000000000000000
   5.5999999999999993E-010     0.0000000000000000
   5.6399999999999991E-010     0.0000000000000000
   5.6799999999999990E-010     0.0000000000000000
   5.7199999999999989E-010     0.0000000000000000
   5.7599999999999987E-010     0.0000000000000000
   5.8000000000000007E-010     0.0000000000000000
   5.8400000000000005E-010     0.0000000000000000
   5.8800000000000004E-010     0.0000000000000000
   5.9200000000000002E-010     0.0000000000000000
   5.9600000000000001E-010     0.0000000000000000
   6.0000000000000000E-010     0.0000000000000000
   6.0399999999999998E-010     0.0000000000000000
   6.0799999999999997E-010     0.0000000000000000
   6.1199999999999995E-010     0.0000000000000000
   6.1599999999999994E-010     0.0000000000000000
   6.1999999999999993E-010     0.0000000000000000
   6.2399999999999991E-010     0.0000000000000000
   6.2799999999999990E-010     0.0000000000000000
   6.3199999999999989E-010     0.0000000000000000
   6.3599999999999987E-010     0.0000000000000000
   6.4000000000000006E-010     0.0000000000000000
   6.4400000000000005E-010     0.0000000000000000
   6.4800000000000004E-010     0.0000000000000000
   6.5200000000000002E-010     0.0000000000000000
   6.5600000000000001E-010     0.0000000000000000
   6.6000000000000000E-010     0.0000000000000000
   6.6399999999999978E-010     0.0000000000000000
   6.6800000000000017E-010     0.0000000000000000
   6.7200000000000016E-010     0.0000000000000000
   6.7600000000000015E-010     0.0000000000000000
   6.8000000000000013E-010     0.0000000000000000
   6.8400000000000012E-010     0.0000000000000000
   6.8800000000000011E-010     0.0000000000000000
   6.9200000000000009E-010     0.0000000000000000
   6.9600000000000008E-010     0.0000000000000000
   7.0000000000000006E-010     0.0000000000000000
   7.0400000000000005E-010     0.0000000000000000
   7.0800000000000004E-010     0.0000000000000000
   7.1200000000000002E-010     0.0000000000000000
   7.1600000000000001E-010     0.0000000000000000
   7.2000000000000000E-010     0.0000000000000000
   7.2399999999999998E-010     0.0000000000000000
   7.2799999999999997E-010     0.0000000000000000
   7.3199999999999995E-010     0.0000000000000000
   7.3599999999999994E-010     0.0000000000000000
   7.3999999999999993E-010     0.0000000000000000
   7.4399999999999991E-010     0.0000000000000000
   7.4799999999999990E-010     0.0000000000000000
   7.5199999999999988E-010     0.0000000000000000
   7.5599999999999987E-010     0.0000000000000000
   7.5999999999999986E-010     0.0000000000000000
   7.6399999999999984E-010     0.0000000000000000
   7.6799999999999983E-010     0.0000000000000000
   7.7199999999999982E-010     0.0000000000000000
   7.7599999999999980E-010     0.0000000000000000
   7.7999999999999979E-010     0.0000000000000000
   7.8399999999999977E-010     0.0000000000000000
   7.8800000000000017E-010     0.0000000000000000
   7.9200000000000016E-010     0.0000000000000000
   7.9600000000000015E-010     0.0000000000000000
   8.0000000000000013E-010     0.0000000000000000
   8.0400000000000012E-010     0.0000000000000000
   8.0800000000000010E-010     0.0000000000000000
   8.1200000000000009E-010     0.0000000000000000
   8.1600000000000008E-010     0.0000000000000000
   8.2000000000000006E-010     0.0000000000000000
   8.2400000000000005E-010     0.0000000000000000
   8.2800000000000004E-010     0.0000000000000000
   8.3200000000000002E-010     0.0000000000000000
   8.3600000000000001E-010     0.0000000000000000
   8.3999999999999999E-010     0.0000000000000000
   8.4399999999999998E-010     0.0000000000000000
   8.4799999999999997E-010     0.0000000000000000
   8.5199999999999995E-010     0.0000000000000000
   8.5599999999999994E-010     0.0000000000000000
   8.5999999999999993E-010     0.0000000000000000
   8.6399999999999991E-010    -1.4012984643248171E-045
   8.6799999999999990E-010    -1.4012984643248171E-045
   8.7199999999999988E-010    -1.4012984643248171E-045
   8.7599999999999987E-010     0.0000000000000000
   8.7999999999999986E-010     2.8025969286496341E-045
   8.8399999999999984E-010     5.6051938572992683E-045
   8.8799999999999983E-010     5.6051938572992683E-045
   8.9199999999999981E-010     2.8025969286496341E-045
   8.9599999999999980E-010    -2.8025969286496341E-045
   8.9999999999999979E-010    -9.8090892502737195E-045
   9.0399999999999977E-010    -1.6815581571897805E-044
   9.0799999999999976E-010    -2.1019476964872256E-044
   9.1200000000000016E-010    -2.1019476964872256E-044
   9.1600000000000015E-010    -1.5414283107572988E-044
   9.2000000000000013E-010    -5.6051938572992683E-045
   9.2400000000000012E-010     7.0064923216240854E-045
   9.2800000000000010E-010     2.3822073893521890E-044
   9.3200000000000009E-010     4.3440252394069329E-044
   9.3600000000000008E-010     6.7262326287591219E-044
   9.4000000000000006E-010     9.5288295574087561E-044
   9.4400000000000005E-010     1.2331426486058390E-043
   9.4800000000000004E-010     1.4853763721843061E-043
   9.5200000000000002E-010     1.6114932339735396E-043
   9.5600000000000001E-010     1.5414283107572988E-043
   9.5999999999999999E-010     1.1630777253895982E-043
   9.6399999999999998E-010     3.7835058536770061E-044
   9.6799999999999997E-010    -8.8281803252463475E-044
   9.7199999999999995E-010    -2.5924021590009116E-043
   9.7599999999999994E-010    -4.6663238862016408E-043
   9.7999999999999992E-010    -6.9784663523375890E-043
   9.8399999999999991E-010    -9.2345568799005445E-043
   9.8799999999999990E-010    -1.1070257868166055E-042
   9.9199999999999988E-010    -1.2037153808550179E-042
   9.9599999999999987E-010    -1.1616764269252734E-042
   9.9999999999999986E-010    -9.2345568799005445E-043
   1.0039999999999998E-009    -4.3580382240501811E-043
   1.0079999999999998E-009     3.4752201915255463E-043
   1.0119999999999998E-009     1.4433374182545616E-042
   1.0159999999999998E-009     2.8320241964004553E-042
   1.0199999999999998E-009     4.4421161319096701E-042
   1.0239999999999998E-009     6.1320820798853995E-042
   1.0279999999999998E-009     7.6847207783572968E-042
   1.0320000000000002E-009     8.8029569528885008E-042
   1.0360000000000001E-009     9.1238543012188839E-042
   1.0400000000000001E-009     8.2312271794439755E-042
   1.0440000000000001E-009     5.7018834513376807E-042
   1.0480000000000001E-009     1.1546699346036493E-042
   1.0520000000000001E-009    -5.6738574820511843E-042
   1.0560000000000001E-009    -1.4834145543342514E-041
   1.0600000000000001E-009    -2.6072559227227546E-041
   1.0640000000000000E-009    -3.8723481763151995E-041
   1.0680000000000000E-009    -5.1616828933404637E-041
   1.0720000000000000E-009    -6.3026201029937297E-041
   1.0760000000000000E-009    -7.0652067272792952E-041
   1.0800000000000000E-009    -7.1690429434857641E-041
   1.0840000000000000E-009    -6.2992569866793502E-041
   1.0880000000000000E-009    -4.1343909891439403E-041
   1.0920000000000000E-009    -3.8773928507867688E-042
   1.0959999999999999E-009     5.1391219880648341E-041
   1.0999999999999999E-009     1.2490473861759257E-040
   1.1039999999999999E-009     2.1483587016256635E-040
   1.1079999999999999E-009     3.1633051663514853E-040
   1.1119999999999999E-009     4.2082954701524311E-040
   1.1159999999999999E-009     5.1558534917288724E-040
   1.1199999999999999E-009     5.8349927924638950E-040
   1.1239999999999998E-009     6.0346778236301815E-040
   1.1279999999999998E-009     5.5137311065327875E-040
   1.1319999999999998E-009     4.0188539307603591E-040
   1.1359999999999998E-009     1.3119096352855370E-040
   1.1399999999999998E-009    -2.7933063198311606E-040
   1.1439999999999998E-009    -8.3852018547039864E-040
   1.1479999999999998E-009    -1.5401377148716556E-039
   1.1520000000000002E-009    -2.3572138299424916E-039
   1.1560000000000001E-009    -3.2365790630510300E-039
   1.1600000000000001E-009    -4.0943376751381440E-039
   1.1640000000000001E-009    -4.8131715574720957E-039