  -1.2000000000000000E-009     0.0000000000000000
  -1.1960000000000000E-009     0.0000000000000000
  -1.1920000000000000E-009     0.0000000000000000
  -1.1880000000000000E-009     0.0000000000000000
  -1.1840000000000000E-009     0.0000000000000000
  -1.1800000000000001E-009     0.0000000000000000
  -1.1760000000000001E-009     0.0000000000000000
  -1.1720000000000001E-009     0.0000000000000000
  -1.1679999999999999E-009     0.0000000000000000
  -1.1639999999999999E-009     0.0000000000000000
  -1.1599999999999999E-009     0.0000000000000000
  -1.1559999999999999E-009     0.0000000000000000
  -1.1520000000000000E-009     0.0000000000000000
  -1.1480000000000000E-009     0.0000000000000000
  -1.1440000000000000E-009     0.0000000000000000
  -1.1400000000000000E-009     0.0000000000000000
  -1.1360000000000000E-009     0.0000000000000000
  -1.1320000000000000E-009     0.0000000000000000
  -1.1280000000000000E-009     0.0000000000000000
  -1.1240000000000000E-009     0.0000000000000000
  -1.1200000000000001E-009     0.0000000000000000
  -1.1160000000000001E-009     0.0000000000000000
  -1.1120000000000001E-009     0.0000000000000000
  -1.1079999999999999E-009     0.0000000000000000
  -1.1039999999999999E-009     0.0000000000000000
  -1.0999999999999999E-009     0.0000000000000000
  -1.0959999999999999E-009     0.0000000000000000
  -1.0920000000000000E-009     0.0000000000000000
  -1.0880000000000000E-009     0.0000000000000000
  -1.0840000000000000E-009     0.0000000000000000
  -1.0800000000000000E-009     0.0000000000000000
  -1.0760000000000000E-009     0.0000000000000000
  -1.0720000000000000E-009     0.0000000000000000
  -1.0680000000000000E-009     0.0000000000000000
  -1.0640000000000000E-009     0.0000000000000000
  -1.0600000000000001E-009     0.0000000000000000
  -1.0560000000000001E-009     0.0000000000000000
  -1.0520000000000001E-009     0.0000000000000000
  -1.0480000000000001E-009     0.0000000000000000
  -1.0439999999999999E-009     0.0000000000000000
  -1.0399999999999999E-009     0.0000000000000000
  -1.0359999999999999E-009     0.0000000000000000
  -1.0320000000000000E-009     0.0000000000000000
  -1.0280000000000000E-009     0.0000000000000000
  -1.0240000000000000E-009     0.0000000000000000
  -1.0200000000000000E-009     0.0000000000000000
  -1.0160000000000000E-009     0.0000000000000000
  -1.0120000000000000E-009     0.0000000000000000
  -1.0080000000000000E-009     0.0000000000000000
  -1.0040000000000000E-009     0.0000000000000000
  -1.0000000000000001E-009     0.0000000000000000
  -9.9600000000000008E-010     0.0000000000000000
  -9.9199999999999988E-010     0.0000000000000000
  -9.8799999999999990E-010     0.0000000000000000
  -9.8399999999999991E-010     0.0000000000000000
  -9.7999999999999992E-010     0.0000000000000000
  -9.7599999999999994E-010     0.0000000000000000
  -9.7199999999999995E-010     0.0000000000000000
  -9.6799999999999997E-010     0.0000000000000000
  -9.6399999999999998E-010     0.0000000000000000
  -9.5999999999999999E-010     0.0000000000000000
  -9.5600000000000001E-010     0.0000000000000000
  -9.5200000000000002E-010     0.0000000000000000
  -9.4800000000000004E-010     0.0000000000000000
  -9.4400000000000005E-010     0.0000000000000000
  -9.4000000000000006E-010     0.0000000000000000
  -9.3600000000000008E-010     0.0000000000000000
  -9.3200000000000009E-010     0.0000000000000000
  -9.2800000000000000E-010     0.0000000000000000
  -9.2400000000000001E-010     0.0000000000000000
  -9.1999999999999992E-010     0.0000000000000000
  -9.1599999999999994E-010     0.0000000000000000
  -9.1199999999999995E-010     0.0000000000000000
  -9.0799999999999997E-010     0.0000000000000000
  -9.0399999999999998E-010     0.0000000000000000
  -8.9999999999999999E-010     0.0000000000000000
  -8.9600000000000001E-010     0.0000000000000000
  -8.9200000000000002E-010     0.0000000000000000
  -8.8800000000000004E-010     0.0000000000000000
  -8.8400000000000005E-010     0.0000000000000000
  -8.8000000000000006E-010     0.0000000000000000
  -8.7599999999999997E-010     0.0000000000000000
  -8.7199999999999999E-010     0.0000000000000000
  -8.6800000000000000E-010     0.0000000000000000
  -8.6400000000000001E-010     0.0000000000000000
  -8.5999999999999993E-010     0.0000000000000000
  -8.5599999999999994E-010     0.0000000000000000
  -8.5199999999999995E-010     0.0000000000000000
  -8.4799999999999997E-010     0.0000000000000000
  -8.4399999999999998E-010     0.0000000000000000
  -8.3999999999999999E-010     0.0000000000000000
  -8.3600000000000001E-010     0.0000000000000000
  -8.3200000000000002E-010     0.0000000000000000
  -8.2800000000000004E-010     0.0000000000000000
  -8.2400000000000005E-010     0.0000000000000000
  -8.2000000000000006E-010     0.0000000000000000
  -8.1599999999999997E-010     0.0000000000000000
  -8.1199999999999999E-010     0.0000000000000000
  -8.0800000000000000E-010     0.0000000000000000
  -8.0400000000000002E-010     0.0000000000000000
  -7.9999999999999993E-010     0.0000000000000000
  -7.9599999999999994E-010     0.0000000000000000
  -7.9199999999999995E-010     0.0000000000000000
  -7.8799999999999997E-010     0.0000000000000000
  -7.8399999999999998E-010     0.0000000000000000
  -7.7999999999999999E-010     0.0000000000000000
  -7.7600000000000001E-010    -1.4012984643248171E-045
  -7.7200000000000002E-010    -2.8025969286496341E-045
  -7.6800000000000004E-010    -2.8025969286496341E-045
  -7.6400000000000005E-010    -2.8025969286496341E-045
  -7.6000000000000006E-010    -2.8025969286496341E-045
  -7.5600000000000008E-010     0.0000000000000000
  -7.5199999999999999E-010     5.6051938572992683E-045
  -7.4800000000000000E-010     1.2611686178923354E-044
  -7.4400000000000002E-010     2.1019476964872256E-044
  -7.3999999999999993E-010     2.9427267750821158E-044
  -7.3599999999999994E-010     3.7835058536770061E-044
  -7.3199999999999995E-010     4.2038953929744512E-044
  -7.2799999999999997E-010     4.0637655465419695E-044
  -7.2399999999999998E-010     2.6624670822171524E-044
  -7.2000000000000000E-010    -1.4012984643248171E-045
  -7.1600000000000001E-010    -4.9045446251368597E-044
  -7.1200000000000002E-010    -1.1911036946760945E-043
  -7.0800000000000004E-010    -2.0879347118439774E-043
  -7.0400000000000005E-010    -3.1248955754443421E-043
  -6.9999999999999996E-010    -4.1898824083312030E-043
  -6.9599999999999997E-010    -5.0446744715693415E-043
  -6.9199999999999999E-010    -5.3949990876505457E-043
  -6.8800000000000000E-010    -4.8204667172773707E-043
  -6.8400000000000002E-010    -2.8446358825793787E-043
  -6.8000000000000003E-010     9.9492190967062012E-044
  -6.7600000000000004E-010     7.0765572448403262E-043
  -6.7199999999999995E-010     1.5596451907935214E-042
  -6.6799999999999997E-010     2.6316385160020065E-042
  -6.6399999999999998E-010     3.8423603891786484E-042
  -6.6000000000000000E-010     5.0362666807833926E-042
  -6.5600000000000001E-010     5.9611236672377718E-042
  -6.5200000000000002E-010     6.2694093293892316E-042
  -6.4800000000000004E-010     5.5267211432970785E-042
  -6.4400000000000005E-010     3.2454072433762763E-042
  -6.3999999999999996E-010    -1.0467699528506384E-042
  -6.3599999999999998E-010    -7.7155493445724428E-042
  -6.3199999999999999E-010    -1.6880041301256746E-041
  -6.2800000000000000E-010    -2.8250177040788312E-041
  -6.2400000000000002E-010    -4.0948743724499804E-041
  -6.2000000000000003E-010    -5.3347432536845786E-041
  -6.1600000000000004E-010    -6.2943524420542133E-041
  -6.1199999999999995E-010    -6.6344475793458464E-041
  -6.0799999999999997E-010    -5.9396838007336021E-041
  -6.0399999999999998E-010    -3.7530976770011576E-041
  -6.0000000000000000E-010     3.6265604256726266E-042
  -5.9600000000000001E-010     6.7352009389308008E-041
  -5.9200000000000002E-010     1.5463889073210086E-040
  -5.8800000000000004E-010     2.6278269841790430E-040
  -5.8400000000000005E-010     3.8388010910792634E-040
  -5.7999999999999996E-010     5.0346131485954893E-040
  -5.7599999999999998E-010     5.9957077133373083E-040
  -5.7199999999999999E-010     6.4266770560404058E-040
  -5.6800000000000000E-010     5.9682142374672554E-040
  -5.6400000000000002E-010     4.2261620255725726E-040
  -5.6000000000000003E-010     8.2152523769506726E-041
  -5.5600000000000004E-010    -4.5365496354205195E-040
  -5.5199999999999995E-010    -1.1955934549557912E-039
  -5.4799999999999997E-010    -2.1249990562253688E-039
  -5.4399999999999998E-010    -3.1819732644932205E-039
  -5.4000000000000000E-010    -4.2546672389338680E-039
  -5.3600000000000001E-010    -5.1719221812192851E-039
  -5.3200000000000002E-010    -5.7021412902551164E-039
  -5.2800000000000004E-010    -5.5616078698649092E-039
  -5.2400000000000005E-010    -4.4354109187578759E-039
  -5.1999999999999996E-010    -2.0136518802501189E-039
  -5.1599999999999998E-010     1.9556955770641088E-039
  -5.1199999999999999E-010     7.5979103384923744E-039
  -5.0800000000000000E-010     1.4830153244017652E-038
  -5.0400000000000002E-010     2.3274754739325903E-038
  -5.0000000000000003E-010     3.2178507090753288E-038
  -4.9600000000000004E-010     4.0353533793987052E-038
  -4.9199999999999996E-010     4.6159048871955411E-038
  -4.8799999999999997E-010     4.7545698162134176E-038
  -4.8399999999999998E-010     4.2184234949331852E-038
  -4.8000000000000000E-010     2.7696983643429875E-038
  -4.7600000000000001E-010     2.0028660859702108E-039
  -4.7200000000000002E-010    -3.6225782156967083E-038
  -4.6800000000000004E-010    -8.7014452105746539E-038
  -4.6400000000000005E-010    -1.4848815456705837E-037
  -4.5999999999999996E-010    -2.1629241341754871E-037
  -4.5599999999999998E-010    -2.8312939517447264E-037
  -4.5199999999999999E-010    -3.3852936001875970E-037
  -4.4800000000000000E-010    -3.6899502356280869E-037
  -4.4400000000000002E-010    -3.5865935998080485E-037
  -4.4000000000000003E-010    -2.9058293533737948E-037
  -4.3600000000000005E-010    -1.4877483781208380E-037
  -4.3199999999999996E-010     7.9047560263418940E-038
  -4.2799999999999997E-010     3.9804750563155539E-037
  -4.2399999999999998E-010     8.0242430648367139E-037
  -4.2000000000000000E-010     1.2715082723723656E-036
  -4.1600000000000001E-010     1.7663309297213712E-036
  -4.1200000000000002E-010     2.2273619808576098E-036
  -4.0800000000000004E-010     2.5742235736491220E-036
  -4.0400000000000005E-010     2.7082413373334012E-036
  -3.9999999999999996E-010     2.5186487491772627E-036
  -3.9599999999999998E-010     1.8930721652647570E-036
  -3.9199999999999999E-010     7.3258493626824826E-037
  -3.8800000000000000E-010    -1.0289065139182816E-036
  -3.8400000000000002E-010    -3.4018780684063706E-036
  -3.8000000000000003E-010    -6.3167768944905808E-036
  -3.7600000000000005E-010    -9.6006922680820117E-036
  -3.7200000000000006E-010    -1.2958736106228471E-035
  -3.6799999999999997E-010    -1.5964550638579465E-035
  -3.6399999999999998E-010    -1.8064852829516391E-035
  -3.6000000000000000E-010    -1.8602942830239356E-035
  -3.5600000000000001E-010    -1.6865474075044889E-035
  -3.5200000000000003E-010    -1.2155323312597677E-035
  -3.4800000000000004E-010    -3.8909949971410524E-036
  -3.4400000000000005E-010     8.2703517913003312E-036
  -3.3999999999999996E-010     2.4293404510791692E-035
  -3.3599999999999998E-010     4.3620778738106714E-035
  -3.3199999999999999E-010     6.5041887483453739E-035
  -3.2800000000000000E-010     8.6596585307258836E-035
  -3.2400000000000002E-010     1.0553930368905686E-034
  -3.2000000000000003E-010     1.1839124515776098E-034
  -3.1600000000000005E-010     1.2110688965577490E-034
  -3.1200000000000006E-010     1.0937633995121899E-034
  -3.0799999999999997E-010     7.9075436103193162E-035
  -3.0399999999999998E-010     2.6861061846465517E-035
  -3.0000000000000000E-010    -4.9110219692217344E-035
  -2.9600000000000001E-010    -1.4838561359904845E-034
  -2.9200000000000003E-010    -2.6741339353955450E-034
  -2.8800000000000004E-010    -3.9883237626454003E-034
  -2.8400000000000005E-010    -5.3097580330096788E-034
  -2.7999999999999996E-010    -6.4772861137177413E-034
  -2.7599999999999998E-010    -7.2888350157334673E-034
  -2.7199999999999999E-010    -7.5113014542239123E-034
  -2.6800000000000011E-010    -6.8978201360793763E-034
  -2.6399999999999992E-010    -5.2129262266832121E-034
  -2.5999999999999993E-010    -2.2653234028846988E-034
  -2.5599999999999994E-010     2.0530231538189434E-034
  -2.5199999999999996E-010     7.7239851164861273E-034
  -2.4799999999999997E-010     1.4560388427799924E-033
  -2.4399999999999998E-010     2.2168308170821736E-033
  -2.4000000000000000E-010     2.9920825657609189E-033
  -2.3600000000000001E-010     3.6950331466694394E-033
  -2.3200000000000003E-010     4.2166653770025528E-033
  -2.2800000000000004E-010     4.4307699180613243E-033
  -2.2400000000000005E-010     4.2027732378277412E-033
  -2.2000000000000007E-010     3.4025708868688235E-033
  -2.1600000000000008E-010     1.9212248445770773E-033
  -2.1200000000000010E-010    -3.0912268817161400E-034
  -2.0800000000000011E-010    -3.2933391763446163E-033
  -2.0399999999999992E-010    -6.9512608643326422E-033
  -1.9999999999999993E-010    -1.1098005265954393E-032
  -1.9599999999999994E-010    -1.5429674030743690E-032
  -1.9199999999999996E-010    -1.9517836202024274E-032
  -1.8799999999999997E-010    -2.2816318900837707E-032
  -1.8399999999999998E-010    -2.4683524086193738E-032
  -1.8000000000000000E-010    -2.4422833234643941E-032
  -1.7600000000000001E-010    -2.1342423839691243E-032
  -1.7200000000000003E-010    -1.4834030472030898E-032
  -1.6800000000000004E-010    -4.4680088444114051E-033
  -1.6400000000000005E-010     9.9006525976785650E-033
  -1.6000000000000007E-010     2.8023600183243080E-032
  -1.5600000000000008E-010     4.9158756450893522E-032
  -1.5200000000000010E-010     7.1992011286590701E-032
  -1.4800000000000011E-010     9.4596409127126289E-032
  -1.4399999999999992E-010     1.1444503678631165E-031
  -1.3999999999999993E-010     1.2849293484007900E-031
  -1.3599999999999994E-010     1.3334066178792661E-031
  -1.3199999999999996E-010     1.2548708999053484E-031
  -1.2799999999999997E-010     1.0167188007140651E-031
  -1.2399999999999999E-010     5.9298517823840787E-032
  -1.2000000000000000E-010    -3.0824621019628213E-033
  -1.1600000000000001E-010    -8.5262983981597326E-032
  -1.1200000000000003E-010    -1.8488525447049483E-031
  -1.0800000000000004E-010    -2.9702525262933554E-031
  -1.0400000000000005E-010    -4.1391808007708198E-031
  -1.0000000000000007E-010    -5.2489640769866608E-031
  -9.6000000000000082E-011    -6.1661186237355132E-031
  -9.2000000000000096E-011    -6.7360011062006002E-031
  -8.8000000000000110E-011    -6.7923298550965235E-031
  -8.3999999999999917E-011    -6.1707369059410238E-031
  -7.9999999999999931E-011    -4.7261399247691723E-031
  -7.5999999999999944E-011    -2.3532790348377172E-031
  -7.1999999999999958E-011     9.9075130765835516E-032
  -6.7999999999999972E-011     5.2636770344792929E-031
  -6.3999999999999986E-011     1.0317147467167141E-030
  -6.0000000000000000E-011     1.5880413342885704E-030
  -5.6000000000000013E-011     2.1551522831930626E-030
  -5.2000000000000027E-011     2.6799057507786687E-030
  -4.8000000000000041E-011     3.0977197012530199E-030
  -4.4000000000000055E-011     3.3356406982549316E-030
  -4.0000000000000069E-011     3.3171100172294729E-030
  -3.6000000000000082E-011     2.9684328140185085E-030
  -3.2000000000000096E-011     2.2267929274632490E-030
  -2.8000000000000110E-011     1.0494598213576312E-030
  -2.3999999999999917E-011    -5.7637619537767347E-031
  -1.9999999999999931E-011    -2.6239193058377048E-030
  -1.5999999999999945E-011    -5.0182083293100734E-030
  -1.1999999999999959E-011    -7.6298084543511606E-030
  -7.9999999999999724E-012    -1.0271972184830012E-029
  -3.9999999999999862E-012    -1.2702469443573245E-029
   0.0000000000000000         -1.4631187472481535E-029
   3.9999999999999862E-012    -1.5734301463948551E-029
   7.9999999999999724E-012    -1.5675459790249214E-029
   1.1999999999999959E-011    -1.4133853680162758E-029
   1.5999999999999945E-011    -1.0838370125881069E-029
   1.9999999999999931E-011    -5.6062428895801062E-030
   2.3999999999999917E-011     1.6161695035105267E-030
   2.7999999999999903E-011     1.0713727851925527E-029
   3.1999999999999889E-011     2.1367881273993188E-029
   3.6000000000000082E-011     3.3031564290874720E-029
   4.0000000000000069E-011     4.4918343722321978E-029
   4.4000000000000055E-011     5.6010484458715062E-029
   4.8000000000000041E-011     6.5090022384692408E-029
   5.2000000000000027E-011     7.0795944938273091E-029
   5.6000000000000013E-011     7.1708889898692326E-029
   6.0000000000000000E-011     6.6462831267582706E-029
   6.3999999999999986E-011     5.3880484181126770E-029
   6.7999999999999972E-011     3.3126443424025634E-029
   7.1999999999999958E-011     3.8689054972568755E-030
   7.5999999999999944E-011    -3.3562167018350018E-029
   7.9999999999999931E-011    -7.8035130413235833E-029
   8.3999999999999917E-011    -1.2751172901674706E-028
   8.7999999999999903E-011    -1.7899490588106674E-028
   9.1999999999999889E-011    -2.2854661575240908E-028
   9.6000000000000082E-011    -2.7139133477773362E-028
   1.0000000000000007E-010    -3.0211680259026122E-028
   1.0400000000000005E-010    -3.1497869238961389E-028
   1.0800000000000004E-010    -3.0430778864324475E-028
   1.1200000000000003E-010    -2.6500974183288221E-028
   1.1600000000000001E-010    -1.9313737057456679E-028
   1.2000000000000000E-010    -8.6504238824808569E-029
   1.2399999999999999E-010     5.4701959506249764E-029
   1.2799999999999997E-010     2.2735766697536592E-028
   1.3199999999999996E-010     4.2495196444192289E-028
   1.3599999999999994E-010     6.3730856308045663E-028
   1.3999999999999993E-010     8.5054449318334898E-028
   1.4399999999999992E-010     1.0473234963561982E-027
   1.4799999999999990E-010     1.2074512823153806E-027
   1.5199999999999989E-010     1.3088428272026188E-027
   1.5600000000000008E-010     1.3288682615783684E-027
   1.6000000000000007E-010     1.2460538517487006E-027
   1.6400000000000005E-010     1.0420836187565039E-027
   1.6800000000000004E-010     7.0400732076622677E-028
   1.7200000000000003E-010     2.2652670042673574E-028
   1.7600000000000001E-010    -3.8580507905807045E-028
   1.8000000000000000E-010    -1.1166635225159496E-027
   1.8399999999999998E-010    -1.9365260257552655E-027
   1.8799999999999997E-010    -2.8019580537052251E-027
   1.9199999999999996E-010    -3.6558267982690836E-027
   1.9599999999999994E-010    -4.4286285292418169E-027
   1.9999999999999993E-010    -5.0410700145110803E-027
   2.0399999999999992E-010    -5.4079808541462370E-027
   2.0799999999999990E-010    -5.4435431505693473E-027
   2.1199999999999989E-010    -5.0677244997554107E-027
   2.1600000000000008E-010    -4.2136874289144127E-027
   2.2000000000000007E-010    -2.8358199465804359E-027
   2.2400000000000005E-010    -9.1791901153835599E-028
   2.2800000000000004E-010     1.5190590435974578E-027
   2.3200000000000003E-010     4.4103499133256265E-027
   2.3600000000000001E-010     7.6425607166069601E-027
   2.4000000000000000E-010     1.1051430525525124E-026
   2.4399999999999998E-010     1.4422867189672200E-026
   2.4799999999999997E-010     1.7497876272358858E-026
   2.5199999999999996E-010     1.9981852892224051E-026
   2.5599999999999994E-010     2.1558434552138997E-026
   2.5999999999999993E-010     2.1907896851663995E-026
   2.6399999999999992E-010     2.0729677622934015E-026
   2.6799999999999990E-010     1.7768267592087093E-026
   2.7199999999999989E-010     1.2841327415708423E-026
   2.7600000000000008E-010     5.8684514445497812E-027
   2.8000000000000007E-010    -3.1013138190530884E-027
   2.8400000000000005E-010    -1.3865404456153381E-026
   2.8800000000000004E-010    -2.6049515211687459E-026
   2.9200000000000003E-010    -3.9097715236814270E-026
   2.9600000000000001E-010    -5.2273251586888143E-026
   3.0000000000000000E-010    -6.4672166701723574E-026
   3.0399999999999998E-010    -7.5251389249392080E-026
   3.0799999999999997E-010    -8.2872229328086241E-026
   3.1199999999999996E-010    -8.6359444426398122E-026
   3.1599999999999994E-010    -8.4574899310344287E-026
   3.1999999999999993E-010    -7.6503724425357903E-026
   3.2399999999999992E-010    -6.1349638643328224E-026
   3.2799999999999990E-010    -3.8634767900502244E-026
   3.3199999999999989E-010    -8.2980848695461770E-027
   3.3600000000000008E-010     2.9214341963260561E-026
   3.4000000000000007E-010     7.2875075194906045E-026
   3.4400000000000005E-010     1.2102506792674458E-025
   3.4800000000000004E-010     1.7135556464525132E-025
   3.5200000000000003E-010     2.2092981492658728E-025
   3.5600000000000001E-010     2.6625071209624620E-025
   3.6000000000000000E-010     3.0337931341708821E-025
   3.6399999999999998E-010     3.2810620779504740E-025
   3.6799999999999997E-010     3.3617492365268079E-025
   3.7199999999999996E-010     3.2355290265011172E-025
   3.7599999999999994E-010     2.8674184249552446E-025
   3.7999999999999993E-010     2.2311488567833962E-025
   3.8399999999999991E-010     1.3126394013464097E-025
   3.8799999999999990E-010     1.1336851032167379E-026
   3.9199999999999989E-010    -1.3465944398974509E-025
   3.9599999999999987E-010    -3.0261569606083427E-025
   4.0000000000000007E-010    -4.8616427696168252E-025
   4.0400000000000005E-010    -6.7663730632523778E-025
   4.0800000000000004E-010    -8.6316341806093945E-025
   4.1200000000000002E-010    -1.0329238196741724E-024
   4.1600000000000001E-010    -1.1715827884533880E-024
   4.2000000000000000E-010    -1.2638977567726796E-024
   4.2399999999999998E-010    -1.2945057571104812E-024
   4.2799999999999997E-010    -1.2488716328576429E-024
   4.3199999999999996E-010    -1.1143668056053212E-024
   4.3599999999999994E-010    -8.8143935308264724E-025
   4.3999999999999993E-010    -5.4481697273338312E-025
   4.4399999999999991E-010    -1.0467633242244336E-025
   4.4799999999999990E-010     4.3230129808745102E-025
   4.5199999999999989E-010     1.0520746014397703E-024
   4.5599999999999987E-010     1.7326785469154922E-024
   4.6000000000000007E-010     2.4440401790857813E-024
   4.6400000000000005E-010     3.1482600562658784E-024
   4.6800000000000004E-010     3.8004261577540617E-024
   4.7200000000000002E-010     4.3500125342166045E-024
   4.7600000000000001E-010     4.7428857754002041E-024
   4.8000000000000000E-010     4.9239139703607745E-024
   4.8399999999999998E-010     4.8401243204518195E-024
   4.8799999999999997E-010     4.4443295329057339E-024
   4.9199999999999996E-010     3.6990851415648445E-024
   4.9599999999999994E-010     2.5808014443498747E-024
   4.9999999999999993E-010     1.0837930221092836E-024
   5.0399999999999991E-010    -7.7598866740006795E-025
   5.0799999999999990E-010    -2.9578207507060213E-024
   5.1199999999999989E-010    -5.3939681792198401E-024
   5.1599999999999987E-010    -7.9886318818267110E-024
   5.2000000000000007E-010    -1.0618365184836087E-023
   5.2400000000000005E-010    -1.3134199594906033E-023
   5.2800000000000004E-010    -1.5365658326113761E-023
   5.3200000000000002E-010    -1.7126766631192513E-023
   5.3600000000000001E-010    -1.8224067417189509E-023
   5.4000000000000000E-010    -1.8466523816409187E-023
   5.4399999999999998E-010    -1.7677069687787449E-023
   5.4799999999999997E-010    -1.5705444383819608E-023
   5.5199999999999995E-010    -1.2441777724209195E-023
   5.5599999999999994E-010    -7.8302861989044130E-024
   5.5999999999999993E-010    -1.8823124444309820E-024
   5.6399999999999991E-010     5.3121514704348429E-024
   5.6799999999999990E-010     1.3575379522481746E-023
   5.7199999999999989E-010     2.2636209058579510E-023
   5.7599999999999987E-010     3.2128616507314638E-023
   5.8000000000000007E-010     4.1595395442960945E-023
   5.8400000000000005E-010     5.0497602405958679E-023
   5.8800000000000004E-010     5.8230228413657635E-023
   5.9200000000000002E-010     6.4144268133001627E-023
   5.9600000000000001E-010     6.7575074696905741E-023
   6.0000000000000000E-010     6.7876457428023618E-023
   6.0399999999999998E-010     6.4459616857585537E-023
   6.0799999999999997E-010     5.6835598063873788E-023
   6.1199999999999995E-010     4.4659526836343850E-023
   6.1599999999999994E-010     2.7774501896390884E-023
   6.1999999999999993E-010     6.2526965226640139E-024
   6.2399999999999991E-010    -1.9568977441839087E-023
   6.2799999999999990E-010    -4.9061493749778310E-023
   6.3199999999999989E-010    -8.1287427293804633E-023
   6.3599999999999987E-010    -1.1499843882356382E-022
   6.4000000000000006E-010    -1.4864896049911067E-022
   6.4400000000000005E-010    -1.8042778661471945E-022
   6.4800000000000004E-010    -2.0830908450045915E-022
   6.5200000000000002E-010    -2.3012301966131611E-022
   6.5600000000000001E-010    -2.4364555970264434E-022
   6.6000000000000000E-010    -2.4670573416972666E-022
   6.6399999999999978E-010    -2.3730776283767735E-022
   6.6800000000000017E-010    -2.1376401348385175E-022
   6.7200000000000016E-010    -1.7483342488860722E-022
   6.7600000000000015E-010    -1.1985965215702537E-022
   6.8000000000000013E-010    -4.8901405473116379E-023
   6.8400000000000012E-010     3.7152505581207240E-023
   6.8800000000000011E-010     1.3649184402141138E-022
   6.9200000000000009E-010     2.4632549059163565E-022
   6.9600000000000008E-010     3.6286182952714594E-022
   7.0000000000000006E-010     4.8133596425556457E-022
   7.0400000000000005E-010     5.9608980571141195E-022
   7.0800000000000004E-010     7.0070906907635084E-022
   7.1200000000000002E-010     7.8821941615466056E-022
   7.1600000000000001E-010     8.5134060742423744E-022
   7.2000000000000000E-010     8.8279588697273525E-022
   7.2399999999999998E-010     8.7566892627995964E-022
   7.2799999999999997E-010     8.2380004696245528E-022
   7.3199999999999995E-010     7.2220652586380761E-022
   7.3599999999999994E-010     5.6751208879676865E-022
   7.3999999999999993E-010     3.5836562528997377E-022
   7.4399999999999991E-010     9.5828298411351807E-023
   7.4799999999999990E-010    -2.1629442683231109E-022
   7.5199999999999988E-010    -5.7119961594278065E-022
   7.5599999999999987E-010    -9.5893578228980656E-022
   7.5999999999999986E-010    -1.3663768610121374E-021
   7.6399999999999984E-010    -1.7773403235831377E-021
   7.6799999999999983E-010    -2.1728651345284641E-021
   7.7199999999999982E-010    -2.5316626012106176E-021
   7.7599999999999980E-010    -2.8307411011787804E-021
   7.7999999999999979E-010    -3.0462058987742886E-021
   7.8399999999999977E-010    -3.1542204194752988E-021
   7.8800000000000017E-010    -3.1321119173415450E-021
   7.9200000000000016E-010    -2.9595894257649029E-021
   7.9600000000000015E-010    -2.6200406700411215E-021
   8.0000000000000013E-010    -2.1018560410260482E-021
   8.0400000000000012E-010    -1.3997294457010004E-021
   8.0800000000000010E-010    -5.1587181505871009E-022
   8.1200000000000009E-010     5.3892720271421870E-022
   8.1600000000000008E-010     1.7444594903373714E-021
   8.2000000000000006E-010     3.0705481520690407E-021
   8.2400000000000005E-010     4.4768545520179221E-021
   8.2800000000000004E-010     5.9131010127321018E-021
   8.3200000000000002E-010     7.3197608223665223E-021
   8.3600000000000001E-010     8.6292547789040216E-021
   8.3999999999999999E-010     9.7676734060400632E-021
   8.4399999999999998E-010     1.0657025850473114E-020
   8.4799999999999997E-010     1.1218003747593952E-020
   8.5199999999999995E-010     1.1373208356785615E-020
   8.5599999999999994E-010     1.1050773515571159E-020
   8.5999999999999993E-010     1.0188291516349010E-020
   8.6399999999999991E-010     8.7369199288873275E-021
   8.6799999999999990E-010     6.6655191189738975E-021
   8.7199999999999988E-010     3.9646637512695905E-021
   8.7599999999999987E-010     6.5032971060919755E-022
   8.7999999999999986E-010    -3.2329298051546304E-021
   8.8399999999999984E-010    -7.6095301073208039E-021
   8.8799999999999983E-010    -1.2371321319278751E-020
   8.9199999999999981E-010    -1.7377179279553859E-020
   8.9599999999999980E-010    -2.2453880735650158E-020
   8.9999999999999979E-010    -2.7398428779781174E-020
   9.0399999999999977E-010    -3.1981936720339802E-020
   9.0799999999999976E-010    -3.5955121078153542E-020
   9.1200000000000016E-010    -3.9055445712790574E-020
   9.1600000000000015E-010    -4.1015831452798572E-020
   9.2000000000000013E-010    -4.1574831063473958E-020
   9.2400000000000012E-010    -4.0488064372595598E-020
   9.2800000000000010E-010    -3.7540661522530039E-020
   9.3200000000000009E-010    -3.2560336301318971E-020
   9.3600000000000008E-010    -2.5430688887139697E-020
   9.4000000000000006E-010    -1.6104254945585586E-020
   9.4400000000000005E-010    -4.6147295658178863E-021
   9.4800000000000004E-010     8.9121941692497722E-021
   9.5200000000000002E-010     2.4250003269406756E-020
   9.5600000000000001E-010     4.1065197333261795E-020
   9.5999999999999999E-010     5.8914368778395253E-020
   9.6399999999999998E-010     7.7245130592270765E-020
   9.6799999999999997E-010     9.5401396070988801E-020
   9.7199999999999995E-010     1.1263340999980101E-019
   9.7599999999999994E-010     1.2811285439281209E-019
   9.7999999999999992E-010     1.4095317904147274E-019
   9.8399999999999991E-010     1.5023515364068926E-019
   9.8799999999999990E-010     1.5503737653626000E-019
   9.9199999999999988E-010     1.5447128772924109E-019
   9.9599999999999987E-010     1.4772013683761592E-019
   9.9999999999999986E-010     1.3408093666298804E-019
   1.0039999999999998E-009     1.1300812281728753E-019
   1.0079999999999998E-009     8.4157872509027881E-020
   1.0119999999999998E-009     4.7431224563909645E-020
   1.0159999999999998E-009     3.0143723698880682E-021