  -1.2000000000000000E-009     0.0000000000000000
  -1.1960000000000000E-009     0.0000000000000000
  -1.1920000000000000E-009     0.0000000000000000
  -1.1880000000000000E-009     0.0000000000000000
  -1.1840000000000000E-009     0.0000000000000000
  -1.1800000000000001E-009     0.0000000000000000
  -1.1760000000000001E-009     0.0000000000000000
  -1.1720000000000001E-009     0.0000000000000000
  -1.1679999999999999E-009     0.0000000000000000
  -1.1639999999999999E-009     0.0000000000000000
  -1.1599999999999999E-009     0.0000000000000000
  -1.1559999999999999E-009     0.0000000000000000
  -1.1520000000000000E-009     0.0000000000000000
  -1.1480000000000000E-009     0.0000000000000000
  -1.1440000000000000E-009     0.0000000000000000
  -1.1400000000000000E-009     0.0000000000000000
  -1.1360000000000000E-009     0.0000000000000000
  -1.1320000000000000E-009     0.0000000000000000
  -1.1280000000000000E-009     0.0000000000000000
  -1.1240000000000000E-009     0.0000000000000000
  -1.1200000000000001E-009     0.0000000000000000
  -1.1160000000000001E-009     0.0000000000000000
  -1.1120000000000001E-009     0.0000000000000000
  -1.1079999999999999E-009     0.0000000000000000
  -1.1039999999999999E-009     0.0000000000000000
  -1.0999999999999999E-009     0.0000000000000000
  -1.0959999999999999E-009     0.0000000000000000
  -1.0920000000000000E-009     0.0000000000000000
  -1.0880000000000000E-009     0.0000000000000000
  -1.0840000000000000E-009     0.0000000000000000
  -1.0800000000000000E-009     0.0000000000000000
  -1.0760000000000000E-009     0.0000000000000000
  -1.0720000000000000E-009     0.0000000000000000
  -1.0680000000000000E-009     0.0000000000000000
  -1.0640000000000000E-009     0.0000000000000000
  -1.0600000000000001E-009     0.0000000000000000
  -1.0560000000000001E-009     0.0000000000000000
  -1.0520000000000001E-009     0.0000000000000000
  -1.0480000000000001E-009     0.0000000000000000
  -1.0439999999999999E-009     0.0000000000000000
  -1.0399999999999999E-009     0.0000000000000000
  -1.0359999999999999E-009     0.0000000000000000
  -1.0320000000000000E-009     0.0000000000000000
  -1.0280000000000000E-009     0.0000000000000000
  -1.0240000000000000E-009     0.0000000000000000
  -1.0200000000000000E-009     0.0000000000000000
  -1.0160000000000000E-009     0.0000000000000000
  -1.0120000000000000E-009     0.0000000000000000
  -1.0080000000000000E-009     0.0000000000000000
  -1.0040000000000000E-009     0.0000000000000000
  -1.0000000000000001E-009     0.0000000000000000
  -9.9600000000000008E-010     0.0000000000000000
  -9.9199999999999988E-010     0.0000000000000000
  -9.8799999999999990E-010     0.0000000000000000
  -9.8399999999999991E-010     0.0000000000000000
  -9.7999999999999992E-010     0.0000000000000000
  -9.7599999999999994E-010     0.0000000000000000
  -9.7199999999999995E-010     0.0000000000000000
  -9.6799999999999997E-010     0.0000000000000000
  -9.6399999999999998E-010     0.0000000000000000
  -9.5999999999999999E-010     0.0000000000000000
  -9.5600000000000001E-010     0.0000000000000000
  -9.5200000000000002E-010     0.0000000000000000
  -9.4800000000000004E-010     0.0000000000000000
  -9.4400000000000005E-010     0.0000000000000000
  -9.4000000000000006E-010     0.0000000000000000
  -9.3600000000000008E-010     0.0000000000000000
  -9.3200000000000009E-010     0.0000000000000000
  -9.2800000000000000E-010     0.0000000000000000
  -9.2400000000000001E-010     0.0000000000000000
  -9.1999999999999992E-010     0.0000000000000000
  -9.1599999999999994E-010     0.0000000000000000
  -9.1199999999999995E-010     0.0000000000000000
  -9.0799999999999997E-010     0.0000000000000000
  -9.0399999999999998E-010     0.0000000000000000
  -8.9999999999999999E-010     0.0000000000000000
  -8.9600000000000001E-010     0.0000000000000000
  -8.9200000000000002E-010     0.0000000000000000
  -8.8800000000000004E-010     0.0000000000000000
  -8.8400000000000005E-010     0.0000000000000000
  -8.8000000000000006E-010     0.0000000000000000
  -8.7599999999999997E-010     0.0000000000000000
  -8.7199999999999999E-010     0.0000000000000000
  -8.6800000000000000E-010     0.0000000000000000
  -8.6400000000000001E-010     0.0000000000000000
  -8.5999999999999993E-010     0.0000000000000000
  -8.5599999999999994E-010     0.0000000000000000
  -8.5199999999999995E-010     0.0000000000000000
  -8.4799999999999997E-010     0.0000000000000000
  -8.4399999999999998E-010     0.0000000000000000
  -8.3999999999999999E-010     0.0000000000000000
  -8.3600000000000001E-010     0.0000000000000000
  -8.3200000000000002E-010     0.0000000000000000
  -8.2800000000000004E-010     0.0000000000000000
  -8.2400000000000005E-010     0.0000000000000000
  -8.2000000000000006E-010     0.0000000000000000
  -8.1599999999999997E-010     0.0000000000000000
  -8.1199999999999999E-010     0.0000000000000000
  -8.0800000000000000E-010     0.0000000000000000
  -8.0400000000000002E-010     0.0000000000000000
  -7.9999999999999993E-010     0.0000000000000000
  -7.9599999999999994E-010     0.0000000000000000
  -7.9199999999999995E-010     0.0000000000000000
  -7.8799999999999997E-010     0.0000000000000000
  -7.8399999999999998E-010     0.0000000000000000
  -7.7999999999999999E-010     0.0000000000000000
  -7.7600000000000001E-010     0.0000000000000000
  -7.7200000000000002E-010     0.0000000000000000
  -7.6800000000000004E-010     0.0000000000000000
  -7.6400000000000005E-010     0.0000000000000000
  -7.6000000000000006E-010     0.0000000000000000
  -7.5600000000000008E-010     0.0000000000000000
  -7.5199999999999999E-010     0.0000000000000000
  -7.4800000000000000E-010     0.0000000000000000
  -7.4400000000000002E-010     0.0000000000000000
  -7.3999999999999993E-010     0.0000000000000000
  -7.3599999999999994E-010     0.0000000000000000
  -7.3199999999999995E-010     0.0000000000000000
  -7.2799999999999997E-010     0.0000000000000000
  -7.2399999999999998E-010     0.0000000000000000
  -7.2000000000000000E-010     0.0000000000000000
  -7.1600000000000001E-010     0.0000000000000000
  -7.1200000000000002E-010     0.0000000000000000
  -7.0800000000000004E-010     0.0000000000000000
  -7.0400000000000005E-010     0.0000000000000000
  -6.9999999999999996E-010     0.0000000000000000
  -6.9599999999999997E-010     0.0000000000000000
  -6.9199999999999999E-010     0.0000000000000000
  -6.8800000000000000E-010     0.0000000000000000
  -6.8400000000000002E-010     0.0000000000000000
  -6.8000000000000003E-010     0.0000000000000000
  -6.7600000000000004E-010     0.0000000000000000
  -6.7199999999999995E-010     0.0000000000000000
  -6.6799999999999997E-010     0.0000000000000000
  -6.6399999999999998E-010     0.0000000000000000
  -6.6000000000000000E-010     0.0000000000000000
  -6.5600000000000001E-010     0.0000000000000000
  -6.5200000000000002E-010     0.0000000000000000
  -6.4800000000000004E-010     0.0000000000000000
  -6.4400000000000005E-010     0.0000000000000000
  -6.3999999999999996E-010     0.0000000000000000
  -6.3599999999999998E-010     0.0000000000000000
  -6.3199999999999999E-010     0.0000000000000000
  -6.2800000000000000E-010     0.0000000000000000
  -6.2400000000000002E-010     0.0000000000000000
  -6.2000000000000003E-010     0.0000000000000000
  -6.1600000000000004E-010     0.0000000000000000
  -6.1199999999999995E-010     0.0000000000000000
  -6.0799999999999997E-010     0.0000000000000000
  -6.0399999999999998E-010     0.0000000000000000
  -6.0000000000000000E-010     0.0000000000000000
  -5.9600000000000001E-010     0.0000000000000000
  -5.9200000000000002E-010     0.0000000000000000
  -5.8800000000000004E-010     0.0000000000000000
  -5.8400000000000005E-010     0.0000000000000000
  -5.7999999999999996E-010     0.0000000000000000
  -5.7599999999999998E-010     0.0000000000000000
  -5.7199999999999999E-010     0.0000000000000000
  -5.6800000000000000E-010     0.0000000000000000
  -5.6400000000000002E-010     0.0000000000000000
  -5.6000000000000003E-010     0.0000000000000000
  -5.5600000000000004E-010     0.0000000000000000
  -5.5199999999999995E-010     0.0000000000000000
  -5.4799999999999997E-010     0.0000000000000000
  -5.4399999999999998E-010     0.0000000000000000
  -5.4000000000000000E-010     0.0000000000000000
  -5.3600000000000001E-010     0.0000000000000000
  -5.3200000000000002E-010     0.0000000000000000
  -5.2800000000000004E-010     0.0000000000000000
  -5.2400000000000005E-010     0.0000000000000000
  -5.1999999999999996E-010     0.0000000000000000
  -5.1599999999999998E-010     0.0000000000000000
  -5.1199999999999999E-010     0.0000000000000000
  -5.0800000000000000E-010     0.0000000000000000
  -5.0400000000000002E-010     0.0000000000000000
  -5.0000000000000003E-010     0.0000000000000000
  -4.9600000000000004E-010     0.0000000000000000
  -4.9199999999999996E-010     0.0000000000000000
  -4.8799999999999997E-010     0.0000000000000000
  -4.8399999999999998E-010     0.0000000000000000
  -4.8000000000000000E-010     0.0000000000000000
  -4.7600000000000001E-010     0.0000000000000000
  -4.7200000000000002E-010     0.0000000000000000
  -4.6800000000000004E-010     0.0000000000000000
  -4.6400000000000005E-010     0.0000000000000000
  -4.5999999999999996E-010     0.0000000000000000
  -4.5599999999999998E-010     0.0000000000000000
  -4.5199999999999999E-010     0.0000000000000000
  -4.4800000000000000E-010     0.0000000000000000
  -4.4400000000000002E-010     0.0000000000000000
  -4.4000000000000003E-010     0.0000000000000000
  -4.3600000000000005E-010     0.0000000000000000
  -4.3199999999999996E-010     0.0000000000000000
  -4.2799999999999997E-010     0.0000000000000000
  -4.2399999999999998E-010     0.0000000000000000
  -4.2000000000000000E-010     0.0000000000000000
  -4.1600000000000001E-010     0.0000000000000000
  -4.1200000000000002E-010     0.0000000000000000
  -4.0800000000000004E-010     0.0000000000000000
  -4.0400000000000005E-010     0.0000000000000000
  -3.9999999999999996E-010     0.0000000000000000
  -3.9599999999999998E-010     0.0000000000000000
  -3.9199999999999999E-010     0.0000000000000000
  -3.8800000000000000E-010     0.0000000000000000
  -3.8400000000000002E-010     0.0000000000000000
  -3.8000000000000003E-010     0.0000000000000000
  -3.7600000000000005E-010     0.0000000000000000
  -3.7200000000000006E-010     0.0000000000000000
  -3.6799999999999997E-010     0.0000000000000000
  -3.6399999999999998E-010     0.0000000000000000
  -3.6000000000000000E-010     0.0000000000000000
  -3.5600000000000001E-010     0.0000000000000000
  -3.5200000000000003E-010     0.0000000000000000
  -3.4800000000000004E-010     0.0000000000000000
  -3.4400000000000005E-010     0.0000000000000000
  -3.3999999999999996E-010     0.0000000000000000
  -3.3599999999999998E-010     0.0000000000000000
  -3.3199999999999999E-010     0.0000000000000000
  -3.2800000000000000E-010     0.0000000000000000
  -3.2400000000000002E-010     0.0000000000000000
  -3.2000000000000003E-010     0.0000000000000000
  -3.1600000000000005E-010     0.0000000000000000
  -3.1200000000000006E-010     0.0000000000000000
  -3.0799999999999997E-010     0.0000000000000000
  -3.0399999999999998E-010     0.0000000000000000
  -3.0000000000000000E-010     0.0000000000000000
  -2.9600000000000001E-010     0.0000000000000000
  -2.9200000000000003E-010     0.0000000000000000
  -2.8800000000000004E-010     0.0000000000000000
  -2.8400000000000005E-010     0.0000000000000000
  -2.7999999999999996E-010     0.0000000000000000
  -2.7599999999999998E-010     0.0000000000000000
  -2.7199999999999999E-010     0.0000000000000000
  -2.6800000000000011E-010     0.0000000000000000
  -2.6399999999999992E-010     0.0000000000000000
  -2.5999999999999993E-010     0.0000000000000000
  -2.5599999999999994E-010     0.0000000000000000
  -2.5199999999999996E-010     0.0000000000000000
  -2.4799999999999997E-010     0.0000000000000000
  -2.4399999999999998E-010     0.0000000000000000
  -2.4000000000000000E-010     0.0000000000000000
  -2.3600000000000001E-010     0.0000000000000000
  -2.3200000000000003E-010     0.0000000000000000
  -2.2800000000000004E-010     0.0000000000000000
  -2.2400000000000005E-010     0.0000000000000000
  -2.2000000000000007E-010     0.0000000000000000
  -2.1600000000000008E-010     0.0000000000000000
  -2.1200000000000010E-010     0.0000000000000000
  -2.0800000000000011E-010     0.0000000000000000
  -2.0399999999999992E-010     0.0000000000000000
  -1.9999999999999993E-010     0.0000000000000000
  -1.9599999999999994E-010     0.0000000000000000
  -1.9199999999999996E-010     0.0000000000000000
  -1.8799999999999997E-010     0.0000000000000000
  -1.8399999999999998E-010     0.0000000000000000
  -1.8000000000000000E-010     0.0000000000000000
  -1.7600000000000001E-010     0.0000000000000000
  -1.7200000000000003E-010     0.0000000000000000
  -1.6800000000000004E-010     0.0000000000000000
  -1.6400000000000005E-010     0.0000000000000000
  -1.6000000000000007E-010     0.0000000000000000
  -1.5600000000000008E-010     0.0000000000000000
  -1.5200000000000010E-010     0.0000000000000000
  -1.4800000000000011E-010     0.0000000000000000
  -1.4399999999999992E-010     0.0000000000000000
  -1.3999999999999993E-010     0.0000000000000000
  -1.3599999999999994E-010     0.0000000000000000
  -1.3199999999999996E-010     0.0000000000000000
  -1.2799999999999997E-010     0.0000000000000000
  -1.2399999999999999E-010     0.0000000000000000
  -1.2000000000000000E-010     0.0000000000000000
  -1.1600000000000001E-010     0.0000000000000000
  -1.1200000000000003E-010     0.0000000000000000
  -1.0800000000000004E-010     0.0000000000000000
  -1.0400000000000005E-010     0.0000000000000000
  -1.0000000000000007E-010     0.0000000000000000
  -9.6000000000000082E-011     0.0000000000000000
  -9.2000000000000096E-011     0.0000000000000000
  -8.8000000000000110E-011     0.0000000000000000
  -8.3999999999999917E-011     0.0000000000000000
  -7.9999999999999931E-011     0.0000000000000000
  -7.5999999999999944E-011     0.0000000000000000
  -7.1999999999999958E-011     0.0000000000000000
  -6.7999999999999972E-011     0.0000000000000000
  -6.3999999999999986E-011     0.0000000000000000
  -6.0000000000000000E-011     0.0000000000000000
  -5.6000000000000013E-011     0.0000000000000000
  -5.2000000000000027E-011     0.0000000000000000
  -4.8000000000000041E-011     0.0000000000000000
  -4.4000000000000055E-011     0.0000000000000000
  -4.0000000000000069E-011     0.0000000000000000
  -3.6000000000000082E-011     0.0000000000000000
  -3.2000000000000096E-011     0.0000000000000000
  -2.8000000000000110E-011     0.0000000000000000
  -2.3999999999999917E-011     0.0000000000000000
  -1.9999999999999931E-011     0.0000000000000000
  -1.5999999999999945E-011     0.0000000000000000
  -1.1999999999999959E-011     0.0000000000000000
  -7.9999999999999724E-012     0.0000000000000000
  -3.9999999999999862E-012     0.0000000000000000
   0.0000000000000000          0.0000000000000000
   3.9999999999999862E-012     0.0000000000000000
   7.9999999999999724E-012     0.0000000000000000
   1.1999999999999959E-011     0.0000000000000000
   1.5999999999999945E-011     0.0000000000000000
   1.9999999999999931E-011     0.0000000000000000
   2.3999999999999917E-011     0.0000000000000000
   2.7999999999999903E-011     0.0000000000000000
   3.1999999999999889E-011     0.0000000000000000
   3.6000000000000082E-011     0.0000000000000000
   4.0000000000000069E-011     0.0000000000000000
   4.4000000000000055E-011     0.0000000000000000
   4.8000000000000041E-011     0.0000000000000000
   5.2000000000000027E-011     0.0000000000000000
   5.6000000000000013E-011     0.0000000000000000
   6.0000000000000000E-011     0.0000000000000000
   6.3999999999999986E-011     0.0000000000000000
   6.7999999999999972E-011     0.0000000000000000
   7.1999999999999958E-011     0.0000000000000000
   7.5999999999999944E-011     0.0000000000000000
   7.9999999999999931E-011     0.0000000000000000
   8.3999999999999917E-011     0.0000000000000000
   8.7999999999999903E-011     0.0000000000000000
   9.1999999999999889E-011     0.0000000000000000
   9.6000000000000082E-011     0.0000000000000000
   1.0000000000000007E-010     0.0000000000000000
   1.0400000000000005E-010     0.0000000000000000
   1.0800000000000004E-010     0.0000000000000000
   1.1200000000000003E-010     0.0000000000000000
   1.1600000000000001E-010     0.0000000000000000
   1.2000000000000000E-010     0.0000000000000000
   1.2399999999999999E-010     0.0000000000000000
   1.2799999999999997E-010     0.0000000000000000
   1.3199999999999996E-010     0.0000000000000000
   1.3599999999999994E-010     0.0000000000000000
   1.3999999999999993E-010     0.0000000000000000
   1.4399999999999992E-010     0.0000000000000000
   1.4799999999999990E-010     0.0000000000000000
   1.5199999999999989E-010     0.0000000000000000
   1.5600000000000008E-010     0.0000000000000000
   1.6000000000000007E-010     0.0000000000000000
   1.6400000000000005E-010     0.0000000000000000
   1.6800000000000004E-010     0.0000000000000000
   1.7200000000000003E-010     0.0000000000000000
   1.7600000000000001E-010     0.0000000000000000
   1.8000000000000000E-010     0.0000000000000000
   1.8399999999999998E-010     0.0000000000000000
   1.8799999999999997E-010     0.0000000000000000
   1.9199999999999996E-010     0.0000000000000000
   1.9599999999999994E-010     0.0000000000000000
   1.9999999999999993E-010     0.0000000000000000
   2.0399999999999992E-010     0.0000000000000000
   2.0799999999999990E-010     0.0000000000000000
   2.1199999999999989E-010     0.0000000000000000
   2.1600000000000008E-010     0.0000000000000000
   2.2000000000000007E-010     0.0000000000000000
   2.2400000000000005E-010     0.0000000000000000
   2.2800000000000004E-010     0.0000000000000000
   2.3200000000000003E-010     0.0000000000000000
   2.3600000000000001E-010     0.0000000000000000
   2.4000000000000000E-010     0.0000000000000000
   2.4399999999999998E-010     0.0000000000000000
   2.4799999999999997E-010     0.0000000000000000
   2.5199999999999996E-010     0.0000000000000000
   2.5599999999999994E-010     0.0000000000000000
   2.5999999999999993E-010     0.0000000000000000
   2.6399999999999992E-010     0.0000000000000000
   2.6799999999999990E-010     0.0000000000000000
   2.7199999999999989E-010     0.0000000000000000
   2.7600000000000008E-010     0.0000000000000000
   2.8000000000000007E-010     0.0000000000000000
   2.8400000000000005E-010     0.0000000000000000
   2.8800000000000004E-010     0.0000000000000000
   2.9200000000000003E-010     0.0000000000000000
   2.9600000000000001E-010     0.0000000000000000
   3.0000000000000000E-010     0.0000000000000000
   3.0399999999999998E-010     0.0000000000000000
   3.0799999999999997E-010     0.0000000000000000
   3.1199999999999996E-010     0.0000000000000000
   3.1599999999999994E-010     0.0000000000000000
   3.1999999999999993E-010     0.0000000000000000
   3.2399999999999992E-010     0.0000000000000000
   3.2799999999999990E-010     0.0000000000000000
   3.3199999999999989E-010     0.0000000000000000
   3.3600000000000008E-010     0.0000000000000000
   3.4000000000000007E-010     0.0000000000000000
   3.4400000000000005E-010     0.0000000000000000
   3.4800000000000004E-010     0.0000000000000000
   3.5200000000000003E-010     0.0000000000000000
   3.5600000000000001E-010     0.0000000000000000
   3.6000000000000000E-010     0.0000000000000000
   3.6399999999999998E-010     0.0000000000000000
   3.6799999999999997E-010     0.0000000000000000
   3.7199999999999996E-010     0.0000000000000000
   3.7599999999999994E-010     0.0000000000000000
   3.7999999999999993E-010     0.0000000000000000
   3.8399999999999991E-010     0.0000000000000000
   3.8799999999999990E-010     0.0000000000000000
   3.9199999999999989E-010     0.0000000000000000
   3.9599999999999987E-010     0.0000000000000000
   4.0000000000000007E-010     0.0000000000000000
   4.0400000000000005E-010     0.0000000000000000
   4.0800000000000004E-010     0.0000000000000000
   4.1200000000000002E-010     0.0000000000000000
   4.1600000000000001E-010     0.0000000000000000
   4.2000000000000000E-010     0.0000000000000000
   4.2399999999999998E-010     0.0000000000000000
   4.2799999999999997E-010     0.0000000000000000
   4.3199999999999996E-010     0.0000000000000000
   4.3599999999999994E-010     0.0000000000000000
   4.3999999999999993E-010     0.0000000000000000
   4.4399999999999991E-010     0.0000000000000000
   4.4799999999999990E-010     0.0000000000000000
   4.5199999999999989E-010     0.0000000000000000
   4.5599999999999987E-010     0.0000000000000000
   4.6000000000000007E-010     0.0000000000000000
   4.6400000000000005E-010     0.0000000000000000
   4.6800000000000004E-010     0.0000000000000000
   4.7200000000000002E-010     0.0000000000000000
   4.7600000000000001E-010     0.0000000000000000
   4.8000000000000000E-010     0.0000000000000000
   4.8399999999999998E-010     0.0000000000000000
   4.8799999999999997E-010     0.0000000000000000
   4.9199999999999996E-010     0.0000000000000000
   4.9599999999999994E-010     0.0000000000000000
   4.9999999999999993E-010     0.0000000000000000
   5.0399999999999991E-010     0.0000000000000000
   5.0799999999999990E-010     0.0000000000000000
   5.1199999999999989E-010     0.0000000000000000
   5.1599999999999987E-010     0.0000000000000000
   5.2000000000000007E-010     0.0000000000000000
   5.2400000000000005E-010     0.0000000000000000
   5.2800000000000004E-010     0.0000000000000000
   5.3200000000000002E-010     0.0000000000000000
   5.3600000000000001E-010     0.0000000000000000
   5.4000000000000000E-010     0.0000000000000000
   5.4399999999999998E-010     0.0000000000000000
   5.4799999999999997E-010     0.0000000000000000
   5.5199999999999995E-010     0.0000000000000000
   5.5599999999999994E-010     0.0000000000000000
   5.5999999999999993E-010     0.0000000000000000
   5.6399999999999991E-010     0.0000000000000000
   5.6799999999999990E-010     0.0000000000000000
   5.7199999999999989E-010     0.0000000000000000
   5.7599999999999987E-010     0.0000000000000000
   5.8000000000000007E-010     0.0000000000000000
   5.8400000000000005E-010     0.0000000000000000
   5.8800000000000004E-010     0.0000000000000000
   5.9200000000000002E-010     0.0000000000000000
   5.9600000000000001E-010     0.0000000000000000
   6.0000000000000000E-010     0.0000000000000000
   6.0399999999999998E-010     0.0000000000000000
   6.0799999999999997E-010     0.0000000000000000
   6.1199999999999995E-010     0.0000000000000000
   6.1599999999999994E-010     0.0000000000000000
   6.1999999999999993E-010     0.0000000000000000
   6.2399999999999991E-010     0.0000000000000000
   6.2799999999999990E-010     0.0000000000000000
   6.3199999999999989E-010     0.0000000000000000
   6.3599999999999987E-010     0.0000000000000000
   6.4000000000000006E-010     0.0000000000000000
   6.4400000000000005E-010     0.0000000000000000
   6.4800000000000004E-010     0.0000000000000000
   6.5200000000000002E-010     0.0000000000000000
   6.5600000000000001E-010     0.0000000000000000
   6.6000000000000000E-010     0.0000000000000000
   6.6399999999999978E-010     0.0000000000000000
   6.6800000000000017E-010     0.0000000000000000
   6.7200000000000016E-010     0.0000000000000000
   6.7600000000000015E-010     0.0000000000000000
   6.8000000000000013E-010     0.0000000000000000
   6.8400000000000012E-010     0.0000000000000000
   6.8800000000000011E-010     0.0000000000000000
   6.9200000000000009E-010     0.0000000000000000
   6.9600000000000008E-010     0.0000000000000000
   7.0000000000000006E-010     0.0000000000000000
   7.0400000000000005E-010     0.0000000000000000
   7.0800000000000004E-010     0.0000000000000000
   7.1200000000000002E-010     1.4012984643248171E-045
   7.1600000000000001E-010     2.8025969286496341E-045
   7.2000000000000000E-010     4.2038953929744512E-045
   7.2399999999999998E-010     7.0064923216240854E-045
   7.2799999999999997E-010     9.8090892502737195E-045
   7.3199999999999995E-010     1.1210387714598537E-044
   7.3599999999999994E-010     1.2611686178923354E-044
   7.3999999999999993E-010     1.1210387714598537E-044
   7.4399999999999991E-010     7.0064923216240854E-045
   7.4799999999999990E-010     1.4012984643248171E-045
   7.5199999999999988E-010    -7.0064923216240854E-045
   7.5599999999999987E-010    -1.8216880036222622E-044
   7.5999999999999986E-010    -3.0828566215145976E-044
   7.6399999999999984E-010    -4.3440252394069329E-044
   7.6799999999999983E-010    -5.7453237037317500E-044
   7.7199999999999982E-010    -7.1466221680565671E-044
   7.7599999999999980E-010    -8.2676609395164207E-044
   7.7999999999999979E-010    -8.9683101716788293E-044
   7.8399999999999977E-010    -9.1084400181113110E-044
   7.8800000000000017E-010    -8.4077907859489024E-044
   7.9200000000000016E-010    -6.7262326287591219E-044
   7.9600000000000015E-010    -3.9236357001094878E-044
   8.0000000000000013E-010     0.0000000000000000
   8.0400000000000012E-010     5.0446744715693415E-044
   8.0800000000000010E-010     1.1070257868166055E-043
   8.1200000000000009E-010     1.7796490496925177E-043
   8.1600000000000008E-010     2.4943112664981744E-043
   8.2000000000000006E-010     3.2089734833038311E-043
   8.2400000000000005E-010     3.8535707768932469E-043
   8.2800000000000004E-010     4.3580382240501811E-043
   8.3200000000000002E-010     4.6523109015583927E-043
   8.3600000000000001E-010     4.6382979169151445E-043
   8.3999999999999999E-010     4.2459343469041957E-043
   8.4399999999999998E-010     3.4051552683093055E-043
   8.4799999999999997E-010     2.0458957579142329E-043
   8.5199999999999995E-010     1.2611686178923354E-044
   8.5599999999999994E-010    -2.3401684354224445E-043
   8.5999999999999993E-010    -5.3109211797910567E-043
   8.6399999999999991E-010    -8.7160764481003622E-043
   8.6799999999999990E-010    -1.2373465439988135E-042
   8.7199999999999988E-010    -1.6072893385805652E-042
   8.7599999999999987E-010    -1.9520087608044702E-042
   8.7999999999999986E-010    -2.2378736475267329E-042
   8.8399999999999984E-010    -2.4256476417462583E-042
   8.8799999999999983E-010    -2.4732917895333021E-042
   8.9199999999999981E-010    -2.3359645400294701E-042
   8.9599999999999980E-010    -1.9730282377693424E-042
   8.9999999999999979E-010    -1.3522530180734485E-042
   9.0399999999999977E-010    -4.4841550858394146E-043
   9.0799999999999976E-010     7.4408948455647786E-043
   9.1200000000000016E-010     2.2112489767045613E-042
   9.1600000000000015E-010     3.9138266108592141E-042
   9.2000000000000013E-010     5.7817574638041952E-042
   9.2400000000000012E-010     7.7141480461081180E-042
   9.2800000000000010E-010     9.5764737051957999E-042
   9.3200000000000009E-010     1.1204782520741237E-041
   9.3600000000000008E-010     1.2407096603131930E-041
   9.4000000000000006E-010     1.2973221182719156E-041
   9.4400000000000005E-010     1.2681751102139594E-041
   9.4800000000000004E-010     1.1322491591744522E-041
   9.5200000000000002E-010     8.7062673588500885E-042
   9.5600000000000001E-010     4.6943498554881372E-042
   9.5999999999999999E-010    -7.8332584155757274E-043
   9.6399999999999998E-010    -7.7015363599291946E-042
   9.6799999999999997E-010    -1.5921553151658572E-041
   9.7199999999999995E-010    -2.5161715225416415E-041
   9.7599999999999994E-010    -3.4989021355726357E-041
   9.7999999999999992E-010    -4.4807919695250351E-041
   9.8399999999999991E-010    -5.3867314267110293E-041
   9.8799999999999990E-010    -6.1267571457209652E-041
   9.9199999999999988E-010    -6.5999756371234559E-041
   9.9599999999999987E-010    -6.6986270490119230E-041
   9.9999999999999986E-010    -6.3146712697869232E-041
   1.0039999999999998E-009    -5.3480555890956644E-041
   1.0079999999999998E-009    -3.7159632676965499E-041
   1.0119999999999998E-009    -1.3638837953273445E-041
   1.0159999999999998E-009     1.7227563320409301E-041
   1.0199999999999998E-009     5.5072430946429636E-041
   1.0239999999999998E-009     9.8910652104367213E-041
   1.0279999999999998E-009     1.4704525435392468E-040
   1.0320000000000002E-009     1.9701695889021198E-040
   1.0360000000000001E-009     2.4558175976831717E-040
   1.0400000000000001E-009     2.8874875896184316E-040
   1.0440000000000001E-009     3.2188806634466075E-040
   1.0480000000000001E-009     3.3990175810355628E-040
   1.0520000000000001E-009     3.3748451825259597E-040
   1.0560000000000001E-009     3.0945714766763530E-040
   1.0600000000000001E-009     2.5118274973022346E-040
   1.0640000000000000E-009     1.5904737570086674E-040
   1.0680000000000000E-009     3.0984110344686030E-041
   1.0720000000000000E-009    -1.3297201387671054E-040
   1.0760000000000000E-009    -3.3015572728417718E-040
   1.0800000000000000E-009    -5.5478667371237400E-040
   1.0840000000000000E-009    -7.9760367161057830E-040
   1.0880000000000000E-009    -1.0456405062883925E-039
   1.0920000000000000E-009    -1.2822301338111374E-039
   1.0959999999999999E-009    -1.4872709277080732E-039
   1.0999999999999999E-009    -1.6378012113427737E-039
   1.1039999999999999E-009    -1.7089367265857588E-039
   1.1079999999999999E-009    -1.6751710387893880E-039
   1.1119999999999999E-009    -1.5120514897511933E-039
   1.1159999999999999E-009    -1.1981942649055781E-039
   1.1199999999999999E-009    -7.1758672670070260E-040
   1.1239999999999998E-009    -6.2077521969589396E-041
   1.1279999999999998E-009     7.6607025226787695E-040
   1.1319999999999998E-009     1.7517407894770246E-039
   1.1359999999999998E-009     2.8648215869579776E-039
   1.1399999999999998E-009     4.0586031629993969E-039
   1.1439999999999998E-009     5.2689424816952782E-039
   1.1479999999999998E-009     6.4144647399238150E-039
   1.1520000000000002E-009     7.3980109086610463E-039