  -1.2000000000000000E-009     0.0000000000000000
  -1.1960000000000000E-009     0.0000000000000000
  -1.1920000000000000E-009     0.0000000000000000
  -1.1880000000000000E-009     0.0000000000000000
  -1.1840000000000000E-009     0.0000000000000000
  -1.1800000000000001E-009     0.0000000000000000
  -1.1760000000000001E-009     0.0000000000000000
  -1.1720000000000001E-009    -1.8105354843236521E-032
  -1.1679999999999999E-009    -2.5761174989230982E-031
  -1.1639999999999999E-009    -1.9397992730941698E-030
  -1.1599999999999999E-009    -1.0264538546634508E-029
  -1.1559999999999999E-009    -4.2782655932866667E-029
  -1.1520000000000000E-009    -1.4931993655670517E-028
  -1.1480000000000000E-009    -4.5319365670167149E-028
  -1.1440000000000000E-009    -1.2267673966926124E-027
  -1.1400000000000000E-009    -3.0153959657110350E-027
  -1.1360000000000000E-009    -6.8196254884378716E-027
  -1.1320000000000000E-009    -1.4332903150109983E-026
  -1.1280000000000000E-009    -2.8208183775018182E-026
  -1.1240000000000000E-009    -5.2291185846530277E-026
  -1.1200000000000001E-009    -9.1712956515043188E-026
  -1.1160000000000001E-009    -1.5268807111766609E-025
  -1.1120000000000001E-009    -2.4182900828099439E-025
  -1.1079999999999999E-009    -3.6478003080402950E-025
  -1.1039999999999999E-009    -5.2401510509315765E-025
  -1.0999999999999999E-009    -7.1574829044899691E-025
  -1.0959999999999999E-009    -9.2608473879840410E-025
  -1.0920000000000000E-009    -1.1267893927102890E-024
  -1.0880000000000000E-009    -1.2713435190342213E-024
  -1.0840000000000000E-009    -1.2922573063153750E-024
  -1.0800000000000000E-009    -1.1008407007015622E-024
  -1.0760000000000000E-009    -5.9073005792383014E-025
  -1.0720000000000000E-009     3.5365157001407668E-025
  -1.0680000000000000E-009     1.8429187029765077E-024
  -1.0640000000000000E-009     3.9627461219168632E-024
  -1.0600000000000001E-009     6.7489756234562468E-024
  -1.0560000000000001E-009     1.0159810595822881E-023
  -1.0520000000000001E-009     1.4048300057439932E-023
  -1.0480000000000001E-009     1.8139208071893075E-023
  -1.0439999999999999E-009     2.2014891165574768E-023
  -1.0399999999999999E-009     2.5114593874895899E-023
  -1.0359999999999999E-009     2.6750588840406599E-023
  -1.0320000000000000E-009     2.6142689471399666E-023
  -1.0280000000000000E-009     2.2470103350932553E-023
  -1.0240000000000000E-009     1.4936642633696556E-023
  -1.0200000000000000E-009     2.8426279286668020E-024
  -1.0160000000000000E-009    -1.4345067952262267E-023
  -1.0120000000000000E-009    -3.6933571436459442E-023
  -1.0080000000000000E-009    -6.4961906684045101E-023
  -1.0040000000000000E-009    -9.8178554861720388E-023
  -1.0000000000000001E-009    -1.3603396390847214E-022
  -9.9600000000000008E-010    -1.7767461156840018E-022
  -9.9199999999999988E-010    -2.2191667005825745E-022
  -9.8799999999999990E-010    -2.6716992201086322E-022
  -9.8399999999999991E-010    -3.1128034801463169E-022
  -9.7999999999999992E-010    -3.5126365571067556E-022
  -9.7599999999999994E-010    -3.8291654176048762E-022
  -9.7199999999999995E-010    -4.0031669287154991E-022
  -9.6799999999999997E-010    -3.9525831479888104E-022
  -9.6399999999999998E-010    -3.5671492437946794E-022
  -9.5999999999999999E-010    -2.7046940532215338E-022
  -9.5600000000000001E-010    -1.1909799117581638E-022
  -9.5200000000000002E-010     1.1747144834167204E-022
  -9.4800000000000004E-010     4.6059465273386749E-022
  -9.4400000000000005E-010     9.3053133709527325E-022
  -9.4000000000000006E-010     1.5429080281647506E-021
  -9.3600000000000008E-010     2.3039981012703026E-021
  -9.3200000000000009E-010     3.2049635879701655E-021
  -9.2800000000000000E-010     4.2154129718693138E-021
  -9.2400000000000001E-010     5.2768799721276989E-021
  -9.1999999999999992E-010     6.2970695289086942E-021
  -9.1599999999999994E-010     7.1459535351216521E-021
  -9.1199999999999995E-010     7.6549491084159275E-021
  -9.0799999999999997E-010     7.6204668244236901E-021
  -9.0399999999999998E-010     6.8130262632661296E-021
  -8.9999999999999999E-010     4.9928658124411263E-021
  -8.9600000000000001E-010     1.9324799053926620E-021
  -8.9200000000000002E-010    -2.5541239071847352E-021
  -8.8800000000000004E-010    -8.5765276694087347E-021
  -8.8400000000000005E-010    -1.6129399943737491E-020
  -8.8000000000000006E-010    -2.5053420210807357E-020
  -8.7599999999999997E-010    -3.4999627304252494E-020
  -8.7199999999999999E-010    -4.5401921107944055E-020
  -8.6800000000000000E-010    -5.5462860737289711E-020
  -8.6400000000000001E-010    -6.4157957154248393E-020
  -8.5999999999999993E-010    -7.0263034751029905E-020
  -8.5599999999999994E-010    -7.2408088562790366E-020
  -8.5199999999999995E-010    -6.9159317319942743E-020
  -8.4799999999999997E-010    -5.9128621481743558E-020
  -8.4399999999999998E-010    -4.1107102432340702E-020
  -8.3999999999999999E-010    -1.4216094028398258E-020
  -8.3600000000000001E-010     2.1933790925507442E-020
  -8.3200000000000002E-010     6.7087733948683183E-020
  -8.2800000000000004E-010     1.2021006129335996E-019
  -8.2400000000000005E-010     1.7938121149081611E-019
  -8.2000000000000006E-010     2.4174332722346920E-019
  -8.1599999999999997E-010     3.0350820562916193E-019
  -8.1199999999999999E-010     3.6003811643194798E-019
  -8.0800000000000000E-010     4.0600588724001513E-019
  -8.0400000000000002E-010     4.3563528998651144E-019
  -7.9999999999999993E-010     4.4301601579716897E-019
  -7.9599999999999994E-010     4.2248185162660533E-019
  -7.9199999999999995E-010     3.6903355049709730E-019
  -7.8799999999999997E-010     2.7878385466813436E-019
  -7.8399999999999998E-010     1.4939681901456383E-019
  -7.7999999999999999E-010    -1.9507014260513051E-020
  -7.7600000000000001E-010    -2.2600846496693823E-019
  -7.7200000000000002E-010    -4.6563666551471519E-019
  -7.6800000000000004E-010    -7.3122642072595764E-019
  -7.6400000000000005E-010    -1.0129008580446586E-018
  -7.6000000000000006E-010    -1.2981872829056488E-018
  -7.5600000000000008E-010    -1.5722666512374644E-018
  -7.5199999999999999E-010    -1.8183487475689274E-018
  -7.4800000000000000E-010    -2.0181624963372368E-018
  -7.4400000000000002E-010    -2.1525450178816828E-018
  -7.3999999999999993E-010    -2.2021150568598418E-018
  -7.3599999999999994E-010    -2.1480162040279550E-018
  -7.3199999999999995E-010    -1.9727217429769425E-018
  -7.2799999999999997E-010    -1.6608973995112962E-018
  -7.2399999999999998E-010    -1.2003238548272298E-018
  -7.2000000000000000E-010    -5.8288470935679640E-019
  -7.1600000000000001E-010     1.9437382131924852E-019
  -7.1200000000000002E-010     1.1281106771586208E-018
  -7.0800000000000004E-010     2.2074954531541930E-018
  -7.0400000000000005E-010     3.4129807082086006E-018
  -6.9999999999999996E-010     4.7150941004941558E-018
  -6.9599999999999997E-010     6.0733383147863344E-018
  -6.9199999999999999E-010     7.4353147680023522E-018
  -6.8800000000000000E-010     8.7362258532675616E-018
  -6.8400000000000002E-010     9.8989332561486362E-018
  -6.8000000000000003E-010     1.0834774795508467E-017
  -6.7600000000000004E-010     1.1445332522065495E-017
  -6.7199999999999995E-010     1.1625346875691736E-017
  -6.6799999999999997E-010     1.1266898083409232E-017
  -6.6399999999999998E-010     1.0264940824868650E-017
  -6.6000000000000000E-010     8.5241532878212163E-018
  -6.5600000000000001E-010     5.9669628880120150E-018
  -6.5200000000000002E-010     2.5424626557978478E-018
  -6.4800000000000004E-010    -1.7641971619729903E-018
  -6.4400000000000005E-010    -6.9225194500914349E-018
  -6.3999999999999996E-010    -1.2848146468532950E-017
  -6.3599999999999998E-010    -1.9395909674155704E-017
  -6.3199999999999999E-010    -2.6355261408972594E-017
  -6.2800000000000000E-010    -3.3448904261876243E-017
  -6.2400000000000002E-010    -4.0335335062612908E-017
  -6.2000000000000003E-010    -4.6615899078046333E-017
  -6.1600000000000004E-010    -5.1846698104256062E-017
  -6.1199999999999995E-010    -5.5555415320196765E-017
  -6.0799999999999997E-010    -5.7262808748734820E-017
  -6.0399999999999998E-010    -5.6508221506739446E-017
  -6.0000000000000000E-010    -5.2878119536215783E-017
  -5.9600000000000001E-010    -4.6036320092610029E-017
  -5.9200000000000002E-010    -3.5754269863951332E-017
  -5.8800000000000004E-010    -2.1939557886566494E-017
  -5.8400000000000005E-010    -4.6607231052407390E-018
  -5.7999999999999996E-010     1.5833510782408281E-017
  -5.7599999999999998E-010     3.9102293319427062E-017
  -5.7199999999999999E-010     6.4509440310291376E-017
  -5.6800000000000000E-010     9.1229855637591829E-017
  -5.6400000000000002E-010     1.1826622087166304E-016
  -5.6000000000000003E-010     1.4447555107696903E-016
  -5.5600000000000004E-010     1.6860526981297790E-016
  -5.5199999999999995E-010     1.8933708941129654E-016
  -5.4799999999999997E-010     2.0533729032202406E-016
  -5.4399999999999998E-010     2.1531093122237604E-016
  -5.4000000000000000E-010     2.1805773995631352E-016
  -5.3600000000000001E-010     2.1252721038078398E-016
  -5.3200000000000002E-010     1.9787053607329979E-016
  -5.2800000000000004E-010     1.7348732949293527E-016
  -5.2400000000000005E-010     1.3906552517307621E-016
  -5.1999999999999996E-010     9.4613282423284829E-017
  -5.1599999999999998E-010     4.0482351527243183E-017
  -5.1199999999999999E-010    -2.2617134613533181E-017
  -5.0800000000000000E-010    -9.3610196890388724E-017
  -5.0400000000000002E-010    -1.7105818458399775E-016
  -5.0000000000000003E-010    -2.5316692474775925E-016
  -4.9600000000000004E-010    -3.3780118628798806E-016
  -4.9199999999999996E-010    -4.2250559274416137E-016
  -4.8799999999999997E-010    -5.0453168102111657E-016
  -4.8399999999999998E-010    -5.8087274885389693E-016
  -4.8000000000000000E-010    -6.4830715936717992E-016
  -4.7600000000000001E-010    -7.0345329233773035E-016
  -4.7200000000000002E-010    -7.4283741270929913E-016
  -4.6800000000000004E-010    -7.6297784449175666E-016
  -4.6400000000000005E-010    -7.6048772644550663E-016
  -4.5999999999999996E-010    -7.3219677306765379E-016
  -4.5599999999999998E-010    -6.7529325848978750E-016
  -4.5199999999999999E-010    -5.8748405276545356E-016
  -4.4800000000000000E-010    -4.6716911065728859E-016
  -4.4400000000000002E-010    -3.1362440428384737E-016
  -4.4000000000000003E-010    -1.2718494841065879E-016
  -4.3600000000000005E-010     9.0582821727563050E-017
  -4.3199999999999996E-010     3.3673180719207951E-016
  -4.2799999999999997E-010     6.0682155025347322E-016
  -4.2399999999999998E-010     8.9485610981892292E-016
  -4.2000000000000000E-010     1.1932855106526366E-015
  -4.1600000000000001E-010     1.4930822344214555E-015
  -4.1200000000000002E-010     1.7838998795537868E-015
  -4.0800000000000004E-010     2.0543191713712217E-015
  -4.0400000000000005E-010     2.2921799990038589E-015
  -3.9999999999999996E-010     2.4849901087873553E-015
  -3.9599999999999998E-010     2.6204023014495849E-015
  -3.9199999999999999E-010     2.6867376867138054E-015
  -3.8800000000000000E-010     2.6735335018572949E-015
  -3.8400000000000002E-010     2.5720888126876205E-015
  -3.8000000000000003E-010     2.3759771802339636E-015
  -3.7600000000000005E-010     2.0814983410662440E-015
  -3.7200000000000006E-010     1.6880402080009520E-015
  -3.6799999999999997E-010     1.1983259919635101E-015
  -3.6399999999999998E-010     6.1853077489763906E-016
  -3.6000000000000000E-010    -4.1745638302346418E-017
  -3.5600000000000001E-010    -7.6965092886890365E-016
  -3.5200000000000003E-010    -1.5493906554143165E-015
  -3.4800000000000004E-010    -2.3626607635119420E-015
  -3.4400000000000005E-010    -3.1891789963002168E-015
  -3.3999999999999996E-010    -4.0072844978563619E-015
  -3.3599999999999998E-010    -4.7945719761760801E-015
  -3.3199999999999999E-010    -5.5285217898071951E-015
  -3.2800000000000000E-010    -6.1870975295939389E-015
  -3.2400000000000002E-010    -6.7492745672360389E-015
  -3.2000000000000003E-010    -7.1954813594542373E-015
  -3.1600000000000005E-010    -7.5079399552350871E-015
  -3.1200000000000006E-010    -7.6709006239573420E-015
  -3.0799999999999997E-010    -7.6707811923117791E-015
  -3.0399999999999998E-010    -7.4962331128710855E-015
  -3.0000000000000000E-010    -7.1381533225511190E-015
  -2.9600000000000001E-010    -6.5896817015120672E-015
  -2.9200000000000003E-010    -5.8462252135974436E-015
  -2.8800000000000004E-010    -4.9055332922663935E-015
  -2.8400000000000005E-010    -3.7678587768536723E-015
  -2.7999999999999996E-010    -2.4362281160798197E-015
  -2.7599999999999998E-010    -9.1681946238299011E-016
  -2.7199999999999999E-010     7.8055208408138888E-016
  -2.6800000000000011E-010     2.6418709867724556E-015
  -2.6399999999999992E-010     4.6483186088219428E-015
  -2.5999999999999993E-010     6.7756859015643753E-015
  -2.5599999999999994E-010     8.9938669847137304E-015
  -2.5199999999999996E-010     1.1266500427910275E-014
  -2.4799999999999997E-010     1.3550828855009561E-014
  -2.4399999999999998E-010     1.5797843786716399E-014
  -2.4000000000000000E-010     1.7952753202771753E-014
  -2.3600000000000001E-010     1.9955811634241039E-014
  -2.3200000000000003E-010     2.1743503468541446E-014
  -2.2800000000000004E-010     2.3250085396438885E-014
  -2.2400000000000005E-010     2.4409409226950479E-014
  -2.2000000000000007E-010     2.5156961542681551E-014
  -2.1600000000000008E-010     2.5432033798236491E-014
  -2.1200000000000010E-010     2.5179899194893197E-014
  -2.0800000000000011E-010     2.4353887911323854E-014
  -2.0399999999999992E-010     2.2917235329485836E-014
  -1.9999999999999993E-010     2.0844610082058554E-014
  -1.9599999999999994E-010     1.8123228747802048E-014
  -1.9199999999999996E-010     1.4753523313519416E-014
  -1.8799999999999997E-010     1.0749324133173428E-014
  -1.8399999999999998E-010     6.1375918419587141E-015
  -1.8000000000000000E-010     9.5775550593260638E-016
  -1.7600000000000001E-010    -4.7392471721932183E-015
  -1.7200000000000003E-010    -1.0892109324125033E-014
  -1.6800000000000004E-010    -1.7430333774091401E-014
  -1.6400000000000005E-010    -2.4275313747004756E-014
  -1.6000000000000007E-010    -3.1341177889705404E-014
  -1.5600000000000008E-010    -3.8535309925674666E-014
  -1.5200000000000010E-010    -4.5758461310416859E-014
  -1.4800000000000011E-010    -5.2904431053005241E-014
  -1.4399999999999992E-010    -5.9859391477855989E-014
  -1.3999999999999993E-010    -6.6500881949586865E-014
  -1.3599999999999994E-010    -7.2696738223371887E-014
  -1.3199999999999996E-010    -7.8303994690241685E-014
  -1.2799999999999997E-010    -8.3168152540617074E-014
  -1.2399999999999999E-010    -8.7122956147610980E-014
  -1.2000000000000000E-010    -8.9990982601959729E-014
  -1.1600000000000001E-010    -9.1585193476382415E-014
  -1.1200000000000003E-010    -9.1711679212330005E-014
  -1.0800000000000004E-010    -9.0173697773077849E-014
  -1.0400000000000005E-010    -8.6776912695471498E-014
  -1.0000000000000007E-010    -8.1335938960543086E-014
  -9.6000000000000082E-011    -7.3681796883447170E-014
  -9.2000000000000096E-011    -6.3670152049971618E-014
  -8.8000000000000110E-011    -5.1189917783149921E-014
  -8.3999999999999917E-011    -3.6171844057346358E-014
  -7.9999999999999931E-011    -1.8596572781584379E-014
  -7.5999999999999944E-011     1.4982720052892826E-015
  -7.1999999999999958E-011     2.4012362532925026E-014
  -6.7999999999999972E-011     4.8778747019232252E-014
  -6.3999999999999986E-011     7.5561972857126486E-014
  -6.0000000000000000E-011     1.0405847190864126E-013
  -5.6000000000000013E-011     1.3389922579997576E-013
  -5.2000000000000027E-011     1.6465458553896473E-013
  -4.8000000000000041E-011     1.9584120024458695E-013
  -4.4000000000000055E-011     2.2693045359511999E-013
  -4.0000000000000069E-011     2.5735826230527392E-013
  -3.6000000000000082E-011     2.8653560643979170E-013
  -3.2000000000000096E-011     3.1385926301495670E-013
  -2.8000000000000110E-011     3.3872243117988310E-013
  -2.3999999999999917E-011     3.6052470687650273E-013
  -1.9999999999999931E-011     3.7868102750748811E-013
  -1.5999999999999945E-011     3.9262964082222018E-013
  -1.1999999999999959E-011     4.0183863723487756E-013
  -7.9999999999999724E-012     4.0581158767573344E-013
  -3.9999999999999862E-012     4.0409220566049731E-013
   0.0000000000000000          3.9626833173329878E-013
   3.9999999999999862E-012     3.8197599922483449E-013
   7.9999999999999724E-012     3.6090368974589504E-013
   1.1999999999999959E-011     3.3279732051735844E-013
   1.5999999999999945E-011     2.9746647853268193E-013
   1.9999999999999931E-011     2.5479206418321798E-013
   2.3999999999999917E-011     2.0473560184437051E-013
   2.7999999999999903E-011     1.4734998702962965E-013
   3.1999999999999889E-011     8.2791649783694327E-014
   3.6000000000000082E-011     1.1333612542387128E-014
   4.0000000000000069E-011    -6.6621147075569820E-014
   4.4000000000000055E-011    -1.5052674005259364E-013
   4.8000000000000041E-011    -2.3968270402262293E-013
   5.2000000000000027E-011    -3.3322436064804617E-013
   5.6000000000000013E-011    -4.3011625619655824E-013
   6.0000000000000000E-011    -5.2914936972056625E-013
   6.3999999999999986E-011    -6.2894226502199779E-013
   6.7999999999999972E-011    -7.2794770428555311E-013
   7.1999999999999958E-011    -8.2446332747010409E-013
   7.5999999999999944E-011    -9.1664783402611860E-013
   7.9999999999999931E-011    -1.0025411490560687E-012
   8.3999999999999917E-011    -1.0800889262835289E-012
   8.7999999999999903E-011    -1.1471700325782486E-012
   9.1999999999999889E-011    -1.2016260382552435E-012
   9.6000000000000082E-011    -1.2412929841984499E-012
   1.0000000000000007E-010    -1.2640329321439436E-012
   1.0400000000000005E-010    -1.2677651897025077E-012
   1.0800000000000004E-010    -1.2504977522226346E-012
   1.1200000000000003E-010    -1.2103560341480968E-012
   1.1600000000000001E-010    -1.1456116003755179E-012
   1.2000000000000000E-010    -1.0547090544682503E-012
   1.2399999999999999E-010    -9.3629205950851446E-013
   1.2799999999999997E-010    -7.8923000947084265E-013
   1.3199999999999996E-010    -6.1264491743595606E-013
   1.3599999999999994E-010    -4.0594028247360747E-013
   1.3999999999999993E-010    -1.6883259926821909E-013
   1.4399999999999992E-010     9.8613805110062819E-014
   1.4799999999999990E-010     3.9594740789024307E-013
   1.5199999999999989E-010     7.2228600054083381E-013
   1.5600000000000008E-010     1.0762685230883418E-012
   1.6000000000000007E-010     1.4560026361659650E-012
   1.6400000000000005E-010     1.8590081730940344E-012
   1.6800000000000004E-010     2.2821581863868845E-012
   1.7200000000000003E-010     2.7216195876839100E-012
   1.7600000000000001E-010     3.1727916734863859E-012
   1.8000000000000000E-010     3.6302482287614568E-012
   1.8399999999999998E-010     4.0876824494717745E-012
   1.8799999999999997E-010     4.5378549008712188E-012
   1.9199999999999996E-010     4.9725492820562600E-012
   1.9599999999999994E-010     5.3825316599642736E-012
   1.9999999999999993E-010     5.7575194611914071E-012
   2.0399999999999992E-010     6.0861554511404403E-012
   2.0799999999999990E-010     6.3559851826155978E-012
   2.1199999999999989E-010     6.5534422506730028E-012
   2.1600000000000008E-010     6.6638361495563458E-012
   2.2000000000000007E-010     6.6713375275473386E-012
   2.2400000000000005E-010     6.5589669112631199E-012
   2.2800000000000004E-010     6.3085764910597586E-012
   2.3200000000000003E-010     5.9008284369888031E-012
   2.3600000000000001E-010     5.3151645411364523E-012
   2.4000000000000000E-010     4.5297680537070839E-012
   2.4399999999999998E-010     3.5215131592020166E-012
   2.4799999999999997E-010     2.2659036105765473E-012
   2.5199999999999996E-010     7.3700052137526395E-013
   2.5599999999999994E-010    -1.0926629609789296E-012
   2.5999999999999993E-010    -3.2521806428431610E-012
   2.6399999999999992E-010    -5.7723821382527074E-012
   2.6799999999999990E-010    -8.6859503964364926E-012
   2.7199999999999989E-010    -1.2027558636551472E-011
   2.7600000000000008E-010    -1.5834011185544838E-011
   2.8000000000000007E-010    -2.0144394832777301E-011
   2.8400000000000005E-010    -2.5000241460348960E-011
   2.8800000000000004E-010    -3.0445708454340803E-011
   2.9200000000000003E-010    -3.6527770391758807E-011
   2.9600000000000001E-010    -4.3296422003180624E-011
   3.0000000000000000E-010    -5.0804895013190077E-011
   3.0399999999999998E-010    -5.9109925287792464E-011
   3.0799999999999997E-010    -6.8271978348466433E-011
   3.1199999999999996E-010    -7.8355585908518322E-011
   3.1599999999999994E-010    -8.9429651184413927E-011
   3.1999999999999993E-010    -1.0156778196268590E-010
   3.2399999999999992E-010    -1.1484870693356797E-010
   3.2799999999999990E-010    -1.2935667814684138E-010
   3.3199999999999989E-010    -1.4518192203993863E-010
   3.3600000000000008E-010    -1.6242117373277409E-010
   3.4000000000000007E-010    -1.8117816968921119E-010
   3.4400000000000005E-010    -2.0156425140083201E-010
   3.4800000000000004E-010    -2.2369892049844964E-010
   3.5200000000000003E-010    -2.4771060203043760E-010
   3.5600000000000001E-010    -2.7373722732981776E-010
   3.6000000000000000E-010    -3.0192706668152880E-010
   3.6399999999999998E-010    -3.3243938157845321E-010
   3.6799999999999997E-010    -3.6544539616656380E-010
   3.7199999999999996E-010    -4.0112904664546534E-010
   3.7599999999999994E-010    -4.3968795271354111E-010
   3.7999999999999993E-010    -4.8133430574637259E-010
   3.8399999999999991E-010    -5.2629600677533972E-010
   3.8799999999999990E-010    -5.7481752691046495E-010
   3.9199999999999989E-010    -6.2716121185246720E-010
   3.9599999999999987E-010    -6.8360844762693773E-010
   4.0000000000000007E-010    -7.4446088182966719E-010
   4.0400000000000005E-010    -8.1004153384967026E-010
   4.0800000000000004E-010    -8.8069651571487384E-010
   4.1200000000000002E-010    -9.5679630884859534E-010
   4.1600000000000001E-010    -1.0387370963371723E-009
   4.2000000000000000E-010    -1.1269425392868015E-009
   4.2399999999999998E-010    -1.2218654976692278E-009
   4.2799999999999997E-010    -1.3239896956562802E-009
   4.3199999999999996E-010    -1.4338314979767119E-009
   4.3599999999999994E-010    -1.5519416862730395E-009
   4.3999999999999993E-010    -1.6789076795475921E-009
   4.4399999999999991E-010    -1.8153551994970485E-009
   4.4799999999999990E-010    -1.9619506019807886E-009
   4.5199999999999989E-010    -2.1194037636007579E-009
   4.5599999999999987E-010    -2.2884687478352816E-009
   4.6000000000000007E-010    -2.4699478018419541E-009
   4.6400000000000005E-010    -2.6646933548590823E-009
   4.6800000000000004E-010    -2.8736102386517359E-009
   4.7200000000000002E-010    -3.0976587961362156E-009
   4.7600000000000001E-010    -3.3378579900045224E-009
   4.8000000000000000E-010    -3.5952876231704067E-009
   4.8399999999999998E-010    -3.8710927796614669E-009
   4.8799999999999997E-010    -4.1664853789313838E-009
   4.9199999999999996E-010    -4.4827497269750438E-009
   4.9599999999999994E-010    -4.8212438485961684E-009
   4.9999999999999993E-010    -5.1834043723886225E-009
   5.0399999999999991E-010    -5.5707514157177229E-009
   5.0799999999999990E-010    -5.9848903610770776E-009
   5.1199999999999989E-010    -6.4275167410698941E-009
   5.1599999999999987E-010    -6.9004220115687076E-009
   5.2000000000000007E-010    -7.4054962162506399E-009
   5.2400000000000005E-010    -7.9447328715787080E-009
   5.2800000000000004E-010    -8.5202325195155026E-009
   5.3200000000000002E-010    -9.1342098329505461E-009
   5.3600000000000001E-010    -9.7889998329492300E-009
   5.4000000000000000E-010    -1.0487055668306766E-008
   5.4399999999999998E-010    -1.1230962826402902E-008
   5.4799999999999997E-010    -1.2023436468666659E-008
   5.5199999999999995E-010    -1.2867334753252635E-008
   5.5599999999999994E-010    -1.3765657058684155E-008
   5.5999999999999993E-010    -1.4721553753815897E-008
   5.6399999999999991E-010    -1.5738333303261243E-008
   5.6799999999999990E-010    -1.6819461379213863E-008
   5.7199999999999989E-010    -1.7968577736837688E-008
   5.7599999999999987E-010    -1.9189490885196392E-008
   5.8000000000000007E-010    -2.0486194074464947E-008
   5.8400000000000005E-010    -2.1862867072286463E-008
   5.8800000000000004E-010    -2.3323883269199541E-008
   5.9200000000000002E-010    -2.4873816784065639E-008
   5.9600000000000001E-010    -2.6517447793139581E-008
   6.0000000000000000E-010    -2.8259769635496923E-008
   6.0399999999999998E-010    -3.0106001247531822E-008
   6.0799999999999997E-010    -3.2061585386600200E-008
   6.1199999999999995E-010    -3.4132195736447102E-008
   6.1599999999999994E-010    -3.6323754670775088E-008
   6.1999999999999993E-010    -3.8642422595103199E-008
   6.2399999999999991E-010    -4.1094622815762705E-008
   6.2799999999999990E-010    -4.3687034434469751E-008
   6.3199999999999989E-010    -4.6426606559180073E-008
   6.3599999999999987E-010    -4.9320558304088991E-008
   6.4000000000000006E-010    -5.2376393000486132E-008
   6.4400000000000005E-010    -5.5601898196755428E-008
   6.4800000000000004E-010    -5.9005156316516150E-008
   6.5200000000000002E-010    -6.2594544658622908E-008
   6.5600000000000001E-010    -6.6378731844451977E-008
   6.6000000000000000E-010    -7.0366716897751758E-008
   6.6399999999999978E-010    -7.4567800822933350E-008
   6.6800000000000017E-010    -7.8991597263211588E-008
   6.7200000000000016E-010    -8.3648060922314471E-008
   6.7600000000000015E-010    -8.8547452037346375E-008
   6.8000000000000013E-010    -9.3700364800497482E-008
   6.8400000000000012E-010    -9.9117741569898499E-008
   6.8800000000000011E-010    -1.0481083734248386E-007
   6.9200000000000009E-010    -1.1079126238655590E-007
   6.9600000000000008E-010    -1.1707095382007537E-007
   7.0000000000000006E-010    -1.2366220403237094E-007
   7.0400000000000005E-010    -1.3057761805157497E-007
   7.0800000000000004E-010    -1.3783014196633303E-007
   7.1200000000000002E-010    -1.4543307713665854E-007
   7.1600000000000001E-010    -1.5340006598307809E-007
   7.2000000000000000E-010    -1.6174504935406731E-007
   7.2399999999999998E-010    -1.7048230915861495E-007
   7.2799999999999997E-010    -1.7962645415536826E-007
   7.3199999999999995E-010    -1.8919240574177820E-007
   7.3599999999999994E-010    -1.9919539795409946E-007
   7.3999999999999993E-010    -2.0965094904568105E-007
   7.4399999999999991E-010    -2.2057487569782097E-007
   7.4799999999999990E-010    -2.3198327880891156E-007
   7.5199999999999988E-010    -2.4389251507273002E-007
   7.5599999999999987E-010    -2.5631919697843841E-007
   7.5999999999999986E-010    -2.6928020702143840E-007
   7.6399999999999984E-010    -2.8279256980567880E-007
   7.6799999999999983E-010    -2.9687362257391214E-007
   7.7199999999999982E-010    -3.1154084467743814E-007
   7.7599999999999980E-010    -3.2681185757610365E-007
   7.7999999999999979E-010    -3.4270445326001209E-007
   7.8399999999999977E-010    -3.5923653740610462E-007
   7.8800000000000017E-010    -3.7642612937816011E-007
   7.9200000000000016E-010    -3.9429130538337631E-007
   7.9600000000000015E-010    -4.1285017005066038E-007
   8.0000000000000013E-010    -4.3212088485233835E-007
   8.0400000000000012E-010    -4.5212152599560795E-007
   8.0800000000000010E-010    -4.7287019810937636E-007
   8.1200000000000009E-010    -4.9438489213571302E-007
   8.1600000000000008E-010    -5.1668337164301192E-007
   8.2000000000000006E-010    -5.3978334335624822E-007
   8.2400000000000005E-010    -5.6370231504843105E-007
   8.2800000000000004E-010    -5.8845745343205635E-007
   8.3200000000000002E-010    -6.1406569784594467E-007
   8.3600000000000001E-010    -6.4054364656840335E-007
   8.3999999999999999E-010    -6.6790755681722658E-007
   8.4399999999999998E-010    -6.9617311737601995E-007
   8.4799999999999997E-010    -7.2535567596787587E-007
   8.5199999999999995E-010    -7.5546995503827929E-007
   8.5599999999999994E-010    -7.8653010859852657E-007
   8.5999999999999993E-010    -8.1854955169546884E-007
   8.6399999999999991E-010    -8.5154118778518750E-007
   8.6799999999999990E-010    -8.8551695398564334E-007
   8.7199999999999988E-010    -9.2048804845035193E-007
   8.7599999999999987E-010    -9.5646475983812707E-007
   8.7999999999999986E-010    -9.9345641046966193E-007
   8.8399999999999984E-010    -1.0314712426406913E-006
   8.8799999999999983E-010    -1.0705165323088295E-006
   8.9199999999999981E-010    -1.1105984185633133E-006
   8.9599999999999980E-010    -1.1517217899381649E-006
   8.9999999999999979E-010    -1.1938901707253535E-006
   9.0399999999999977E-010    -1.2371058346616337E-006
   9.0799999999999976E-010    -1.2813694638680317E-006
   9.1200000000000016E-010    -1.3266804899103590E-006
   9.1600000000000015E-010    -1.3730367527386989E-006
   9.2000000000000013E-010    -1.4204341596268932E-006
   9.2400000000000012E-010    -1.4688673672935693E-006
   9.2800000000000010E-010    -1.5183288724074373E-006
   9.3200000000000009E-010    -1.5688094663346419E-006
   9.3600000000000008E-010    -1.6202981214519241E-006
   9.4000000000000006E-010    -1.6727817637729459E-006
   9.4400000000000005E-010    -1.7262452729482902E-006
   9.4800000000000004E-010    -1.7806714822654612E-006
   9.5200000000000002E-010    -1.8360409512752085E-006
   9.5600000000000001E-010    -1.8923320794783649E-006
   9.5999999999999999E-010    -1.9495209926390089E-006
   9.6399999999999998E-010    -2.0075815427844645E-006
   9.6799999999999997E-010    -2.0664849671447882E-006
   9.7199999999999995E-010    -2.1262001155264443E-006
   9.7599999999999994E-010    -2.1866937913728179E-006
   9.7999999999999992E-010    -2.2479293875221629E-006