  -1.2000000000000000E-009     0.0000000000000000
  -1.1960000000000000E-009     0.0000000000000000
  -1.1920000000000000E-009     0.0000000000000000
  -1.1880000000000000E-009     0.0000000000000000
  -1.1840000000000000E-009     0.0000000000000000
  -1.1800000000000001E-009     0.0000000000000000
  -1.1760000000000001E-009     0.0000000000000000
  -1.1720000000000001E-009     0.0000000000000000
  -1.1679999999999999E-009     0.0000000000000000
  -1.1639999999999999E-009     0.0000000000000000
  -1.1599999999999999E-009     0.0000000000000000
  -1.1559999999999999E-009     0.0000000000000000
  -1.1520000000000000E-009     0.0000000000000000
  -1.1480000000000000E-009     0.0000000000000000
  -1.1440000000000000E-009     0.0000000000000000
  -1.1400000000000000E-009     0.0000000000000000
  -1.1360000000000000E-009     0.0000000000000000
  -1.1320000000000000E-009     0.0000000000000000
  -1.1280000000000000E-009     0.0000000000000000
  -1.1240000000000000E-009     0.0000000000000000
  -1.1200000000000001E-009     0.0000000000000000
  -1.1160000000000001E-009     0.0000000000000000
  -1.1120000000000001E-009     0.0000000000000000
  -1.1079999999999999E-009     0.0000000000000000
  -1.1039999999999999E-009     0.0000000000000000
  -1.0999999999999999E-009     0.0000000000000000
  -1.0959999999999999E-009     0.0000000000000000
  -1.0920000000000000E-009     0.0000000000000000
  -1.0880000000000000E-009     0.0000000000000000
  -1.0840000000000000E-009     0.0000000000000000
  -1.0800000000000000E-009     0.0000000000000000
  -1.0760000000000000E-009     0.0000000000000000
  -1.0720000000000000E-009     0.0000000000000000
  -1.0680000000000000E-009     0.0000000000000000
  -1.0640000000000000E-009     0.0000000000000000
  -1.0600000000000001E-009     0.0000000000000000
  -1.0560000000000001E-009     0.0000000000000000
  -1.0520000000000001E-009     0.0000000000000000
  -1.0480000000000001E-009     0.0000000000000000
  -1.0439999999999999E-009     0.0000000000000000
  -1.0399999999999999E-009     0.0000000000000000
  -1.0359999999999999E-009     0.0000000000000000
  -1.0320000000000000E-009     0.0000000000000000
  -1.0280000000000000E-009     0.0000000000000000
  -1.0240000000000000E-009     0.0000000000000000
  -1.0200000000000000E-009     0.0000000000000000
  -1.0160000000000000E-009     0.0000000000000000
  -1.0120000000000000E-009     0.0000000000000000
  -1.0080000000000000E-009     0.0000000000000000
  -1.0040000000000000E-009     0.0000000000000000
  -1.0000000000000001E-009     0.0000000000000000
  -9.9600000000000008E-010     0.0000000000000000
  -9.9199999999999988E-010     0.0000000000000000
  -9.8799999999999990E-010     0.0000000000000000
  -9.8399999999999991E-010     0.0000000000000000
  -9.7999999999999992E-010     0.0000000000000000
  -9.7599999999999994E-010     0.0000000000000000
  -9.7199999999999995E-010     0.0000000000000000
  -9.6799999999999997E-010     0.0000000000000000
  -9.6399999999999998E-010     0.0000000000000000
  -9.5999999999999999E-010     0.0000000000000000
  -9.5600000000000001E-010     0.0000000000000000
  -9.5200000000000002E-010     0.0000000000000000
  -9.4800000000000004E-010     0.0000000000000000
  -9.4400000000000005E-010     0.0000000000000000
  -9.4000000000000006E-010     0.0000000000000000
  -9.3600000000000008E-010     0.0000000000000000
  -9.3200000000000009E-010     0.0000000000000000
  -9.2800000000000000E-010     0.0000000000000000
  -9.2400000000000001E-010     0.0000000000000000
  -9.1999999999999992E-010     0.0000000000000000
  -9.1599999999999994E-010     0.0000000000000000
  -9.1199999999999995E-010     0.0000000000000000
  -9.0799999999999997E-010     0.0000000000000000
  -9.0399999999999998E-010     0.0000000000000000
  -8.9999999999999999E-010     0.0000000000000000
  -8.9600000000000001E-010     0.0000000000000000
  -8.9200000000000002E-010     0.0000000000000000
  -8.8800000000000004E-010     0.0000000000000000
  -8.8400000000000005E-010     0.0000000000000000
  -8.8000000000000006E-010     0.0000000000000000
  -8.7599999999999997E-010     0.0000000000000000
  -8.7199999999999999E-010     0.0000000000000000
  -8.6800000000000000E-010     0.0000000000000000
  -8.6400000000000001E-010     0.0000000000000000
  -8.5999999999999993E-010     0.0000000000000000
  -8.5599999999999994E-010     0.0000000000000000
  -8.5199999999999995E-010     0.0000000000000000
  -8.4799999999999997E-010     0.0000000000000000
  -8.4399999999999998E-010     0.0000000000000000
  -8.3999999999999999E-010     0.0000000000000000
  -8.3600000000000001E-010     0.0000000000000000
  -8.3200000000000002E-010     0.0000000000000000
  -8.2800000000000004E-010     0.0000000000000000
  -8.2400000000000005E-010     0.0000000000000000
  -8.2000000000000006E-010     0.0000000000000000
  -8.1599999999999997E-010     0.0000000000000000
  -8.1199999999999999E-010     0.0000000000000000
  -8.0800000000000000E-010     0.0000000000000000
  -8.0400000000000002E-010     0.0000000000000000
  -7.9999999999999993E-010     0.0000000000000000
  -7.9599999999999994E-010     0.0000000000000000
  -7.9199999999999995E-010     0.0000000000000000
  -7.8799999999999997E-010     0.0000000000000000
  -7.8399999999999998E-010     0.0000000000000000
  -7.7999999999999999E-010     0.0000000000000000
  -7.7600000000000001E-010    -1.4012984643248171E-045
  -7.7200000000000002E-010    -2.8025969286496341E-045
  -7.6800000000000004E-010    -2.8025969286496341E-045
  -7.6400000000000005E-010    -2.8025969286496341E-045
  -7.6000000000000006E-010    -2.8025969286496341E-045
  -7.5600000000000008E-010     0.0000000000000000
  -7.5199999999999999E-010     5.6051938572992683E-045
  -7.4800000000000000E-010     1.2611686178923354E-044
  -7.4400000000000002E-010     2.1019476964872256E-044
  -7.3999999999999993E-010     2.9427267750821158E-044
  -7.3599999999999994E-010     3.7835058536770061E-044
  -7.3199999999999995E-010     4.2038953929744512E-044
  -7.2799999999999997E-010     4.0637655465419695E-044
  -7.2399999999999998E-010     2.6624670822171524E-044
  -7.2000000000000000E-010    -1.4012984643248171E-045
  -7.1600000000000001E-010    -4.9045446251368597E-044
  -7.1200000000000002E-010    -1.1911036946760945E-043
  -7.0800000000000004E-010    -2.0879347118439774E-043
  -7.0400000000000005E-010    -3.1248955754443421E-043
  -6.9999999999999996E-010    -4.1898824083312030E-043
  -6.9599999999999997E-010    -5.0446744715693415E-043
  -6.9199999999999999E-010    -5.3949990876505457E-043
  -6.8800000000000000E-010    -4.8204667172773707E-043
  -6.8400000000000002E-010    -2.8446358825793787E-043
  -6.8000000000000003E-010     9.9492190967062012E-044
  -6.7600000000000004E-010     7.0765572448403262E-043
  -6.7199999999999995E-010     1.5596451907935214E-042
  -6.6799999999999997E-010     2.6316385160020065E-042
  -6.6399999999999998E-010     3.8423603891786484E-042
  -6.6000000000000000E-010     5.0362666807833926E-042
  -6.5600000000000001E-010     5.9611236672377718E-042
  -6.5200000000000002E-010     6.2694093293892316E-042
  -6.4800000000000004E-010     5.5267211432970785E-042
  -6.4400000000000005E-010     3.2454072433762763E-042
  -6.3999999999999996E-010    -1.0467699528506384E-042
  -6.3599999999999998E-010    -7.7155493445724428E-042
  -6.3199999999999999E-010    -1.6880041301256746E-041
  -6.2800000000000000E-010    -2.8250177040788312E-041
  -6.2400000000000002E-010    -4.0948743724499804E-041
  -6.2000000000000003E-010    -5.3347432536845786E-041
  -6.1600000000000004E-010    -6.2944925719006458E-041
  -6.1199999999999995E-010    -6.6345877091922789E-041
  -6.0799999999999997E-010    -5.9398239305800346E-041
  -6.0399999999999998E-010    -3.7532378068475900E-041
  -6.0000000000000000E-010     3.6251591272083018E-042
  -5.9600000000000001E-010     6.7350608090843683E-041
  -5.9200000000000002E-010     1.5463748943363654E-040
  -5.8800000000000004E-010     2.6278129711943997E-040
  -5.8400000000000005E-010     3.8387870780946201E-040
  -5.7999999999999996E-010     5.0345991356108460E-040
  -5.7599999999999998E-010     5.9956937003526651E-040
  -5.7199999999999999E-010     6.4266770560404058E-040
  -5.6800000000000000E-010     5.9682282504518986E-040
  -5.6400000000000002E-010     4.2261760385572158E-040
  -5.6000000000000003E-010     8.2153925067971050E-041
  -5.5600000000000004E-010    -4.5365356224358763E-040
  -5.5199999999999995E-010    -1.1955920536573269E-039
  -5.4799999999999997E-010    -2.1249976549269045E-039
  -5.4399999999999998E-010    -3.1819718631947562E-039
  -5.4000000000000000E-010    -4.2546658376354037E-039
  -5.3600000000000001E-010    -5.1719207799208208E-039
  -5.3200000000000002E-010    -5.7021426915535808E-039
  -5.2800000000000004E-010    -5.5616092711633735E-039
  -5.2400000000000005E-010    -4.4354109187578759E-039
  -5.1999999999999996E-010    -2.0136518802501189E-039
  -5.1599999999999998E-010     1.9556955770641088E-039
  -5.1199999999999999E-010     7.5979103384923744E-039
  -5.0800000000000000E-010     1.4830151842719188E-038
  -5.0400000000000002E-010     2.3274751936728975E-038
  -5.0000000000000003E-010     3.2178507090753288E-038
  -4.9600000000000004E-010     4.0353542201777838E-038
  -4.9199999999999996E-010     4.6159065687536983E-038
  -4.8799999999999997E-010     4.7545720582909605E-038
  -4.8399999999999998E-010     4.2184262975301138E-038
  -4.8000000000000000E-010     2.7697011669399162E-038
  -4.7600000000000001E-010     2.0028941119394973E-039
  -4.7200000000000002E-010    -3.6225762538788583E-038
  -4.6800000000000004E-010    -8.7014435290164967E-038
  -4.6400000000000005E-010    -1.4848814335667066E-037
  -4.5999999999999996E-010    -2.1629241341754871E-037
  -4.5599999999999998E-010    -2.8312939517447264E-037
  -4.5199999999999999E-010    -3.3852933759798427E-037
  -4.4800000000000000E-010    -3.6899493387970697E-037
  -4.4400000000000002E-010    -3.5865924787692770E-037
  -4.4000000000000003E-010    -2.9058280081272691E-037
  -4.3600000000000005E-010    -1.4877469207704351E-037
  -4.3199999999999996E-010     7.9047700393265372E-038
  -4.2799999999999997E-010     3.9804759531465711E-037
  -4.2399999999999998E-010     8.0242439616677311E-037
  -4.2000000000000000E-010     1.2715083620554673E-036
  -4.1600000000000001E-010     1.7663309297213712E-036
  -4.1200000000000002E-010     2.2273619808576098E-036
  -4.0800000000000004E-010     2.5742235736491220E-036
  -4.0400000000000005E-010     2.7082413373334012E-036
  -3.9999999999999996E-010     2.5186487491772627E-036
  -3.9599999999999998E-010     1.8930721652647570E-036
  -3.9199999999999999E-010     7.3258516047600255E-037
  -3.8800000000000000E-010    -1.0289062448689764E-036
  -3.8400000000000002E-010    -3.4018773509415569E-036
  -3.8000000000000003E-010    -6.3167754595609533E-036
  -3.7600000000000005E-010    -9.6006901156875705E-036
  -3.7200000000000006E-010    -1.2958733236369216E-035
  -3.6799999999999997E-010    -1.5964549203649838E-035
  -3.6399999999999998E-010    -1.8064852829516391E-035
  -3.6000000000000000E-010    -1.8602942830239356E-035
  -3.5600000000000001E-010    -1.6865475509974516E-035
  -3.5200000000000003E-010    -1.2155327617386560E-035
  -3.4800000000000004E-010    -3.8909993019299348E-036
  -3.4400000000000005E-010     8.2703482039762626E-036
  -3.3999999999999996E-010     2.4293401640932437E-035
  -3.3599999999999998E-010     4.3620781607965969E-035
  -3.3199999999999999E-010     6.5041904702609268E-035
  -3.2800000000000000E-010     8.6596608266132876E-035
  -3.2400000000000002E-010     1.0553933812736792E-034
  -3.2000000000000003E-010     1.1839127959607204E-034
  -3.1600000000000005E-010     1.2110690113521192E-034
  -3.1200000000000006E-010     1.0937632847178197E-034
  -3.0799999999999997E-010     7.9075413144319123E-035
  -3.0399999999999998E-010     2.6861027408154458E-035
  -3.0000000000000000E-010    -4.9110259870246914E-035
  -2.9600000000000001E-010    -1.4838565951679653E-034
  -2.9200000000000003E-010    -2.6741346241617662E-034
  -2.8800000000000004E-010    -3.9883246810003619E-034
  -2.8400000000000005E-010    -5.3097584921871596E-034
  -2.7999999999999996E-010    -6.4772861137177413E-034
  -2.7599999999999998E-010    -7.2888345565559865E-034
  -2.7199999999999999E-010    -7.5113005358689507E-034
  -2.6800000000000011E-010    -6.8978192177244147E-034
  -2.6399999999999992E-010    -5.2129253083282505E-034
  -2.5999999999999993E-010    -2.2653227141184777E-034
  -2.5599999999999994E-010     2.0530238425851646E-034
  -2.5199999999999996E-010     7.7239851164861273E-034
  -2.4799999999999997E-010     1.4560388427799924E-033
  -2.4399999999999998E-010     2.2168310007531659E-033
  -2.4000000000000000E-010     2.9920831167738959E-033
  -2.3600000000000001E-010     3.6950342486953933E-033
  -2.3200000000000003E-010     4.2166668463704914E-033
  -2.2800000000000004E-010     4.4307717547712474E-033
  -2.2400000000000005E-010     4.2027750745376643E-033
  -2.2000000000000007E-010     3.4025727235787467E-033
  -2.1600000000000008E-010     1.9212266812870005E-033
  -2.1200000000000010E-010    -3.0912110400930528E-034
  -2.0800000000000011E-010    -3.2933380743186624E-033
  -2.0399999999999992E-010    -6.9512601296486729E-033
  -1.9999999999999993E-010    -1.1098006000638362E-032
  -1.9599999999999994E-010    -1.5429676969479567E-032
  -1.9199999999999996E-010    -1.9517843548863967E-032
  -1.8799999999999997E-010    -2.2816330655781215E-032
  -1.8399999999999998E-010    -2.4683535841137247E-032
  -1.8000000000000000E-010    -2.4422847928323327E-032
  -1.7600000000000001E-010    -2.1342440002738567E-032
  -1.7200000000000003E-010    -1.4834048104446160E-032
  -1.6800000000000004E-010    -4.4680268441686521E-033
  -1.6400000000000005E-010     9.9006349652633027E-033
  -1.6000000000000007E-010     2.8023585489563694E-032
  -1.5600000000000008E-010     4.9158753512157645E-032
  -1.5200000000000010E-010     7.1992028919005963E-032
  -1.4800000000000011E-010     9.4596450269428568E-032
  -1.4399999999999992E-010     1.1444509556102919E-031
  -1.3999999999999993E-010     1.2849300536974005E-031
  -1.3599999999999994E-010     1.3334074407253116E-031
  -1.3199999999999996E-010     1.2548717227513940E-031
  -1.2799999999999997E-010     1.0167196235601106E-031
  -1.2399999999999999E-010     5.9298600108445344E-032
  -1.2000000000000000E-010    -3.0823882662239103E-033
  -1.1600000000000001E-010    -8.5262919329408031E-032
  -1.1200000000000003E-010    -1.8488520745072080E-031
  -1.0800000000000004E-010    -2.9702520560956151E-031
  -1.0400000000000005E-010    -4.1391803305730795E-031
  -1.0000000000000007E-010    -5.2489640769866608E-031
  -9.6000000000000082E-011    -6.1661190939332535E-031
  -9.2000000000000096E-011    -6.7360020465960808E-031
  -8.8000000000000110E-011    -6.7923312656897445E-031
  -8.3999999999999917E-011    -6.1707387867319851E-031
  -7.9999999999999931E-011    -4.7261418055601336E-031
  -7.5999999999999944E-011    -2.3532806805298083E-031
  -7.1999999999999958E-011     9.9074989706513417E-032
  -6.7999999999999972E-011     5.2636765642815526E-031
  -6.3999999999999986E-011     1.0317148407562622E-030
  -6.0000000000000000E-011     1.5880415223676665E-030
  -5.6000000000000013E-011     2.1551528474303510E-030
  -5.2000000000000027E-011     2.6799065030950532E-030
  -4.8000000000000041E-011     3.0977206416485006E-030
  -4.4000000000000055E-011     3.3356418267295083E-030
  -4.0000000000000069E-011     3.3171111457040497E-030
  -3.6000000000000082E-011     2.9684341305721814E-030
  -3.2000000000000096E-011     2.2267940559378258E-030
  -2.8000000000000110E-011     1.0494603855949196E-030
  -2.3999999999999917E-011    -5.7637638345676960E-031
  -1.9999999999999931E-011    -2.6239204343122815E-030
  -1.5999999999999945E-011    -5.0182102101010347E-030
  -1.1999999999999959E-011    -7.6298114636166987E-030
  -7.9999999999999724E-012    -1.0271975946411934E-029
  -3.9999999999999862E-012    -1.2702475462104321E-029
   0.0000000000000000         -1.4631194995645380E-029
   3.9999999999999862E-012    -1.5734308987112396E-029
   7.9999999999999724E-012    -1.5675467313413059E-029
   1.1999999999999959E-011    -1.4133861203326603E-029
   1.5999999999999945E-011    -1.0838375392095761E-029
   1.9999999999999931E-011    -5.6062462750038366E-030
   2.3999999999999917E-011     1.6161689392732383E-030
   2.7999999999999903E-011     1.0713729356558296E-029
   3.1999999999999889E-011     2.1367887292524264E-029
   3.6000000000000082E-011     3.3031576327936872E-029
   4.0000000000000069E-011     4.4918358768649668E-029
   4.4000000000000055E-011     5.6010502514308290E-029
   4.8000000000000041E-011     6.5090046458816713E-029
   5.2000000000000027E-011     7.0795975030928472E-029
   5.6000000000000013E-011     7.1708926009878784E-029
   6.0000000000000000E-011     6.6462861360238087E-029
   6.3999999999999986E-011     5.3880508255251074E-029
   6.7999999999999972E-011     3.3126461479618863E-029
   7.1999999999999958E-011     3.8689141488952976E-030
   7.5999999999999944E-011    -3.3562170027615556E-029
   7.9999999999999931E-011    -7.8035142450297985E-029
   8.3999999999999917E-011    -1.2751175309087137E-028
   8.7999999999999903E-011    -1.7899494199225320E-028
   9.1999999999999889E-011    -2.2854666390065769E-028
   9.6000000000000082E-011    -2.7139138292598223E-028
   1.0000000000000007E-010    -3.0211685073850983E-028
   1.0400000000000005E-010    -3.1497874053786250E-028
   1.0800000000000004E-010    -3.0430783679149336E-028
   1.1200000000000003E-010    -2.6500978998113082E-028
   1.1600000000000001E-010    -1.9313741872281540E-028
   1.2000000000000000E-010    -8.6504299010119331E-029
   1.2399999999999999E-010     5.4701899320939002E-029
   1.2799999999999997E-010     2.2735761882711731E-028
   1.3199999999999996E-010     4.2495191629367428E-028
   1.3599999999999994E-010     6.3730851493220802E-028
   1.3999999999999993E-010     8.5054449318334898E-028
   1.4399999999999992E-010     1.0473234963561982E-027
   1.4799999999999990E-010     1.2074512823153806E-027
   1.5199999999999989E-010     1.3088429234991161E-027
   1.5600000000000008E-010     1.3288684541713629E-027
   1.6000000000000007E-010     1.2460540443416950E-027
   1.6400000000000005E-010     1.0420838113494983E-027
   1.6800000000000004E-010     7.0400760965571843E-028
   1.7200000000000003E-010     2.2652718190922184E-028
   1.7600000000000001E-010    -3.8580440498258991E-028
   1.8000000000000000E-010    -1.1166627521439719E-027
   1.8399999999999998E-010    -1.9365250627902934E-027
   1.8799999999999997E-010    -2.8019568981472584E-027
   1.9199999999999996E-010    -3.6558256427111170E-027
   1.9599999999999994E-010    -4.4286273736838503E-027
   1.9999999999999993E-010    -5.0410692441391025E-027
   2.0399999999999992E-010    -5.4079808541462370E-027
   2.0799999999999990E-010    -5.4435439209413250E-027
   2.1199999999999989E-010    -5.0677260404993662E-027
   2.1600000000000008E-010    -4.2136897400303460E-027
   2.2000000000000007E-010    -2.8358232206613414E-027
   2.2400000000000005E-010    -9.1792295969474198E-028
   2.2800000000000004E-010     1.5190547102550829E-027
   2.3200000000000003E-010     4.4103452910937600E-027
   2.3600000000000001E-010     7.6425568647470713E-027
   2.4000000000000000E-010     1.1051427444037213E-026
   2.4399999999999998E-010     1.4422864108184289E-026
   2.4799999999999997E-010     1.7497874731614903E-026
   2.5199999999999996E-010     1.9981852892224051E-026
   2.5599999999999994E-010     2.1558436092882953E-026
   2.5999999999999993E-010     2.1907899933151906E-026
   2.6399999999999992E-010     2.0729679163677971E-026
   2.6799999999999990E-010     1.7768270673575004E-026
   2.7199999999999989E-010     1.2841332808312267E-026
   2.7600000000000008E-010     5.8684591482695587E-027
   2.8000000000000007E-010    -3.1013045745893554E-027
   2.8400000000000005E-010    -1.3865392130201737E-026
   2.8800000000000004E-010    -2.6049502885735815E-026
   2.9200000000000003E-010    -3.9097702910862626E-026
   2.9600000000000001E-010    -5.2273239260936499E-026
   3.0000000000000000E-010    -6.4672154375771930E-026
   3.0399999999999998E-010    -7.5251376923440436E-026
   3.0799999999999997E-010    -8.2872223165110419E-026
   3.1199999999999996E-010    -8.6359444426398122E-026
   3.1599999999999994E-010    -8.4574905473320109E-026
   3.1999999999999993E-010    -7.6503736751309547E-026
   3.2399999999999992E-010    -6.1349663295231512E-026
   3.2799999999999990E-010    -3.8634798715381354E-026
   3.3199999999999989E-010    -8.2981226177730870E-027
   3.3600000000000008E-010     2.9214304985405629E-026
   3.4000000000000007E-010     7.2875038217051113E-026
   3.4400000000000005E-010     1.2102503094888965E-025
   3.4800000000000004E-010     1.7135553999334803E-025
   3.5200000000000003E-010     2.2092979027468399E-025
   3.5600000000000001E-010     2.6625068744434292E-025
   3.6000000000000000E-010     3.0337928876518492E-025
   3.6399999999999998E-010     3.2810620779504740E-025
   3.6799999999999997E-010     3.3617494830458408E-025
   3.7199999999999996E-010     3.2355292730201501E-025
   3.7599999999999994E-010     2.8674186714742775E-025
   3.7999999999999993E-010     2.2311493498214619E-025
   3.8399999999999991E-010     1.3126401409035084E-025
   3.8799999999999990E-010     1.1336937313828888E-026
   3.9199999999999989E-010    -1.3465934538213194E-025
   3.9599999999999987E-010    -3.0261559745322112E-025
   4.0000000000000007E-010    -4.8616417835406936E-025
   4.0400000000000005E-010    -6.7663725702143121E-025
   4.0800000000000004E-010    -8.6316341806093945E-025
   4.1200000000000002E-010    -1.0329239182817855E-024
   4.1600000000000001E-010    -1.1715829856686143E-024
   4.2000000000000000E-010    -1.2638979539879059E-024
   4.2399999999999998E-010    -1.2945059543257075E-024
   4.2799999999999997E-010    -1.2488718300728692E-024
   4.3199999999999996E-010    -1.1143670028205475E-024
   4.3599999999999994E-010    -8.8143935308264724E-025
   4.3999999999999993E-010    -5.4481682482196339E-025
   4.4399999999999991E-010    -1.0467611055531377E-025
   4.4799999999999990E-010     4.3230154460648390E-025
   4.5199999999999989E-010     1.0520748972626097E-024
   4.5599999999999987E-010     1.7326789413459448E-024
   4.6000000000000007E-010     2.4440405735162340E-024
   4.6400000000000005E-010     3.1482604506963310E-024
   4.6800000000000004E-010     3.8004265521845143E-024
   4.7200000000000002E-010     4.3500121397861519E-024
   4.7600000000000001E-010     4.7428853809697515E-024
   4.8000000000000000E-010     4.9239131814998693E-024
   4.8399999999999998E-010     4.8401235315909143E-024
   4.8799999999999997E-010     4.4443291384752813E-024
   4.9199999999999996E-010     3.6990851415648445E-024
   4.9599999999999994E-010     2.5808020359955536E-024
   4.9999999999999993E-010     1.0837941067930282E-024
   5.0399999999999991E-010    -7.7598718828587066E-025
   5.0799999999999990E-010    -2.9578189757689846E-024
   5.1199999999999989E-010    -5.3939662070675771E-024
   5.1599999999999987E-010    -7.9886303041049006E-024
   5.2000000000000007E-010    -1.0618364395975182E-023
   5.2400000000000005E-010    -1.3134200383766938E-023
   5.2800000000000004E-010    -1.5365659903835572E-023
   5.3200000000000002E-010    -1.7126769786636134E-023
   5.3600000000000001E-010    -1.8224072150354941E-023
   5.4000000000000000E-010    -1.8466530127296429E-023
   5.4399999999999998E-010    -1.7677079154118312E-023
   5.4799999999999997E-010    -1.5705457005594091E-023
   5.5199999999999995E-010    -1.2441792712566394E-023
   5.5599999999999994E-010    -7.8303019761225174E-024
   5.5999999999999993E-010    -1.8823280244338601E-024
   5.6399999999999991E-010     5.3121364820776437E-024
   5.6799999999999990E-010     1.3575366900707263E-023
   5.7199999999999989E-010     2.2636201169970458E-023
   5.7599999999999987E-010     3.2128613351871017E-023
   5.8000000000000007E-010     4.1595398598404566E-023
   5.8400000000000005E-010     5.0497611872289541E-023
   5.8800000000000004E-010     5.8230241035432119E-023
   5.9200000000000002E-010     6.4144287065663352E-023
   5.9600000000000001E-010     6.7575099940454708E-023
   6.0000000000000000E-010     6.7876482671572586E-023
   6.0399999999999998E-010     6.4459642101134504E-023
   6.0799999999999997E-010     5.6835623307422755E-023
   6.1199999999999995E-010     4.4659555235336438E-023
   6.1599999999999994E-010     2.7774530295383472E-023
   6.1999999999999993E-010     6.2527225550738862E-024
   6.2399999999999991E-010    -1.9568953776011931E-023
   6.2799999999999990E-010    -4.9061471661672964E-023
   6.3199999999999989E-010    -8.1287408361142908E-023
   6.3599999999999987E-010    -1.1499843882356382E-022
   6.4000000000000006E-010    -1.4864896049911067E-022
   6.4400000000000005E-010    -1.8042779923649393E-022
   6.4800000000000004E-010    -2.0830910974400812E-022
   6.5200000000000002E-010    -2.3012304490486507E-022
   6.5600000000000001E-010    -2.4364555970264434E-022
   6.6000000000000000E-010    -2.4670570892617769E-022
   6.6399999999999978E-010    -2.3730776283767735E-022
   6.6800000000000017E-010    -2.1376401348385175E-022
   6.7200000000000016E-010    -1.7483342488860722E-022
   6.7600000000000015E-010    -1.1985965215702537E-022
   6.8000000000000013E-010    -4.8901405473116379E-023
   6.8400000000000012E-010     3.7152505581207240E-023
   6.8800000000000011E-010     1.3649184402141138E-022
   6.9200000000000009E-010     2.4632554107873358E-022
   6.9600000000000008E-010     3.6286188001424387E-022
   7.0000000000000006E-010     4.8133601474266250E-022
   7.0400000000000005E-010     5.9608985619850988E-022
   7.0800000000000004E-010     7.0070917005054671E-022
   7.1200000000000002E-010     7.8821956761595436E-022
   7.1600000000000001E-010     8.5134080937262917E-022
   7.2000000000000000E-010     8.8279598794693112E-022
   7.2399999999999998E-010     8.7566902725415551E-022
   7.2799999999999997E-010     8.2380024891084701E-022
   7.3199999999999995E-010     7.2220682878639522E-022
   7.3599999999999994E-010     5.6751244220645419E-022
   7.3999999999999993E-010     3.5836600394320828E-022
   7.4399999999999991E-010     9.5828695997248038E-023
   7.4799999999999990E-010    -2.1629404817907658E-022
   7.5199999999999988E-010    -5.7119926253309511E-022
   7.5599999999999987E-010    -9.5893547936721896E-022
   7.5999999999999986E-010    -1.3663765580895498E-021
   7.6399999999999984E-010    -1.7773399196863542E-021
   7.6799999999999983E-010    -2.1728647306316807E-021
   7.7199999999999982E-010    -2.5316621973138342E-021
   7.7599999999999980E-010    -2.8307406972819969E-021
   7.7999999999999979E-010    -3.0462054948775052E-021
   7.8399999999999977E-010    -3.1542202175269070E-021
   7.8800000000000017E-010    -3.1321117153931533E-021
   7.9200000000000016E-010    -2.9595894257649029E-021
   7.9600000000000015E-010    -2.6200408719895132E-021
   8.0000000000000013E-010    -2.1018564449228317E-021
   8.0400000000000012E-010    -1.3997300515461756E-021
   8.0800000000000010E-010    -5.1587287528776671E-022
   8.1200000000000009E-010     5.3892563761418274E-022
   8.1600000000000008E-010     1.7444572689050623E-021
   8.2000000000000006E-010     3.0705453247915563E-021
   8.2400000000000005E-010     4.4768513208436543E-021
   8.2800000000000004E-010     5.9130973776610505E-021
   8.3200000000000002E-010     7.3197575911922545E-021
   8.3600000000000001E-010     8.6292523555233208E-021
   8.3999999999999999E-010     9.7676709826593624E-021
   8.4399999999999998E-010     1.0657024234885980E-020
   8.4799999999999997E-010     1.1218002939800385E-020
   8.5199999999999995E-010     1.1373209164579182E-020
   8.5599999999999994E-010     1.1050776746745426E-020
   8.5999999999999993E-010     1.0188296363110412E-020
   8.6399999999999991E-010     8.7369263912358630E-021
   8.6799999999999990E-010     6.6655280047031339E-021
   8.7199999999999988E-010     3.9646750603795278E-021
   8.7599999999999987E-010     6.5034339261273770E-022
   8.7999999999999986E-010    -3.2329136492832915E-021
   8.8399999999999984E-010    -7.6095115280687642E-021
   8.8799999999999983E-010    -1.2371301124439578E-020
   8.9199999999999981E-010    -1.7377158276921118E-020
   8.9599999999999980E-010    -2.2453859733017417E-020
   8.9999999999999979E-010    -2.7398412623909835E-020
   9.0399999999999977E-010    -3.1981923795642730E-020
   9.0799999999999976E-010    -3.5955117846979274E-020
   9.1200000000000016E-010    -3.9055452175139110E-020
   9.1600000000000015E-010    -4.1015847608669911E-020
   9.2000000000000013E-010    -4.1574856912868100E-020
   9.2400000000000012E-010    -4.0488099915512544E-020
   9.2800000000000010E-010    -3.7540706758969788E-020
   9.3200000000000009E-010    -3.2560388000107255E-020
   9.3600000000000008E-010    -2.5430750279450785E-020
   9.4000000000000006E-010    -1.6104324415832343E-020
   9.4400000000000005E-010    -4.6148054984131792E-021
   9.4800000000000004E-010     8.9121125820995106E-021
   9.5200000000000002E-010     2.4249919258875794E-020
   9.5600000000000001E-010     4.1065113322730833E-020
   9.5999999999999999E-010     5.8914291230212826E-020
   9.6399999999999998E-010     7.7245065968785409E-020
   9.6799999999999997E-010     9.5401344372200517E-020
   9.7199999999999995E-010     1.1263338415040686E-019
   9.7599999999999994E-010     1.2811285439281209E-019
   9.7999999999999992E-010     1.4095320489086688E-019
   9.8399999999999991E-010     1.5023521826417461E-019
   9.8799999999999990E-010     1.5503747993383657E-019
   9.9199999999999988E-010     1.5447144282560595E-019
   9.9599999999999987E-010     1.4772035655746613E-019
   9.9999999999999986E-010     1.3408119515692946E-019
   1.0039999999999998E-009     1.1300842008532016E-019
   1.0079999999999998E-009     8.4158195626454660E-020
   1.0119999999999998E-009     4.7431563837207763E-020
   1.0159999999999998E-009     3.0147061905796088E-021