  -1.2000000000000000E-009     0.0000000000000000
  -1.1960000000000000E-009     0.0000000000000000
  -1.1920000000000000E-009     0.0000000000000000
  -1.1880000000000000E-009     0.0000000000000000
  -1.1840000000000000E-009     0.0000000000000000
  -1.1800000000000001E-009     0.0000000000000000
  -1.1760000000000001E-009     0.0000000000000000
  -1.1720000000000001E-009     0.0000000000000000
  -1.1679999999999999E-009     0.0000000000000000
  -1.1639999999999999E-009     0.0000000000000000
  -1.1599999999999999E-009     0.0000000000000000
  -1.1559999999999999E-009     0.0000000000000000
  -1.1520000000000000E-009     0.0000000000000000
  -1.1480000000000000E-009     0.0000000000000000
  -1.1440000000000000E-009     0.0000000000000000
  -1.1400000000000000E-009     0.0000000000000000
  -1.1360000000000000E-009     0.0000000000000000
  -1.1320000000000000E-009     0.0000000000000000
  -1.1280000000000000E-009     0.0000000000000000
  -1.1240000000000000E-009     0.0000000000000000
  -1.1200000000000001E-009     0.0000000000000000
  -1.1160000000000001E-009     0.0000000000000000
  -1.1120000000000001E-009     0.0000000000000000
  -1.1079999999999999E-009     0.0000000000000000
  -1.1039999999999999E-009     0.0000000000000000
  -1.0999999999999999E-009     0.0000000000000000
  -1.0959999999999999E-009     0.0000000000000000
  -1.0920000000000000E-009     0.0000000000000000
  -1.0880000000000000E-009     0.0000000000000000
  -1.0840000000000000E-009     0.0000000000000000
  -1.0800000000000000E-009     0.0000000000000000
  -1.0760000000000000E-009     0.0000000000000000
  -1.0720000000000000E-009     0.0000000000000000
  -1.0680000000000000E-009     0.0000000000000000
  -1.0640000000000000E-009     0.0000000000000000
  -1.0600000000000001E-009     0.0000000000000000
  -1.0560000000000001E-009     0.0000000000000000
  -1.0520000000000001E-009     0.0000000000000000
  -1.0480000000000001E-009     0.0000000000000000
  -1.0439999999999999E-009     0.0000000000000000
  -1.0399999999999999E-009     0.0000000000000000
  -1.0359999999999999E-009     0.0000000000000000
  -1.0320000000000000E-009     0.0000000000000000
  -1.0280000000000000E-009     0.0000000000000000
  -1.0240000000000000E-009     0.0000000000000000
  -1.0200000000000000E-009     0.0000000000000000
  -1.0160000000000000E-009     0.0000000000000000
  -1.0120000000000000E-009     0.0000000000000000
  -1.0080000000000000E-009     0.0000000000000000
  -1.0040000000000000E-009     0.0000000000000000
  -1.0000000000000001E-009     0.0000000000000000
  -9.9600000000000008E-010     0.0000000000000000
  -9.9199999999999988E-010     0.0000000000000000
  -9.8799999999999990E-010     0.0000000000000000
  -9.8399999999999991E-010     0.0000000000000000
  -9.7999999999999992E-010     0.0000000000000000
  -9.7599999999999994E-010     0.0000000000000000
  -9.7199999999999995E-010     0.0000000000000000
  -9.6799999999999997E-010     0.0000000000000000
  -9.6399999999999998E-010     0.0000000000000000
  -9.5999999999999999E-010     0.0000000000000000
  -9.5600000000000001E-010     0.0000000000000000
  -9.5200000000000002E-010     0.0000000000000000
  -9.4800000000000004E-010     0.0000000000000000
  -9.4400000000000005E-010     0.0000000000000000
  -9.4000000000000006E-010     0.0000000000000000
  -9.3600000000000008E-010     0.0000000000000000
  -9.3200000000000009E-010     0.0000000000000000
  -9.2800000000000000E-010     0.0000000000000000
  -9.2400000000000001E-010     0.0000000000000000
  -9.1999999999999992E-010     0.0000000000000000
  -9.1599999999999994E-010     0.0000000000000000
  -9.1199999999999995E-010     0.0000000000000000
  -9.0799999999999997E-010     0.0000000000000000
  -9.0399999999999998E-010     0.0000000000000000
  -8.9999999999999999E-010     0.0000000000000000
  -8.9600000000000001E-010     0.0000000000000000
  -8.9200000000000002E-010     0.0000000000000000
  -8.8800000000000004E-010     0.0000000000000000
  -8.8400000000000005E-010     0.0000000000000000
  -8.8000000000000006E-010     0.0000000000000000
  -8.7599999999999997E-010     0.0000000000000000
  -8.7199999999999999E-010     0.0000000000000000
  -8.6800000000000000E-010     0.0000000000000000
  -8.6400000000000001E-010     0.0000000000000000
  -8.5999999999999993E-010     0.0000000000000000
  -8.5599999999999994E-010     0.0000000000000000
  -8.5199999999999995E-010     0.0000000000000000
  -8.4799999999999997E-010     0.0000000000000000
  -8.4399999999999998E-010     0.0000000000000000
  -8.3999999999999999E-010     0.0000000000000000
  -8.3600000000000001E-010     0.0000000000000000
  -8.3200000000000002E-010     0.0000000000000000
  -8.2800000000000004E-010     0.0000000000000000
  -8.2400000000000005E-010     0.0000000000000000
  -8.2000000000000006E-010     0.0000000000000000
  -8.1599999999999997E-010     0.0000000000000000
  -8.1199999999999999E-010     0.0000000000000000
  -8.0800000000000000E-010     0.0000000000000000
  -8.0400000000000002E-010     0.0000000000000000
  -7.9999999999999993E-010     0.0000000000000000
  -7.9599999999999994E-010     0.0000000000000000
  -7.9199999999999995E-010     0.0000000000000000
  -7.8799999999999997E-010     0.0000000000000000
  -7.8399999999999998E-010     0.0000000000000000
  -7.7999999999999999E-010     0.0000000000000000
  -7.7600000000000001E-010     0.0000000000000000
  -7.7200000000000002E-010     0.0000000000000000
  -7.6800000000000004E-010     0.0000000000000000
  -7.6400000000000005E-010     0.0000000000000000
  -7.6000000000000006E-010     0.0000000000000000
  -7.5600000000000008E-010     0.0000000000000000
  -7.5199999999999999E-010     0.0000000000000000
  -7.4800000000000000E-010     0.0000000000000000
  -7.4400000000000002E-010     0.0000000000000000
  -7.3999999999999993E-010     0.0000000000000000
  -7.3599999999999994E-010     0.0000000000000000
  -7.3199999999999995E-010     0.0000000000000000
  -7.2799999999999997E-010     0.0000000000000000
  -7.2399999999999998E-010     0.0000000000000000
  -7.2000000000000000E-010     0.0000000000000000
  -7.1600000000000001E-010     0.0000000000000000
  -7.1200000000000002E-010     0.0000000000000000
  -7.0800000000000004E-010     0.0000000000000000
  -7.0400000000000005E-010     0.0000000000000000
  -6.9999999999999996E-010     0.0000000000000000
  -6.9599999999999997E-010     0.0000000000000000
  -6.9199999999999999E-010     0.0000000000000000
  -6.8800000000000000E-010     0.0000000000000000
  -6.8400000000000002E-010     0.0000000000000000
  -6.8000000000000003E-010     0.0000000000000000
  -6.7600000000000004E-010     0.0000000000000000
  -6.7199999999999995E-010     0.0000000000000000
  -6.6799999999999997E-010     0.0000000000000000
  -6.6399999999999998E-010     0.0000000000000000
  -6.6000000000000000E-010     0.0000000000000000
  -6.5600000000000001E-010     0.0000000000000000
  -6.5200000000000002E-010     0.0000000000000000
  -6.4800000000000004E-010     0.0000000000000000
  -6.4400000000000005E-010     0.0000000000000000
  -6.3999999999999996E-010     0.0000000000000000
  -6.3599999999999998E-010     0.0000000000000000
  -6.3199999999999999E-010     0.0000000000000000
  -6.2800000000000000E-010     0.0000000000000000
  -6.2400000000000002E-010     0.0000000000000000
  -6.2000000000000003E-010     0.0000000000000000
  -6.1600000000000004E-010     0.0000000000000000
  -6.1199999999999995E-010     0.0000000000000000
  -6.0799999999999997E-010     0.0000000000000000
  -6.0399999999999998E-010     0.0000000000000000
  -6.0000000000000000E-010     0.0000000000000000
  -5.9600000000000001E-010     0.0000000000000000
  -5.9200000000000002E-010     0.0000000000000000
  -5.8800000000000004E-010     0.0000000000000000
  -5.8400000000000005E-010     0.0000000000000000
  -5.7999999999999996E-010     0.0000000000000000
  -5.7599999999999998E-010     0.0000000000000000
  -5.7199999999999999E-010     0.0000000000000000
  -5.6800000000000000E-010     0.0000000000000000
  -5.6400000000000002E-010     0.0000000000000000
  -5.6000000000000003E-010     0.0000000000000000
  -5.5600000000000004E-010     0.0000000000000000
  -5.5199999999999995E-010     0.0000000000000000
  -5.4799999999999997E-010     0.0000000000000000
  -5.4399999999999998E-010     0.0000000000000000
  -5.4000000000000000E-010     0.0000000000000000
  -5.3600000000000001E-010     0.0000000000000000
  -5.3200000000000002E-010     0.0000000000000000
  -5.2800000000000004E-010     0.0000000000000000
  -5.2400000000000005E-010     0.0000000000000000
  -5.1999999999999996E-010     0.0000000000000000
  -5.1599999999999998E-010     0.0000000000000000
  -5.1199999999999999E-010     0.0000000000000000
  -5.0800000000000000E-010     0.0000000000000000
  -5.0400000000000002E-010     0.0000000000000000
  -5.0000000000000003E-010     0.0000000000000000
  -4.9600000000000004E-010     0.0000000000000000
  -4.9199999999999996E-010     0.0000000000000000
  -4.8799999999999997E-010     0.0000000000000000
  -4.8399999999999998E-010     0.0000000000000000
  -4.8000000000000000E-010     0.0000000000000000
  -4.7600000000000001E-010     0.0000000000000000
  -4.7200000000000002E-010     0.0000000000000000
  -4.6800000000000004E-010     0.0000000000000000
  -4.6400000000000005E-010     0.0000000000000000
  -4.5999999999999996E-010     0.0000000000000000
  -4.5599999999999998E-010     0.0000000000000000
  -4.5199999999999999E-010     0.0000000000000000
  -4.4800000000000000E-010     0.0000000000000000
  -4.4400000000000002E-010     0.0000000000000000
  -4.4000000000000003E-010     0.0000000000000000
  -4.3600000000000005E-010     0.0000000000000000
  -4.3199999999999996E-010     0.0000000000000000
  -4.2799999999999997E-010     0.0000000000000000
  -4.2399999999999998E-010     0.0000000000000000
  -4.2000000000000000E-010     0.0000000000000000
  -4.1600000000000001E-010     0.0000000000000000
  -4.1200000000000002E-010     0.0000000000000000
  -4.0800000000000004E-010     0.0000000000000000
  -4.0400000000000005E-010     0.0000000000000000
  -3.9999999999999996E-010     0.0000000000000000
  -3.9599999999999998E-010     0.0000000000000000
  -3.9199999999999999E-010     0.0000000000000000
  -3.8800000000000000E-010     0.0000000000000000
  -3.8400000000000002E-010     0.0000000000000000
  -3.8000000000000003E-010     0.0000000000000000
  -3.7600000000000005E-010     0.0000000000000000
  -3.7200000000000006E-010     0.0000000000000000
  -3.6799999999999997E-010     0.0000000000000000
  -3.6399999999999998E-010     0.0000000000000000
  -3.6000000000000000E-010     0.0000000000000000
  -3.5600000000000001E-010     0.0000000000000000
  -3.5200000000000003E-010     0.0000000000000000
  -3.4800000000000004E-010     0.0000000000000000
  -3.4400000000000005E-010     0.0000000000000000
  -3.3999999999999996E-010     0.0000000000000000
  -3.3599999999999998E-010     0.0000000000000000
  -3.3199999999999999E-010     0.0000000000000000
  -3.2800000000000000E-010     0.0000000000000000
  -3.2400000000000002E-010     0.0000000000000000
  -3.2000000000000003E-010     0.0000000000000000
  -3.1600000000000005E-010     0.0000000000000000
  -3.1200000000000006E-010     0.0000000000000000
  -3.0799999999999997E-010     0.0000000000000000
  -3.0399999999999998E-010     0.0000000000000000
  -3.0000000000000000E-010     0.0000000000000000
  -2.9600000000000001E-010     0.0000000000000000
  -2.9200000000000003E-010     0.0000000000000000
  -2.8800000000000004E-010     0.0000000000000000
  -2.8400000000000005E-010     0.0000000000000000
  -2.7999999999999996E-010     0.0000000000000000
  -2.7599999999999998E-010     0.0000000000000000
  -2.7199999999999999E-010     0.0000000000000000
  -2.6800000000000011E-010     0.0000000000000000
  -2.6399999999999992E-010     0.0000000000000000
  -2.5999999999999993E-010     0.0000000000000000
  -2.5599999999999994E-010     0.0000000000000000
  -2.5199999999999996E-010     0.0000000000000000
  -2.4799999999999997E-010     0.0000000000000000
  -2.4399999999999998E-010     0.0000000000000000
  -2.4000000000000000E-010     0.0000000000000000
  -2.3600000000000001E-010     0.0000000000000000
  -2.3200000000000003E-010     0.0000000000000000
  -2.2800000000000004E-010     0.0000000000000000
  -2.2400000000000005E-010     0.0000000000000000
  -2.2000000000000007E-010     0.0000000000000000
  -2.1600000000000008E-010     0.0000000000000000
  -2.1200000000000010E-010     0.0000000000000000
  -2.0800000000000011E-010     0.0000000000000000
  -2.0399999999999992E-010     0.0000000000000000
  -1.9999999999999993E-010     0.0000000000000000
  -1.9599999999999994E-010     0.0000000000000000
  -1.9199999999999996E-010     1.4012984643248171E-045
  -1.8799999999999997E-010     2.8025969286496341E-045
  -1.8399999999999998E-010     4.2038953929744512E-045
  -1.8000000000000000E-010     2.8025969286496341E-045
  -1.7600000000000001E-010    -1.4012984643248171E-045
  -1.7200000000000003E-010    -8.4077907859489024E-045
  -1.6800000000000004E-010    -1.6815581571897805E-044
  -1.6400000000000005E-010    -2.3822073893521890E-044
  -1.6000000000000007E-010    -2.2420775429197073E-044
  -1.5600000000000008E-010    -1.1210387714598537E-044
  -1.5200000000000010E-010     1.1210387714598537E-044
  -1.4800000000000011E-010     4.2038953929744512E-044
  -1.4399999999999992E-010     7.5670117073540122E-044
  -1.3999999999999993E-010     9.9492190967062012E-044
  -1.3599999999999994E-010     1.0089348943138683E-043
  -1.3199999999999996E-010     6.8663624751916036E-044
  -1.2799999999999997E-010    -2.8025969286496341E-045
  -1.2399999999999999E-010    -1.1350517561031018E-043
  -1.2000000000000000E-010    -2.4662852972116780E-043
  -1.1600000000000001E-010    -3.7414668997472616E-043
  -1.1200000000000003E-010    -4.4841550858394146E-043
  -1.0800000000000004E-010    -4.1898824083312030E-043
  -1.0400000000000005E-010    -2.3541814200656927E-043
  -1.0000000000000007E-010     1.3032075718220799E-043
  -9.6000000000000082E-011     6.5861027823266402E-043
  -9.2000000000000096E-011     1.2681751102139594E-042
  -8.8000000000000110E-011     1.8048724220503644E-042
  -8.3999999999999917E-011     2.0557048471645066E-042
  -7.9999999999999931E-011     1.7838529450854921E-042
  -7.5999999999999944E-011     7.8893103541487201E-043
  -7.1999999999999958E-011    -1.0103361927781931E-042
  -6.7999999999999972E-011    -3.4780227884541960E-042
  -6.3999999999999986E-011    -6.1979431077086659E-042
  -6.0000000000000000E-011    -8.4512310383429718E-042
  -5.6000000000000013E-011    -9.2807997292232635E-042
  -5.2000000000000027E-011    -7.6637013013924246E-042
  -4.8000000000000041E-011    -2.7871826455420612E-042
  -4.4000000000000055E-011     5.5869769772630457E-042
  -4.0000000000000069E-011     1.6753924439467513E-041
  -3.6000000000000082E-011     2.8793880844946341E-041
  -3.2000000000000096E-011     3.8513286993503272E-041
  -2.8000000000000110E-011     4.1750286446093600E-041
  -2.3999999999999917E-011     3.4113209815523347E-041
  -1.9999999999999931E-011     1.2170277162661036E-041
  -1.5999999999999945E-011    -2.5049611348270430E-041
  -1.1999999999999959E-011    -7.4511243243543498E-041
  -7.9999999999999724E-012    -1.2801421990992934E-040
  -3.9999999999999862E-012    -1.7194913066190533E-040
   0.0000000000000000         -1.8850407071943872E-040
   3.9999999999999862E-012    -1.5866201862317741E-040
   7.9999999999999724E-012    -6.7070348397978719E-041
   1.1999999999999959E-011     9.1724793579309551E-041
   1.5999999999999945E-011     3.0673722734838083E-040
   1.9999999999999931E-011     5.4539797400139773E-040
   2.3999999999999917E-011     7.5192694686744657E-040
   2.7999999999999903E-011     8.5139111186522208E-040
   3.1999999999999889E-011     7.6110124791338114E-040
   3.6000000000000082E-011     4.0978311122097058E-040
   4.0000000000000069E-011    -2.3699880667432766E-040
   4.4000000000000055E-011    -1.1490619381494213E-039
   4.8000000000000041E-011    -2.2079250967471829E-039
   5.2000000000000027E-011    -3.1956163063418869E-039
   5.6000000000000013E-011    -3.8050073773136061E-039
   6.0000000000000000E-011    -3.6792520505281684E-039
   6.3999999999999986E-011    -2.4837258578986647E-039
   6.7999999999999972E-011    -6.8691650721202533E-042
   7.1999999999999958E-011     3.7230300158521400E-039
   7.5999999999999944E-011     8.3283721954832934E-039
   7.9999999999999931E-011     1.3012358047529284E-038
   8.3999999999999917E-011     1.6565812732318085E-038
   8.7999999999999903E-011     1.7485299943057172E-038
   9.1999999999999889E-011     1.4224537271108824E-038
   9.6000000000000082E-011     5.5770277581663395E-039
   1.0000000000000007E-010    -8.8466970831539357E-039
   1.0400000000000005E-010    -2.8125136376219680E-038
   1.0800000000000004E-010    -4.9633369429866860E-038
   1.1200000000000003E-010    -6.8899513730206619E-038
   1.1600000000000001E-010    -7.9862846920350833E-038
   1.2000000000000000E-010    -7.5656210587580162E-038
   1.2399999999999999E-010    -4.9960611857643706E-038
   1.2799999999999997E-010     1.1402029292579599E-039
   1.3199999999999996E-010     7.7034723938875058E-038
   1.3599999999999994E-010     1.7058948999832796E-037
   1.3999999999999993E-010     2.6683850458916890E-037
   1.4399999999999992E-010     3.4299456954936144E-037
   1.4799999999999990E-010     3.7038881106736472E-037
   1.5199999999999989E-010     3.1875372041237301E-037
   1.5600000000000008E-010     1.6288659718148530E-037
   1.6000000000000007E-010    -1.0882591493668590E-037
   1.6400000000000005E-010    -4.8522217099332511E-037
   1.6800000000000004E-010    -9.2441888450249276E-037
   1.7200000000000003E-010    -1.3495665607615221E-036
   1.7600000000000001E-010    -1.6510024069700570E-036
   1.8000000000000000E-010    -1.6971994282277987E-036
   1.8399999999999998E-010    -1.3559216847153771E-036
   1.8799999999999997E-010    -5.2524074400759382E-037
   1.9199999999999996E-010     8.2838021041634083E-037
   1.9599999999999994E-010     2.6306146937128076E-036
   1.9999999999999993E-010     4.6669450313641313E-036
   2.0399999999999992E-010     6.5681607809971796E-036
   2.0799999999999990E-010     7.8250242512747022E-036
   2.1199999999999989E-010     7.8418229724234773E-036
   2.1600000000000008E-010     6.0339938778757138E-036
   2.2000000000000007E-010     1.9673254686973753E-036
   2.2400000000000005E-010    -4.4742110235210571E-036
   2.2800000000000004E-010    -1.2917090143650450E-035
   2.3200000000000003E-010    -2.2360198440043858E-035
   2.3600000000000001E-010    -3.1115797513605995E-035
   2.4000000000000000E-010    -3.6877611069884208E-035
   2.4399999999999998E-010    -3.6957160698571813E-035
   2.4799999999999997E-010    -2.8710473766687694E-035
   2.5199999999999996E-010    -1.0145219363113801E-035
   2.5599999999999994E-010     1.9345230491599242E-035
   2.5999999999999993E-010     5.8225196890978995E-035
   2.6399999999999992E-010     1.0219186541578702E-034
   2.6799999999999990E-010     1.4387512468468573E-034
   2.7199999999999989E-010     1.7306865316116446E-034
   2.7600000000000008E-010     1.7767428364954685E-034
   2.8000000000000007E-010     1.4546875752895237E-034
   2.8400000000000005E-010     6.6674573372461566E-035
   2.8800000000000004E-010    -6.2860341011939167E-035
   2.9200000000000003E-010    -2.3828131448944249E-034
   2.9600000000000001E-010    -4.4276698272175190E-034
   3.0000000000000000E-010    -6.4579134158032131E-034
   3.0399999999999998E-010    -8.0349750039656256E-034
   3.0799999999999997E-010    -8.6201379285148835E-034
   3.1199999999999996E-010    -7.6429237607373917E-034
   3.1599999999999994E-010    -4.6057338033155752E-034
   3.1999999999999993E-010     7.8113792184611777E-035
   3.2399999999999992E-010     8.4487003426421071E-034
   3.2799999999999990E-010     1.7826544480952767E-033
   3.3199999999999989E-010     2.7740511388864318E-033
   3.3600000000000008E-010     3.6388555369596730E-033
   3.4000000000000007E-010     4.1432840401265176E-033
   3.4400000000000005E-010     4.0238927523333442E-033
   3.4800000000000004E-010     3.0276798407816795E-033
   3.5200000000000003E-010     9.6726608765617744E-034
   3.5600000000000001E-010    -2.2133647617861787E-033
   3.6000000000000000E-010    -6.3710177509835602E-033
   3.6399999999999998E-010    -1.1105715039527849E-032
   3.6799999999999997E-010    -1.5728904933953135E-032
   3.7199999999999996E-010    -1.9274417770591872E-032
   3.7599999999999994E-010    -2.0567933223604655E-032
   3.7999999999999993E-010    -1.8366031001106933E-032
   3.8399999999999991E-010    -1.1567241304967541E-032
   3.8799999999999990E-010     5.1512049672478685E-034
   3.9199999999999989E-010     1.7844421545976866E-032
   3.9599999999999987E-010     3.9359870807269458E-032
   4.0000000000000007E-010     6.2743098307414106E-032
   4.0400000000000005E-010     8.4323652323326990E-032
   4.0800000000000004E-010     9.9198322573801692E-032
   4.1200000000000002E-010     1.0163015002195232E-031
   4.1600000000000001E-010     8.5768434797507401E-032
   4.2000000000000000E-010     4.6689207389025011E-032
   4.2399999999999998E-010    -1.8303071523676891E-032
   4.2799999999999997E-010    -1.0824250557936732E-031
   4.3199999999999996E-010    -2.1714392276214457E-031
   4.3599999999999994E-010    -3.3299542678427158E-031
   4.3999999999999993E-010    -4.3742491080821559E-031
   4.4399999999999991E-010    -5.0637324983705267E-031
   4.4799999999999990E-010    -5.1206268951480658E-031
   4.5199999999999989E-010    -4.2643464988508963E-031
   4.5599999999999987E-010    -2.2604436631849165E-031
   4.6000000000000007E-010     1.0185975933349843E-031
   4.6400000000000005E-010     5.5265725844587749E-031
   4.6800000000000004E-010     1.0979979579335929E-030
   4.7200000000000002E-010     1.6809932209414245E-030
   4.7600000000000001E-010     2.2144030289264859E-030
   4.8000000000000000E-010     2.5833237494913792E-030
   4.8399999999999998E-010     2.6537121631395216E-030
   4.8799999999999997E-010     2.2876154502030439E-030
   4.9199999999999996E-010     1.3651935602879308E-030
   4.9599999999999994E-010    -1.8747644368778643E-031
   4.9999999999999993E-010    -2.3671817475842145E-030
   5.0399999999999991E-010    -5.0627932313644457E-030
   5.0799999999999990E-010    -8.0301889772468847E-030
   5.1199999999999989E-010    -1.0879254759798149E-029
   5.1599999999999987E-010    -1.3079820809622236E-029
   5.2000000000000007E-010    -1.3992976418629139E-029
   5.2400000000000005E-010    -1.2932559391249527E-029
   5.2800000000000004E-010    -9.2586464015398212E-030
   5.3200000000000002E-010    -2.5004416176454090E-030
   5.3600000000000001E-010     7.4997118866078028E-030
   5.4000000000000000E-010     2.0435926783169743E-029
   5.4399999999999998E-010     3.5403322943263296E-029
   5.4799999999999997E-010     5.0804635633725601E-029
   5.5199999999999995E-010     6.4329683298241556E-029
   5.5599999999999994E-010     7.3038804710602475E-029
   5.5999999999999993E-010     7.3577084074465479E-029
   5.6399999999999991E-010     6.2536233259903857E-029
   5.6799999999999990E-010     3.6964764627144171E-029
   5.7199999999999989E-010    -4.9951614930283036E-030
   5.7599999999999987E-010    -6.3392838750918690E-029
   5.8000000000000007E-010    -1.3575484158640811E-028
   5.8400000000000005E-010    -2.1647897946212171E-028
   5.8800000000000004E-010    -2.9646792969275193E-028
   5.9200000000000002E-010    -3.6314692252246780E-028
   5.9600000000000001E-010    -4.0100675707273486E-028
   6.0000000000000000E-010    -3.9278840473992135E-028
   6.0399999999999998E-010    -3.2137521129153430E-028
   6.0799999999999997E-010    -1.7237967355983686E-028
   6.1199999999999995E-010     6.2691734047319898E-029
   6.1599999999999994E-010     3.8293835640997435E-028
   6.1999999999999993E-010     7.7460704955435326E-028
   6.2399999999999991E-010     1.2081851579206894E-027
   6.2799999999999990E-010     1.6366583482281840E-027
   6.3199999999999989E-010     1.9956070082872550E-027
   6.3599999999999987E-010     2.2057979949998225E-027
   6.4000000000000006E-010     2.1788222646407683E-027
   6.4400000000000005E-010     1.8261020620218456E-027
   6.4800000000000004E-010     1.0712469166428904E-027
   6.5200000000000002E-010    -1.3472498665983349E-028
   6.5600000000000001E-010    -1.7963423999281796E-027
   6.6000000000000000E-010    -3.8564732613632569E-027
   6.6399999999999978E-010    -6.1812139934265130E-027
   6.6800000000000017E-010    -8.5496583129737931E-027
   6.7200000000000016E-010    -1.0651649839529110E-026
   6.7600000000000015E-010    -1.2096662750851209E-026
   6.8000000000000013E-010    -1.2436591697151490E-026
   6.8400000000000012E-010    -1.1204384029848469E-026
   6.8800000000000011E-010    -7.9690751756585945E-027
   6.9200000000000009E-010    -2.4058545457520300E-027
   6.9600000000000008E-010     5.6225853019193623E-027
   7.0000000000000006E-010     1.5979909134743371E-026
   7.0400000000000005E-010     2.8174521601078204E-026
   7.0800000000000004E-010     4.1294400116503241E-026
   7.1200000000000002E-010     5.3972316228290296E-026
   7.1600000000000001E-010     6.4396330392856568E-026
   7.2000000000000000E-010     7.0379920477643629E-026
   7.2399999999999998E-010     6.9503576130628771E-026
   7.2799999999999997E-010     5.9334949521151980E-026
   7.3199999999999995E-010     3.7727596348425547E-026
   7.3599999999999994E-010     3.1886476160902554E-027
   7.3999999999999993E-010    -4.4705585663586536E-026
   7.4399999999999991E-010    -1.0487977225432888E-025
   7.4799999999999990E-010    -1.7436230798550121E-025
   7.5199999999999988E-010    -2.4797857346764479E-025
   7.5599999999999987E-010    -3.1820193587048116E-025
   7.5999999999999986E-010    -3.7523275827295065E-025
   7.6399999999999984E-010    -4.0737225810252894E-025
   7.6799999999999983E-010    -4.0174676772788146E-025
   7.7199999999999982E-010    -3.4541490073934108E-025
   7.7599999999999980E-010    -2.2685743902793440E-025
   7.7999999999999979E-010    -3.7807246647949581E-026
   7.8399999999999977E-010     2.2467729865683970E-025
   7.8800000000000017E-010     5.5604842917527385E-025
   7.9200000000000016E-010     9.4222779114762058E-025
   7.9600000000000015E-010     1.3579557132620571E-024
   8.0000000000000013E-010     1.7658402872187205E-024
   8.0400000000000012E-010     2.1164398529981102E-024
   8.0800000000000010E-010     2.3497018811522110E-024
   8.1200000000000009E-010     2.3980434746393809E-024
   8.1600000000000008E-010     2.1912650847953599E-024
   8.2000000000000006E-010     1.6633605503128167E-024
   8.2400000000000005E-010     7.6110197465002908E-025
   8.2800000000000004E-010    -5.4594405775171764E-025
   8.3200000000000002E-010    -2.2545699891479883E-024
   8.3600000000000001E-010    -4.3171229509256775E-024
   8.3999999999999999E-010    -6.6318794772679555E-024
   8.4399999999999998E-010    -9.0359670069479135E-024
   8.4799999999999997E-010    -1.1302350977012492E-023
   8.5199999999999995E-010    -1.3142476323523612E-023
   8.5599999999999994E-010    -1.4216043440326128E-023
   8.5999999999999993E-010    -1.4149160657337870E-023
   8.6399999999999991E-010    -1.2561637250148475E-023
   8.6799999999999990E-010    -9.1035218994274200E-024
   8.7199999999999988E-010    -3.5001253493676952E-024
   8.7599999999999987E-010     4.3962902703604900E-024
   8.7999999999999986E-010     1.4551164174638498E-023
   8.8399999999999984E-010     2.6692875776580630E-023
   8.8799999999999983E-010     4.0263984406121509E-023
   8.9199999999999981E-010     5.4384960641037643E-023
   8.9599999999999980E-010     6.7837550808178118E-023
   8.9999999999999979E-010     7.9075253056285937E-023
   9.0399999999999977E-010     8.6267929017910079E-023
   9.0799999999999976E-010     8.7386577957724166E-023
   9.1200000000000016E-010     8.0332324996860966E-023
   9.1600000000000015E-010     6.3110740440304508E-023
   9.2000000000000013E-010     3.4048991095992081E-023
   9.2400000000000012E-010    -7.9512911508780744E-024
   9.2800000000000010E-010    -6.3137694239714099E-023
   9.3200000000000009E-010    -1.3062515488904237E-022
   9.3600000000000008E-010    -2.0813157186412270E-022
   9.4000000000000006E-010    -2.9175941062419875E-022
   9.4400000000000005E-010    -3.7585508807728156E-022
   9.4800000000000004E-010    -4.5298044105892944E-022
   9.5200000000000002E-010    -5.1403009621317043E-022
   9.5600000000000001E-010    -5.4852646610573145E-022
   9.5999999999999999E-010    -5.4511591117898617E-022
   9.6399999999999998E-010    -4.9228096124251194E-022
   9.6799999999999997E-010    -3.7926927807507810E-022
   9.7199999999999995E-010    -1.9722151194894575E-022
   9.7599999999999994E-010     5.9539813246971416E-023
   9.7999999999999992E-010     3.9212137469938986E-022
   9.8399999999999991E-010     7.9565561032228281E-022
   9.8799999999999990E-010     1.2579916640380948E-021
   9.9199999999999988E-010     1.7586102160947452E-021
   9.9599999999999987E-010     2.2679075002862751E-021
   9.9999999999999986E-010     2.7470038063903831E-021
   1.0039999999999998E-009     3.1482278028989075E-021
   1.0079999999999998E-009     3.4164187002477440E-021
   1.0119999999999998E-009     3.4911569727519676E-021
   1.0159999999999998E-009     3.3099957348220098E-021
   1.0199999999999998E-009     2.8127048883643948E-021
   1.0239999999999998E-009     1.9464700821786053E-021
   1.0279999999999998E-009     6.7190007076607123E-022
   1.0320000000000002E-009    -1.0304008752607637E-021
   1.0360000000000001E-009    -3.1530331648802794E-021
   1.0400000000000001E-009    -5.6552161476587582E-021
   1.0440000000000001E-009    -8.4569540266615063E-021
   1.0480000000000001E-009    -1.1434549776878818E-020
   1.0520000000000001E-009    -1.4418131277427202E-020
   1.0560000000000001E-009    -1.7191850432663633E-020
   1.0600000000000001E-009    -1.9497403132653524E-020
   1.0640000000000000E-009    -2.1041406831817641E-020
   1.0680000000000000E-009    -2.1507065895832381E-020