  -1.2000000000000000E-009     0.0000000000000000
  -1.1960000000000000E-009     0.0000000000000000
  -1.1920000000000000E-009     0.0000000000000000
  -1.1880000000000000E-009     0.0000000000000000
  -1.1840000000000000E-009     0.0000000000000000
  -1.1800000000000001E-009     0.0000000000000000
  -1.1760000000000001E-009     0.0000000000000000
  -1.1720000000000001E-009    -1.8105340149557135E-032
  -1.1679999999999999E-009    -2.5761193797140595E-031
  -1.1639999999999999E-009    -1.9397981446195930E-030
  -1.1599999999999999E-009    -1.0264544565165584E-029
  -1.1559999999999999E-009    -4.2782634868007900E-029
  -1.1520000000000000E-009    -1.4931968377839997E-028
  -1.1480000000000000E-009    -4.5319327151568261E-028
  -1.1440000000000000E-009    -1.2267672040996180E-027
  -1.1400000000000000E-009    -3.0153959657110350E-027
  -1.1360000000000000E-009    -6.8196254884378716E-027
  -1.1320000000000000E-009    -1.4332896987134161E-026
  -1.1280000000000000E-009    -2.8208171449066538E-026
  -1.1240000000000000E-009    -5.2291167357602811E-026
  -1.1200000000000001E-009    -9.1712956515043188E-026
  -1.1160000000000001E-009    -1.5268816972527925E-025
  -1.1120000000000001E-009    -2.4182920549622070E-025
  -1.1079999999999999E-009    -3.6478047453828868E-025
  -1.1039999999999999E-009    -5.2401589395406287E-025
  -1.0999999999999999E-009    -7.1574952304416131E-025
  -1.0959999999999999E-009    -9.2608641512782769E-025
  -1.0920000000000000E-009    -1.1267915620777784E-024
  -1.0880000000000000E-009    -1.2713458856169369E-024
  -1.0840000000000000E-009    -1.2922594756828643E-024
  -1.0800000000000000E-009    -1.1008422784233727E-024
  -1.0760000000000000E-009    -5.9073045235428275E-025
  -1.0720000000000000E-009     3.5365282726114438E-025
  -1.0680000000000000E-009     1.8429222528505812E-024
  -1.0640000000000000E-009     3.9627524328041050E-024
  -1.0600000000000001E-009     6.7489811454825833E-024
  -1.0560000000000001E-009     1.0159813751266502E-023
  -1.0520000000000001E-009     1.4048301635161743E-023
  -1.0480000000000001E-009     1.8139211227336696E-023
  -1.0439999999999999E-009     2.2014892743296579E-023
  -1.0399999999999999E-009     2.5114590719452278E-023
  -1.0359999999999999E-009     2.6750579374075736E-023
  -1.0320000000000000E-009     2.6142672116459751E-023
  -1.0280000000000000E-009     2.2470074951939965E-023
  -1.0240000000000000E-009     1.4936606346094915E-023
  -1.0200000000000000E-009     2.8425847385322411E-024
  -1.0160000000000000E-009    -1.4345115283916580E-023
  -1.0120000000000000E-009    -3.6933609301782892E-023
  -1.0080000000000000E-009    -6.4961919305819585E-023
  -1.0040000000000000E-009    -9.8178535929058663E-023
  -1.0000000000000001E-009    -1.3603391342137420E-022
  -9.9600000000000008E-010    -1.7767452321597880E-022
  -9.9199999999999988E-010    -2.2191654384051261E-022
  -9.8799999999999990E-010    -2.6716977054956942E-022
  -9.8399999999999991E-010    -3.1128017130978892E-022
  -9.7999999999999992E-010    -3.5126345376228383E-022
  -9.7599999999999994E-010    -3.8291633981209588E-022
  -9.7199999999999995E-010    -4.0031651616670714E-022
  -9.6799999999999997E-010    -3.9525816333758724E-022
  -9.6399999999999998E-010    -3.5671479816172311E-022
  -9.5999999999999999E-010    -2.7046930434795751E-022
  -9.5600000000000001E-010    -1.1909791544516948E-022
  -9.5200000000000002E-010     1.1747151145054445E-022
  -9.4800000000000004E-010     4.6059470322096542E-022
  -9.4400000000000005E-010     9.3053133709527325E-022
  -9.4000000000000006E-010     1.5429077252421630E-021
  -9.3600000000000008E-010     2.3039976973735192E-021
  -9.3200000000000009E-010     3.2049629821249903E-021
  -9.2800000000000000E-010     4.2154125679725304E-021
  -9.2400000000000001E-010     5.2768791643341320E-021
  -9.1999999999999992E-010     6.2970691250119108E-021
  -9.1599999999999994E-010     7.1459535351216521E-021
  -9.1199999999999995E-010     7.6549491084159275E-021
  -9.0799999999999997E-010     7.6204660166301232E-021
  -9.0399999999999998E-010     6.8130246476789957E-021
  -8.9999999999999999E-010     4.9928621773700750E-021
  -8.9600000000000001E-010     1.9324734430441265E-021
  -8.9200000000000002E-010    -2.5541329948623633E-021
  -8.8800000000000004E-010    -8.5765381707251050E-021
  -8.8400000000000005E-010    -1.6129411252847428E-020
  -8.8000000000000006E-010    -2.5053428288743027E-020
  -8.7599999999999997E-010    -3.4999627304252494E-020
  -8.7199999999999999E-010    -4.5401911414421252E-020
  -8.6800000000000000E-010    -5.5462841350244104E-020
  -8.6400000000000001E-010    -6.4157924842505715E-020
  -8.5999999999999993E-010    -7.0262989514590156E-020
  -8.5599999999999994E-010    -7.2408036864002082E-020
  -8.5199999999999995E-010    -6.9159259158805923E-020
  -8.4799999999999997E-010    -5.9128556858258202E-020
  -8.4399999999999998E-010    -4.1107041040029614E-020
  -8.3999999999999999E-010    -1.4216037482848572E-020
  -8.3600000000000001E-010     2.1933837777534325E-020
  -8.3200000000000002E-010     6.7087759798077326E-020
  -8.2800000000000004E-010     1.2021006129335996E-019
  -8.2400000000000005E-010     1.7938117271672489E-019
  -8.2000000000000006E-010     2.4174324967528677E-019
  -8.1599999999999997E-010     3.0350810223158537E-019
  -8.1199999999999999E-010     3.6003798718497727E-019
  -8.0800000000000000E-010     4.0600575799304442E-019
  -8.0400000000000002E-010     4.3563513489014659E-019
  -7.9999999999999993E-010     4.4301586070080411E-019
  -7.9599999999999994E-010     4.2248169653024047E-019
  -7.9199999999999995E-010     3.6903342125012659E-019
  -7.8799999999999997E-010     2.7878372542116365E-019
  -7.8399999999999998E-010     1.4939670269229019E-019
  -7.7999999999999999E-010    -1.9507117658089620E-020
  -7.7600000000000001E-010    -2.2600856836451480E-019
  -7.7200000000000002E-010    -4.6563682061108005E-019
  -7.6800000000000004E-010    -7.3122652412353420E-019
  -7.6400000000000005E-010    -1.0129009614422351E-018
  -7.6000000000000006E-010    -1.2981874897008020E-018
  -7.5600000000000008E-010    -1.5722669614301941E-018
  -7.5199999999999999E-010    -1.8183491611592337E-018
  -7.4800000000000000E-010    -2.0181629099275430E-018
  -7.4400000000000002E-010    -2.1525454314719891E-018
  -7.3999999999999993E-010    -2.2021154704501481E-018
  -7.3599999999999994E-010    -2.1480164108231081E-018
  -7.3199999999999995E-010    -1.9727217429769425E-018
  -7.2799999999999997E-010    -1.6608971927161431E-018
  -7.2399999999999998E-010    -1.2003234412369236E-018
  -7.2000000000000000E-010    -5.8288393387497213E-019
  -7.1600000000000001E-010     1.9437499746668199E-019
  -7.1200000000000002E-010     1.1281123315198459E-018
  -7.0800000000000004E-010     2.2074977279008775E-018
  -7.0400000000000005E-010     3.4129833965455914E-018
  -6.9999999999999996E-010     4.7150969956262997E-018
  -6.9599999999999997E-010     6.0733416235087846E-018
  -6.9199999999999999E-010     7.4353189039054150E-018
  -6.8800000000000000E-010     8.7362308163512369E-018
  -6.8400000000000002E-010     9.8989382192323115E-018
  -6.8000000000000003E-010     1.0834778931411530E-017
  -6.7600000000000004E-010     1.1445335830787946E-017
  -6.7199999999999995E-010     1.1625349357233573E-017
  -6.6799999999999997E-010     1.1266899737770457E-017
  -6.6399999999999998E-010     1.0264941652049262E-017
  -6.6000000000000000E-010     8.5241524606406038E-018
  -6.5600000000000001E-010     5.9669595792895648E-018
  -6.5200000000000002E-010     2.5424572791238662E-018
  -6.4800000000000004E-010    -1.7642048133936564E-018
  -6.4400000000000005E-010    -6.9225285490781730E-018
  -6.3999999999999996E-010    -1.2848156394700301E-017
  -6.3599999999999998E-010    -1.9395921254684280E-017
  -6.3199999999999999E-010    -2.6355276298223620E-017
  -6.2800000000000000E-010    -3.3448920805488494E-017
  -6.2400000000000002E-010    -4.0335354914947609E-017
  -6.2000000000000003E-010    -4.6615922239103485E-017
  -6.1600000000000004E-010    -5.1846724574035663E-017
  -6.1199999999999995E-010    -5.5555441789976366E-017
  -6.0799999999999997E-010    -5.7262835218514421E-017
  -6.0399999999999998E-010    -5.6508241359074147E-017
  -6.0000000000000000E-010    -5.2878132771105583E-017
  -5.9600000000000001E-010    -4.6036326710054929E-017
  -5.9200000000000002E-010    -3.5754269863951332E-017
  -5.8800000000000004E-010    -2.1939549614760368E-017
  -5.8400000000000005E-010    -4.6607024257254252E-018
  -5.7999999999999996E-010     1.5833543869632783E-017
  -5.7599999999999998E-010     3.9102342950263815E-017
  -5.7199999999999999E-010     6.4509499867295480E-017
  -5.6800000000000000E-010     9.1229935046930634E-017
  -5.6400000000000002E-010     1.1826631351589164E-016
  -5.6000000000000003E-010     1.4447567019097723E-016
  -5.5600000000000004E-010     1.6860540216187591E-016
  -5.5199999999999995E-010     1.8933723499508435E-016
  -5.4799999999999997E-010     2.0533744914070167E-016
  -5.4399999999999998E-010     2.1531107680616384E-016
  -5.4000000000000000E-010     2.1805787230521153E-016
  -5.3600000000000001E-010     2.1252732949479219E-016
  -5.3200000000000002E-010     1.9787064195241820E-016
  -5.2800000000000004E-010     1.7348742213716388E-016
  -5.2400000000000005E-010     1.3906559134752521E-016
  -5.1999999999999996E-010     9.4613308893064430E-017
  -5.1599999999999998E-010     4.0482341601075832E-017
  -5.1199999999999999E-010    -2.2617190861814835E-017
  -5.0800000000000000E-010    -9.3610316004396932E-017
  -5.0400000000000002E-010    -1.7105836987245496E-016
  -5.0000000000000003E-010    -2.5316716297577567E-016
  -4.9600000000000004E-010    -3.3780150392534328E-016
  -4.9199999999999996E-010    -4.2250598979085539E-016
  -4.8799999999999997E-010    -5.0453215747714940E-016
  -4.8399999999999998E-010    -5.8087327824948897E-016
  -4.8000000000000000E-010    -6.4830779464189036E-016
  -4.7600000000000001E-010    -7.0345398055199999E-016
  -4.7200000000000002E-010    -7.4283804798400957E-016
  -4.6800000000000004E-010    -7.6297847976646710E-016
  -4.6400000000000005E-010    -7.6048830878065786E-016
  -4.5999999999999996E-010    -7.3219730246324582E-016
  -4.5599999999999998E-010    -6.7529368200626113E-016
  -4.5199999999999999E-010    -5.8748431746324958E-016
  -4.4800000000000000E-010    -4.6716921653640700E-016
  -4.4400000000000002E-010    -3.1362429840472896E-016
  -4.4000000000000003E-010    -1.2718463077330356E-016
  -4.3600000000000005E-010     9.0583357740599984E-017
  -4.3199999999999996E-010     3.3673254834590835E-016
  -4.2799999999999997E-010     6.0682245022597968E-016
  -4.2399999999999998E-010     8.9485706273098858E-016
  -4.2000000000000000E-010     1.1932865694438207E-015
  -4.1600000000000001E-010     1.4930831873335212E-015
  -4.1200000000000002E-010     1.7839009383449709E-015
  -4.0800000000000004E-010     2.0543202301624057E-015
  -4.0400000000000005E-010     2.2921810577950430E-015
  -3.9999999999999996E-010     2.4849911675785393E-015
  -3.9599999999999998E-010     2.6204031484825321E-015
  -3.9199999999999999E-010     2.6867383219885159E-015
  -3.8800000000000000E-010     2.6735339253737686E-015
  -3.8400000000000002E-010     2.5720888126876205E-015
  -3.8000000000000003E-010     2.3759767567174900E-015
  -3.7600000000000005E-010     2.0814974940332968E-015
  -3.7200000000000006E-010     1.6880389374515311E-015
  -3.6799999999999997E-010     1.1983241920184972E-015
  -3.6399999999999998E-010     6.1852839261747491E-016
  -3.6000000000000000E-010    -4.1748715414225115E-017
  -3.5600000000000001E-010    -7.6965484639628470E-016
  -3.5200000000000003E-010    -1.5493953140955263E-015
  -3.4800000000000004E-010    -2.3626660574678623E-015
  -3.4400000000000005E-010    -3.1891851372890844E-015
  -3.3999999999999996E-010    -4.0072916976364135E-015
  -3.3599999999999998E-010    -4.7945795994726054E-015
  -3.3199999999999999E-010    -5.5285298366201940E-015
  -3.2800000000000000E-010    -6.1871051528904642E-015
  -3.2400000000000002E-010    -6.7492813434996170E-015
  -3.2000000000000003E-010    -7.1954864416519208E-015
  -3.1600000000000005E-010    -7.5079433433668762E-015
  -3.1200000000000006E-010    -7.6709014709902892E-015
  -3.0799999999999997E-010    -7.6707803452788319E-015
  -3.0399999999999998E-010    -7.4962297247392964E-015
  -3.0000000000000000E-010    -7.1381456992545937E-015
  -2.9600000000000001E-010    -6.5896711136002265E-015
  -2.9200000000000003E-010    -5.8462120845867611E-015
  -2.8800000000000004E-010    -4.9055176221568693E-015
  -2.8400000000000005E-010    -3.7678409891617800E-015
  -2.7999999999999996E-010    -2.4362084225637961E-015
  -2.7599999999999998E-010    -9.1679818068019035E-016
  -2.7199999999999999E-010     7.8057431869625431E-016
  -2.6800000000000011E-010     2.6418934331455578E-015
  -2.6399999999999992E-010     4.6483402081620977E-015
  -2.5999999999999993E-010     6.7757058068386358E-015
  -2.5599999999999994E-010     8.9938839253726754E-015
  -2.5199999999999996E-010     1.1266513133404484E-014
  -2.4799999999999997E-010     1.3550838172371980E-014
  -2.4399999999999998E-010     1.5797848868914083E-014
  -2.4000000000000000E-010     1.7952753202771753E-014
  -2.3600000000000001E-010     1.9955804857977461E-014
  -2.3200000000000003E-010     2.1743489916014290E-014
  -2.2800000000000004E-010     2.3250065067648151E-014
  -2.2400000000000005E-010     2.4409380427830273E-014
  -2.2000000000000007E-010     2.5156924273231872E-014
  -2.1600000000000008E-010     2.5431988058457339E-014
  -2.1200000000000010E-010     2.5179844984784573E-014
  -2.0800000000000011E-010     2.4353826924951652E-014
  -2.0399999999999992E-010     2.2917169260915950E-014
  -1.9999999999999993E-010     2.0844538931290985E-014
  -1.9599999999999994E-010     1.8123155902968584E-014
  -1.9199999999999996E-010     1.4753450468685952E-014
  -1.8799999999999997E-010     1.0749255523504701E-014
  -1.8399999999999998E-010     6.1375300085535645E-015
  -1.8000000000000000E-010     9.5770288401075820E-016
  -1.7600000000000001E-010    -4.7392878297746865E-015
  -1.7200000000000003E-010    -1.0892134735113451E-014
  -1.6800000000000004E-010    -1.7430340550354979E-014
  -1.6400000000000005E-010    -2.4275298500411706E-014
  -1.6000000000000007E-010    -3.1341140620255725E-014
  -1.5600000000000008E-010    -3.8535248939302463E-014
  -1.5200000000000010E-010    -4.5758373218990345E-014
  -1.4800000000000011E-010    -5.2904319244656203E-014
  -1.4399999999999992E-010    -5.9859255952584428E-014
  -1.3999999999999993E-010    -6.6500732871788149E-014
  -1.3599999999999994E-010    -7.2696568816782436E-014
  -1.3199999999999996E-010    -7.8303804954861500E-014
  -1.2799999999999997E-010    -8.3167949252709733E-014
  -1.2399999999999999E-010    -8.7122746083440061E-014
  -1.2000000000000000E-010    -8.9990772537788810E-014
  -1.1600000000000001E-010    -9.1584983412211496E-014
  -1.1200000000000003E-010    -9.1711489476949820E-014
  -1.0800000000000004E-010    -9.0173528366488398E-014
  -1.0400000000000005E-010    -8.6776783946463515E-014
  -1.0000000000000007E-010    -8.1335850869116572E-014
  -9.6000000000000082E-011    -7.3681742673338546E-014
  -9.2000000000000096E-011    -6.3670131721180884E-014
  -8.8000000000000110E-011    -5.1189931335677077E-014
  -8.3999999999999917E-011    -3.6171888103059616E-014
  -7.9999999999999931E-011    -1.8596638850154265E-014
  -7.5999999999999944E-011     1.4981873019945572E-015
  -7.1999999999999958E-011     2.4012265971169039E-014
  -6.7999999999999972E-011     4.8778638599015003E-014
  -6.3999999999999986E-011     7.5561857660645659E-014
  -6.0000000000000000E-011     1.0405836348842401E-013
  -5.6000000000000013E-011     1.3389911737975851E-013
  -5.2000000000000027E-011     1.6465447711874748E-013
  -4.8000000000000041E-011     1.9584107827184255E-013
  -4.4000000000000055E-011     2.2693031806984842E-013
  -4.0000000000000069E-011     2.5735809967494805E-013
  -3.6000000000000082E-011     2.8653541670441152E-013
  -3.2000000000000096E-011     3.1385901906946789E-013
  -2.8000000000000110E-011     3.3872213302428567E-013
  -2.3999999999999917E-011     3.6052435451079667E-013
  -1.9999999999999931E-011     3.7868062093167343E-013
  -1.5999999999999945E-011     3.9262915293124256E-013
  -1.1999999999999959E-011     4.0183809513379132E-013
  -7.9999999999999724E-012     4.0581099136453858E-013
  -3.9999999999999862E-012     4.0409155513919381E-013
   0.0000000000000000          3.9626768121199529E-013
   3.9999999999999862E-012     3.8197537580858532E-013
   7.9999999999999724E-012     3.6090312053975449E-013
   1.1999999999999959E-011     3.3279680552132651E-013
   1.5999999999999945E-011     2.9746607195686725E-013
   1.9999999999999931E-011     2.5479179313267486E-013
   2.3999999999999917E-011     2.0473549342415326E-013
   2.7999999999999903E-011     1.4735006834479258E-013
   3.1999999999999889E-011     8.2791968268082494E-014
   3.6000000000000082E-011     1.1334191912923050E-014
   4.0000000000000069E-011    -6.6620279713831831E-014
   4.4000000000000055E-011    -1.5052557453525822E-013
   4.8000000000000041E-011    -2.3968121324463576E-013
   5.2000000000000027E-011    -3.3322254460940726E-013
   5.6000000000000013E-011    -4.3011411489726759E-013
   6.0000000000000000E-011    -5.2914687605556954E-013
   6.3999999999999986E-011    -6.2893950030645795E-013
   6.7999999999999972E-011    -7.2794461430936153E-013
   7.1999999999999958E-011    -8.2445996644336939E-013
   7.5999999999999944E-011    -9.1664414773873215E-013
   7.9999999999999931E-011    -1.0025372459282478E-012
   8.3999999999999917E-011    -1.0800849147354907E-012
   8.7999999999999903E-011    -1.1471659126099931E-012
   9.1999999999999889E-011    -1.2016221351274226E-012
   9.6000000000000082E-011    -1.2412895147514980E-012
   1.0000000000000007E-010    -1.2640301132182952E-012
   1.0400000000000005E-010    -1.2677633465588145E-012
   1.0800000000000004E-010    -1.2504971017013311E-012
   1.1200000000000003E-010    -1.2103567930896175E-012
   1.1600000000000001E-010    -1.1456139856202974E-012
   1.2000000000000000E-010    -1.0547130660162884E-012
   1.2399999999999999E-010    -9.3629791420024588E-013
   1.2799999999999997E-010    -7.8923765309615868E-013
   1.3199999999999996E-010    -6.1265424157463944E-013
   1.3599999999999994E-010    -4.0595107028522370E-013
   1.3999999999999993E-010    -1.6884459325475221E-013
   1.4399999999999992E-010     9.8600869222892351E-014
   1.4799999999999990E-010     3.9593393667824994E-013
   1.5199999999999989E-010     7.2227228538335186E-013
   1.5600000000000008E-010     1.0762551874016202E-012
   1.6000000000000007E-010     1.4559900594207642E-012
   1.6400000000000005E-010     1.8589966805510061E-012
   1.6800000000000004E-010     2.2821482117268976E-012
   1.7200000000000003E-010     2.7216115645878336E-012
   1.7600000000000001E-010     3.1727862524755235E-012
   1.8000000000000000E-010     3.6302462771975463E-012
   1.8399999999999998E-010     4.0876841841952505E-012
   1.8799999999999997E-010     4.5378605387225157E-012
   1.9199999999999996E-010     4.9725588230353779E-012
   1.9599999999999994E-010     5.3825459714329504E-012
   1.9999999999999993E-010     5.7575381094687739E-012
   2.0399999999999992E-010     6.0861771351838900E-012
   2.0799999999999990E-010     6.3560094687442614E-012
   2.1199999999999989E-010     6.5534691388868804E-012
   2.1600000000000008E-010     6.6638647724936995E-012
   2.2000000000000007E-010     6.6713674515272992E-012
   2.2400000000000005E-010     6.5589977026048185E-012
   2.2800000000000004E-010     6.3086068487205882E-012
   2.3200000000000003E-010     5.9008574936070257E-012
   2.3600000000000001E-010     5.3151914293503300E-012
   2.4000000000000000E-010     4.5297919061548786E-012
   2.4399999999999998E-010     3.5215341927241628E-012
   2.4799999999999997E-010     2.2659218251730451E-012
   2.5199999999999996E-010     7.3701537494502700E-013
   2.5599999999999994E-010    -1.0926498421326425E-012
   2.5999999999999993E-010    -3.2521684997788292E-012
   2.6399999999999992E-010    -5.7723699951883756E-012
   2.6799999999999990E-010    -8.6859391207338987E-012
   2.7199999999999989E-010    -1.2027549095572354E-011
   2.7600000000000008E-010    -1.5834002511927459E-011
   2.8000000000000007E-010    -2.0144384424436446E-011
   2.8400000000000005E-010    -2.5000229317284628E-011
   2.8800000000000004E-010    -3.0445694576552995E-011
   2.9200000000000003E-010    -3.6527753044524047E-011
   2.9600000000000001E-010    -4.3296401186498912E-011
   3.0000000000000000E-010    -5.0804874196508365E-011
   3.0399999999999998E-010    -5.9109890593322945E-011
   3.0799999999999997E-010    -6.8271943653996914E-011
   3.1199999999999996E-010    -7.8355551214048802E-011
   3.1599999999999994E-010    -8.9429623428838312E-011
   3.1999999999999993E-010    -1.0156776808489809E-010
   3.2399999999999992E-010    -1.1484870693356797E-010
   3.2799999999999990E-010    -1.2935669202462918E-010
   3.3199999999999989E-010    -1.4518196367330205E-010
   3.3600000000000008E-010    -1.6242122924392532E-010
   3.4000000000000007E-010    -1.8117823907815023E-010
   3.4400000000000005E-010    -2.0156430691198324E-010
   3.4800000000000004E-010    -2.2369898988738868E-010
   3.5200000000000003E-010    -2.4771065754158883E-010
   3.5600000000000001E-010    -2.7373728284096899E-010
   3.6000000000000000E-010    -3.0192709443710442E-010
   3.6399999999999998E-010    -3.3243938157845321E-010
   3.6799999999999997E-010    -3.6544536841098818E-010
   3.7199999999999996E-010    -4.0112901888988972E-010
   3.7599999999999994E-010    -4.3968792495796549E-010
   3.7999999999999993E-010    -4.8133425023522136E-010
   3.8399999999999991E-010    -5.2629595126418849E-010
   3.8799999999999990E-010    -5.7481747139931372E-010
   3.9199999999999989E-010    -6.2716121185246720E-010
   3.9599999999999987E-010    -6.8360855864924019E-010
   4.0000000000000007E-010    -7.4446099285196965E-010
   4.0400000000000005E-010    -8.1004170038312395E-010
   4.0800000000000004E-010    -8.8069673775947876E-010
   4.1200000000000002E-010    -9.5679653089320027E-010
   4.1600000000000001E-010    -1.0387372073594747E-009
   4.2000000000000000E-010    -1.1269426503091040E-009
   4.2399999999999998E-010    -1.2218654976692278E-009
   4.2799999999999997E-010    -1.3239895846339778E-009
   4.3199999999999996E-010    -1.4338312759321070E-009
   4.3599999999999994E-010    -1.5519414642284346E-009
   4.3999999999999993E-010    -1.6789073464806847E-009
   4.4399999999999991E-010    -1.8153548664301411E-009
   4.4799999999999990E-010    -1.9619503799361837E-009
   4.5199999999999989E-010    -2.1194035415561530E-009
   4.5599999999999987E-010    -2.2884687478352816E-009
   4.6000000000000007E-010    -2.4699480238865590E-009
   4.6400000000000005E-010    -2.6646935769036872E-009
   4.6800000000000004E-010    -2.8736102386517359E-009
   4.7200000000000002E-010    -3.0976587961362156E-009
   4.7600000000000001E-010    -3.3378577679599175E-009
   4.8000000000000000E-010    -3.5952871790811969E-009
   4.8399999999999998E-010    -3.8710918914830472E-009
   4.8799999999999997E-010    -4.1664844907529641E-009
   4.9199999999999996E-010    -4.4827483947074143E-009
   4.9599999999999994E-010    -4.8212425163285388E-009
   4.9999999999999993E-010    -5.1834034842102028E-009
   5.0399999999999991E-010    -5.5707505275393032E-009
   5.0799999999999990E-010    -5.9848894728986579E-009
   5.1199999999999989E-010    -6.4275167410698941E-009
   5.1599999999999987E-010    -6.9004228997471273E-009
   5.2000000000000007E-010    -7.4054979926074793E-009
   5.2400000000000005E-010    -7.9447355361139671E-009
   5.2800000000000004E-010    -8.5202369604076011E-009
   5.3200000000000002E-010    -9.1342160501994840E-009
   5.3600000000000001E-010    -9.7890069383765876E-009
   5.4000000000000000E-010    -1.0487063661912543E-008
   5.4399999999999998E-010    -1.1230969931830259E-008
   5.4799999999999997E-010    -1.2023444462272437E-008
   5.5199999999999995E-010    -1.2867341858679993E-008
   5.5599999999999994E-010    -1.3765663275933093E-008
   5.5999999999999993E-010    -1.4721559971064835E-008
   5.6399999999999991E-010    -1.5738338632331761E-008
   5.6799999999999990E-010    -1.6819466708284381E-008
   5.7199999999999989E-010    -1.7968581289551366E-008
   5.7599999999999987E-010    -1.9189492661553231E-008
   5.8000000000000007E-010    -2.0486194074464947E-008
   5.8400000000000005E-010    -2.1862867072286463E-008
   5.8800000000000004E-010    -2.3323883269199541E-008
   5.9200000000000002E-010    -2.4873816784065639E-008
   5.9600000000000001E-010    -2.6517447793139581E-008
   6.0000000000000000E-010    -2.8259771411853762E-008
   6.0399999999999998E-010    -3.0106004800245501E-008
   6.0799999999999997E-010    -3.2061588939313879E-008
   6.1199999999999995E-010    -3.4132199289160781E-008
   6.1599999999999994E-010    -3.6323758223488767E-008
   6.1999999999999993E-010    -3.8642422595103199E-008
   6.2399999999999991E-010    -4.1094622815762705E-008
   6.2799999999999990E-010    -4.3687034434469751E-008
   6.3199999999999989E-010    -4.6426606559180073E-008
   6.3599999999999987E-010    -4.9320558304088991E-008
   6.4000000000000006E-010    -5.2376393000486132E-008
   6.4400000000000005E-010    -5.5601901749469107E-008
   6.4800000000000004E-010    -5.9005159869229828E-008
   6.5200000000000002E-010    -6.2594551764050266E-008
   6.5600000000000001E-010    -6.6378746055306692E-008
   6.6000000000000000E-010    -7.0366738214033830E-008
   6.6399999999999978E-010    -7.4567822139215423E-008
   6.6800000000000017E-010    -7.8991625684921019E-008
   6.7200000000000016E-010    -8.3648096449451259E-008
   6.7600000000000015E-010    -8.8547494669910520E-008
   6.8000000000000013E-010    -9.3700414538488985E-008
   6.8400000000000012E-010    -9.9117798413317360E-008
   6.8800000000000011E-010    -1.0481090129133008E-007
   6.9200000000000009E-010    -1.1079133344082948E-007
   6.9600000000000008E-010    -1.1707103197977631E-007
   7.0000000000000006E-010    -1.2366227508664451E-007
   7.0400000000000005E-010    -1.3057768910584855E-007
   7.0800000000000004E-010    -1.3783021302060661E-007
   7.1200000000000002E-010    -1.4543314819093212E-007
   7.1600000000000001E-010    -1.5340013703735167E-007
   7.2000000000000000E-010    -1.6174512040834088E-007
   7.2399999999999998E-010    -1.7048238021288853E-007
   7.2799999999999997E-010    -1.7962652520964184E-007
   7.3199999999999995E-010    -1.8919246258519706E-007
   7.3599999999999994E-010    -1.9919544058666361E-007
   7.3999999999999993E-010    -2.0965097746739048E-007
   7.4399999999999991E-010    -2.2057487569782097E-007
   7.4799999999999990E-010    -2.3198326459805685E-007
   7.5199999999999988E-010    -2.4389248665102059E-007
   7.5599999999999987E-010    -2.5631914013501955E-007
   7.5999999999999986E-010    -2.6928012175631011E-007
   7.6399999999999984E-010    -2.8279248454055050E-007
   7.6799999999999983E-010    -2.9687353730878385E-007
   7.7199999999999982E-010    -3.1154075941230985E-007
   7.7599999999999980E-010    -3.2681174388926593E-007
   7.7999999999999979E-010    -3.4270431115146494E-007
   7.8399999999999977E-010    -3.5923639529755746E-007
   7.8800000000000017E-010    -3.7642598726961296E-007
   7.9200000000000016E-010    -3.9429116327482916E-007
   7.9600000000000015E-010    -4.1285002794211323E-007
   8.0000000000000013E-010    -4.3212074274379120E-007
   8.0400000000000012E-010    -4.5212138388706080E-007
   8.0800000000000010E-010    -4.7287005600082921E-007
   8.1200000000000009E-010    -4.9438472160545643E-007
   8.1600000000000008E-010    -5.1668320111275534E-007
   8.2000000000000006E-010    -5.3978311598257278E-007
   8.2400000000000005E-010    -5.6370203083133674E-007
   8.2800000000000004E-010    -5.8845711237154319E-007
   8.3200000000000002E-010    -6.1406535678543150E-007
   8.3600000000000001E-010    -6.4054330550789018E-007
   8.3999999999999999E-010    -6.6790721575671341E-007
   8.4399999999999998E-010    -6.9617277631550678E-007
   8.4799999999999997E-010    -7.2535533490736270E-007
   8.5199999999999995E-010    -7.5546961397776613E-007
   8.5599999999999994E-010    -7.8652976753801340E-007
   8.5999999999999993E-010    -8.1854921063495567E-007
   8.6399999999999991E-010    -8.5154084672467434E-007
   8.6799999999999990E-010    -8.8551661292513018E-007
   8.7199999999999988E-010    -9.2048765054641990E-007
   8.7599999999999987E-010    -9.5646430509077618E-007
   8.7999999999999986E-010    -9.9345595572231105E-007
   8.8399999999999984E-010    -1.0314707878933405E-006
   8.8799999999999983E-010    -1.0705161912483163E-006
   8.9199999999999981E-010    -1.1105981911896379E-006
   8.9599999999999980E-010    -1.1517215625644894E-006
   8.9999999999999979E-010    -1.1938900570385158E-006
   9.0399999999999977E-010    -1.2371058346616337E-006
   9.0799999999999976E-010    -1.2813695775548695E-006
   9.1200000000000016E-010    -1.3266807172840345E-006
   9.1600000000000015E-010    -1.3730369801123743E-006
   9.2000000000000013E-010    -1.4204345006874064E-006
   9.2400000000000012E-010    -1.4688677083540824E-006
   9.2800000000000010E-010    -1.5183293271547882E-006
   9.3200000000000009E-010    -1.5688100347688305E-006
   9.3600000000000008E-010    -1.6202986898861127E-006
   9.4000000000000006E-010    -1.6727823322071345E-006
   9.4400000000000005E-010    -1.7262457276956411E-006
   9.4800000000000004E-010    -1.7806719370128121E-006
   9.5200000000000002E-010    -1.8360414060225594E-006
   9.5600000000000001E-010    -1.8923325342257158E-006
   9.5999999999999999E-010    -1.9495214473863598E-006
   9.6399999999999998E-010    -2.0075819975318154E-006
   9.6799999999999997E-010    -2.0664854218921391E-006
   9.7199999999999995E-010    -2.1262005702737952E-006
   9.7599999999999994E-010    -2.1866942461201688E-006
   9.7999999999999992E-010    -2.2479300696431892E-006