  -1.2000000000000000E-009     0.0000000000000000
  -1.1960000000000000E-009     0.0000000000000000
  -1.1920000000000000E-009     0.0000000000000000
  -1.1880000000000000E-009     0.0000000000000000
  -1.1840000000000000E-009     0.0000000000000000
  -1.1800000000000001E-009     0.0000000000000000
  -1.1760000000000001E-009     0.0000000000000000
  -1.1720000000000001E-009     0.0000000000000000
  -1.1679999999999999E-009     0.0000000000000000
  -1.1639999999999999E-009     0.0000000000000000
  -1.1599999999999999E-009     0.0000000000000000
  -1.1559999999999999E-009     0.0000000000000000
  -1.1520000000000000E-009     0.0000000000000000
  -1.1480000000000000E-009     0.0000000000000000
  -1.1440000000000000E-009     0.0000000000000000
  -1.1400000000000000E-009     0.0000000000000000
  -1.1360000000000000E-009     0.0000000000000000
  -1.1320000000000000E-009     0.0000000000000000
  -1.1280000000000000E-009     0.0000000000000000
  -1.1240000000000000E-009     0.0000000000000000
  -1.1200000000000001E-009     0.0000000000000000
  -1.1160000000000001E-009     0.0000000000000000
  -1.1120000000000001E-009     0.0000000000000000
  -1.1079999999999999E-009     0.0000000000000000
  -1.1039999999999999E-009     0.0000000000000000
  -1.0999999999999999E-009     0.0000000000000000
  -1.0959999999999999E-009     0.0000000000000000
  -1.0920000000000000E-009     0.0000000000000000
  -1.0880000000000000E-009     0.0000000000000000
  -1.0840000000000000E-009     0.0000000000000000
  -1.0800000000000000E-009     0.0000000000000000
  -1.0760000000000000E-009     0.0000000000000000
  -1.0720000000000000E-009     0.0000000000000000
  -1.0680000000000000E-009     0.0000000000000000
  -1.0640000000000000E-009     0.0000000000000000
  -1.0600000000000001E-009     0.0000000000000000
  -1.0560000000000001E-009     0.0000000000000000
  -1.0520000000000001E-009     0.0000000000000000
  -1.0480000000000001E-009     0.0000000000000000
  -1.0439999999999999E-009     0.0000000000000000
  -1.0399999999999999E-009     0.0000000000000000
  -1.0359999999999999E-009     0.0000000000000000
  -1.0320000000000000E-009     0.0000000000000000
  -1.0280000000000000E-009     0.0000000000000000
  -1.0240000000000000E-009     0.0000000000000000
  -1.0200000000000000E-009     0.0000000000000000
  -1.0160000000000000E-009     0.0000000000000000
  -1.0120000000000000E-009     0.0000000000000000
  -1.0080000000000000E-009     0.0000000000000000
  -1.0040000000000000E-009     0.0000000000000000
  -1.0000000000000001E-009     0.0000000000000000
  -9.9600000000000008E-010     0.0000000000000000
  -9.9199999999999988E-010     0.0000000000000000
  -9.8799999999999990E-010     0.0000000000000000
  -9.8399999999999991E-010     0.0000000000000000
  -9.7999999999999992E-010     0.0000000000000000
  -9.7599999999999994E-010     0.0000000000000000
  -9.7199999999999995E-010     0.0000000000000000
  -9.6799999999999997E-010     0.0000000000000000
  -9.6399999999999998E-010     0.0000000000000000
  -9.5999999999999999E-010     0.0000000000000000
  -9.5600000000000001E-010     0.0000000000000000
  -9.5200000000000002E-010     0.0000000000000000
  -9.4800000000000004E-010     0.0000000000000000
  -9.4400000000000005E-010     0.0000000000000000
  -9.4000000000000006E-010     0.0000000000000000
  -9.3600000000000008E-010     0.0000000000000000
  -9.3200000000000009E-010     0.0000000000000000
  -9.2800000000000000E-010     0.0000000000000000
  -9.2400000000000001E-010     0.0000000000000000
  -9.1999999999999992E-010     0.0000000000000000
  -9.1599999999999994E-010     0.0000000000000000
  -9.1199999999999995E-010     0.0000000000000000
  -9.0799999999999997E-010     0.0000000000000000
  -9.0399999999999998E-010     0.0000000000000000
  -8.9999999999999999E-010     0.0000000000000000
  -8.9600000000000001E-010     0.0000000000000000
  -8.9200000000000002E-010     0.0000000000000000
  -8.8800000000000004E-010     0.0000000000000000
  -8.8400000000000005E-010     0.0000000000000000
  -8.8000000000000006E-010     0.0000000000000000
  -8.7599999999999997E-010     0.0000000000000000
  -8.7199999999999999E-010     0.0000000000000000
  -8.6800000000000000E-010     0.0000000000000000
  -8.6400000000000001E-010     0.0000000000000000
  -8.5999999999999993E-010     0.0000000000000000
  -8.5599999999999994E-010     0.0000000000000000
  -8.5199999999999995E-010     0.0000000000000000
  -8.4799999999999997E-010     0.0000000000000000
  -8.4399999999999998E-010     0.0000000000000000
  -8.3999999999999999E-010     0.0000000000000000
  -8.3600000000000001E-010     0.0000000000000000
  -8.3200000000000002E-010     0.0000000000000000
  -8.2800000000000004E-010     0.0000000000000000
  -8.2400000000000005E-010     0.0000000000000000
  -8.2000000000000006E-010     0.0000000000000000
  -8.1599999999999997E-010     0.0000000000000000
  -8.1199999999999999E-010     0.0000000000000000
  -8.0800000000000000E-010     0.0000000000000000
  -8.0400000000000002E-010     0.0000000000000000
  -7.9999999999999993E-010     0.0000000000000000
  -7.9599999999999994E-010     0.0000000000000000
  -7.9199999999999995E-010     0.0000000000000000
  -7.8799999999999997E-010     0.0000000000000000
  -7.8399999999999998E-010     0.0000000000000000
  -7.7999999999999999E-010     0.0000000000000000
  -7.7600000000000001E-010     0.0000000000000000
  -7.7200000000000002E-010     0.0000000000000000
  -7.6800000000000004E-010     0.0000000000000000
  -7.6400000000000005E-010     0.0000000000000000
  -7.6000000000000006E-010     0.0000000000000000
  -7.5600000000000008E-010     0.0000000000000000
  -7.5199999999999999E-010     0.0000000000000000
  -7.4800000000000000E-010     0.0000000000000000
  -7.4400000000000002E-010     0.0000000000000000
  -7.3999999999999993E-010     0.0000000000000000
  -7.3599999999999994E-010     0.0000000000000000
  -7.3199999999999995E-010     0.0000000000000000
  -7.2799999999999997E-010     0.0000000000000000
  -7.2399999999999998E-010     0.0000000000000000
  -7.2000000000000000E-010     0.0000000000000000
  -7.1600000000000001E-010     0.0000000000000000
  -7.1200000000000002E-010     0.0000000000000000
  -7.0800000000000004E-010     0.0000000000000000
  -7.0400000000000005E-010     0.0000000000000000
  -6.9999999999999996E-010     0.0000000000000000
  -6.9599999999999997E-010     0.0000000000000000
  -6.9199999999999999E-010     0.0000000000000000
  -6.8800000000000000E-010     0.0000000000000000
  -6.8400000000000002E-010     0.0000000000000000
  -6.8000000000000003E-010     0.0000000000000000
  -6.7600000000000004E-010     0.0000000000000000
  -6.7199999999999995E-010     0.0000000000000000
  -6.6799999999999997E-010     0.0000000000000000
  -6.6399999999999998E-010     0.0000000000000000
  -6.6000000000000000E-010     0.0000000000000000
  -6.5600000000000001E-010     0.0000000000000000
  -6.5200000000000002E-010     0.0000000000000000
  -6.4800000000000004E-010     0.0000000000000000
  -6.4400000000000005E-010     0.0000000000000000
  -6.3999999999999996E-010     0.0000000000000000
  -6.3599999999999998E-010     0.0000000000000000
  -6.3199999999999999E-010     0.0000000000000000
  -6.2800000000000000E-010     0.0000000000000000
  -6.2400000000000002E-010     0.0000000000000000
  -6.2000000000000003E-010     0.0000000000000000
  -6.1600000000000004E-010     0.0000000000000000
  -6.1199999999999995E-010     0.0000000000000000
  -6.0799999999999997E-010     0.0000000000000000
  -6.0399999999999998E-010     0.0000000000000000
  -6.0000000000000000E-010     0.0000000000000000
  -5.9600000000000001E-010     0.0000000000000000
  -5.9200000000000002E-010     0.0000000000000000
  -5.8800000000000004E-010     0.0000000000000000
  -5.8400000000000005E-010     0.0000000000000000
  -5.7999999999999996E-010     0.0000000000000000
  -5.7599999999999998E-010     0.0000000000000000
  -5.7199999999999999E-010     0.0000000000000000
  -5.6800000000000000E-010     0.0000000000000000
  -5.6400000000000002E-010     0.0000000000000000
  -5.6000000000000003E-010     0.0000000000000000
  -5.5600000000000004E-010     0.0000000000000000
  -5.5199999999999995E-010     0.0000000000000000
  -5.4799999999999997E-010     0.0000000000000000
  -5.4399999999999998E-010     0.0000000000000000
  -5.4000000000000000E-010     0.0000000000000000
  -5.3600000000000001E-010     0.0000000000000000
  -5.3200000000000002E-010     0.0000000000000000
  -5.2800000000000004E-010     0.0000000000000000
  -5.2400000000000005E-010     0.0000000000000000
  -5.1999999999999996E-010     0.0000000000000000
  -5.1599999999999998E-010     0.0000000000000000
  -5.1199999999999999E-010     0.0000000000000000
  -5.0800000000000000E-010     0.0000000000000000
  -5.0400000000000002E-010     0.0000000000000000
  -5.0000000000000003E-010     0.0000000000000000
  -4.9600000000000004E-010     0.0000000000000000
  -4.9199999999999996E-010     0.0000000000000000
  -4.8799999999999997E-010     0.0000000000000000
  -4.8399999999999998E-010     0.0000000000000000
  -4.8000000000000000E-010     0.0000000000000000
  -4.7600000000000001E-010     0.0000000000000000
  -4.7200000000000002E-010     0.0000000000000000
  -4.6800000000000004E-010     0.0000000000000000
  -4.6400000000000005E-010     0.0000000000000000
  -4.5999999999999996E-010     0.0000000000000000
  -4.5599999999999998E-010     0.0000000000000000
  -4.5199999999999999E-010     0.0000000000000000
  -4.4800000000000000E-010     0.0000000000000000
  -4.4400000000000002E-010     0.0000000000000000
  -4.4000000000000003E-010     0.0000000000000000
  -4.3600000000000005E-010     0.0000000000000000
  -4.3199999999999996E-010     0.0000000000000000
  -4.2799999999999997E-010     0.0000000000000000
  -4.2399999999999998E-010     0.0000000000000000
  -4.2000000000000000E-010     0.0000000000000000
  -4.1600000000000001E-010     0.0000000000000000
  -4.1200000000000002E-010     0.0000000000000000
  -4.0800000000000004E-010     0.0000000000000000
  -4.0400000000000005E-010     0.0000000000000000
  -3.9999999999999996E-010     0.0000000000000000
  -3.9599999999999998E-010     0.0000000000000000
  -3.9199999999999999E-010     0.0000000000000000
  -3.8800000000000000E-010     0.0000000000000000
  -3.8400000000000002E-010     0.0000000000000000
  -3.8000000000000003E-010     0.0000000000000000
  -3.7600000000000005E-010     0.0000000000000000
  -3.7200000000000006E-010     0.0000000000000000
  -3.6799999999999997E-010     0.0000000000000000
  -3.6399999999999998E-010     0.0000000000000000
  -3.6000000000000000E-010     0.0000000000000000
  -3.5600000000000001E-010     0.0000000000000000
  -3.5200000000000003E-010     0.0000000000000000
  -3.4800000000000004E-010     0.0000000000000000
  -3.4400000000000005E-010     0.0000000000000000
  -3.3999999999999996E-010     0.0000000000000000
  -3.3599999999999998E-010     0.0000000000000000
  -3.3199999999999999E-010     0.0000000000000000
  -3.2800000000000000E-010     0.0000000000000000
  -3.2400000000000002E-010     0.0000000000000000
  -3.2000000000000003E-010     0.0000000000000000
  -3.1600000000000005E-010     0.0000000000000000
  -3.1200000000000006E-010     0.0000000000000000
  -3.0799999999999997E-010     0.0000000000000000
  -3.0399999999999998E-010     0.0000000000000000
  -3.0000000000000000E-010     0.0000000000000000
  -2.9600000000000001E-010     0.0000000000000000
  -2.9200000000000003E-010     0.0000000000000000
  -2.8800000000000004E-010     0.0000000000000000
  -2.8400000000000005E-010     0.0000000000000000
  -2.7999999999999996E-010     0.0000000000000000
  -2.7599999999999998E-010     0.0000000000000000
  -2.7199999999999999E-010     0.0000000000000000
  -2.6800000000000011E-010     0.0000000000000000
  -2.6399999999999992E-010     0.0000000000000000
  -2.5999999999999993E-010     0.0000000000000000
  -2.5599999999999994E-010     0.0000000000000000
  -2.5199999999999996E-010     0.0000000000000000
  -2.4799999999999997E-010     0.0000000000000000
  -2.4399999999999998E-010     0.0000000000000000
  -2.4000000000000000E-010     0.0000000000000000
  -2.3600000000000001E-010     0.0000000000000000
  -2.3200000000000003E-010     0.0000000000000000
  -2.2800000000000004E-010     0.0000000000000000
  -2.2400000000000005E-010     0.0000000000000000
  -2.2000000000000007E-010     0.0000000000000000
  -2.1600000000000008E-010     0.0000000000000000
  -2.1200000000000010E-010     0.0000000000000000
  -2.0800000000000011E-010     0.0000000000000000
  -2.0399999999999992E-010     0.0000000000000000
  -1.9999999999999993E-010     0.0000000000000000
  -1.9599999999999994E-010     0.0000000000000000
  -1.9199999999999996E-010     0.0000000000000000
  -1.8799999999999997E-010     0.0000000000000000
  -1.8399999999999998E-010     0.0000000000000000
  -1.8000000000000000E-010     0.0000000000000000
  -1.7600000000000001E-010     0.0000000000000000
  -1.7200000000000003E-010     0.0000000000000000
  -1.6800000000000004E-010     0.0000000000000000
  -1.6400000000000005E-010     0.0000000000000000
  -1.6000000000000007E-010     0.0000000000000000
  -1.5600000000000008E-010     0.0000000000000000
  -1.5200000000000010E-010     0.0000000000000000
  -1.4800000000000011E-010     0.0000000000000000
  -1.4399999999999992E-010     0.0000000000000000
  -1.3999999999999993E-010     0.0000000000000000
  -1.3599999999999994E-010     0.0000000000000000
  -1.3199999999999996E-010     0.0000000000000000
  -1.2799999999999997E-010     0.0000000000000000
  -1.2399999999999999E-010     0.0000000000000000
  -1.2000000000000000E-010     0.0000000000000000
  -1.1600000000000001E-010     0.0000000000000000
  -1.1200000000000003E-010     0.0000000000000000
  -1.0800000000000004E-010     0.0000000000000000
  -1.0400000000000005E-010     0.0000000000000000
  -1.0000000000000007E-010     0.0000000000000000
  -9.6000000000000082E-011     0.0000000000000000
  -9.2000000000000096E-011     0.0000000000000000
  -8.8000000000000110E-011     0.0000000000000000
  -8.3999999999999917E-011     0.0000000000000000
  -7.9999999999999931E-011     0.0000000000000000
  -7.5999999999999944E-011     0.0000000000000000
  -7.1999999999999958E-011     0.0000000000000000
  -6.7999999999999972E-011     0.0000000000000000
  -6.3999999999999986E-011     0.0000000000000000
  -6.0000000000000000E-011     0.0000000000000000
  -5.6000000000000013E-011     0.0000000000000000
  -5.2000000000000027E-011     0.0000000000000000
  -4.8000000000000041E-011     0.0000000000000000
  -4.4000000000000055E-011     0.0000000000000000
  -4.0000000000000069E-011     0.0000000000000000
  -3.6000000000000082E-011     0.0000000000000000
  -3.2000000000000096E-011     0.0000000000000000
  -2.8000000000000110E-011     0.0000000000000000
  -2.3999999999999917E-011     0.0000000000000000
  -1.9999999999999931E-011     0.0000000000000000
  -1.5999999999999945E-011     0.0000000000000000
  -1.1999999999999959E-011     0.0000000000000000
  -7.9999999999999724E-012     0.0000000000000000
  -3.9999999999999862E-012     0.0000000000000000
   0.0000000000000000          0.0000000000000000
   3.9999999999999862E-012     0.0000000000000000
   7.9999999999999724E-012     0.0000000000000000
   1.1999999999999959E-011     0.0000000000000000
   1.5999999999999945E-011     0.0000000000000000
   1.9999999999999931E-011     0.0000000000000000
   2.3999999999999917E-011     0.0000000000000000
   2.7999999999999903E-011     0.0000000000000000
   3.1999999999999889E-011     0.0000000000000000
   3.6000000000000082E-011     0.0000000000000000
   4.0000000000000069E-011     0.0000000000000000
   4.4000000000000055E-011     0.0000000000000000
   4.8000000000000041E-011     0.0000000000000000
   5.2000000000000027E-011     0.0000000000000000
   5.6000000000000013E-011     0.0000000000000000
   6.0000000000000000E-011     0.0000000000000000
   6.3999999999999986E-011     0.0000000000000000
   6.7999999999999972E-011     0.0000000000000000
   7.1999999999999958E-011     0.0000000000000000
   7.5999999999999944E-011     0.0000000000000000
   7.9999999999999931E-011     0.0000000000000000
   8.3999999999999917E-011     0.0000000000000000
   8.7999999999999903E-011     0.0000000000000000
   9.1999999999999889E-011     0.0000000000000000
   9.6000000000000082E-011     0.0000000000000000
   1.0000000000000007E-010     0.0000000000000000
   1.0400000000000005E-010     0.0000000000000000
   1.0800000000000004E-010     0.0000000000000000
   1.1200000000000003E-010     0.0000000000000000
   1.1600000000000001E-010     0.0000000000000000
   1.2000000000000000E-010     0.0000000000000000
   1.2399999999999999E-010     0.0000000000000000
   1.2799999999999997E-010     0.0000000000000000
   1.3199999999999996E-010     0.0000000000000000
   1.3599999999999994E-010     0.0000000000000000
   1.3999999999999993E-010     0.0000000000000000
   1.4399999999999992E-010     0.0000000000000000
   1.4799999999999990E-010     0.0000000000000000
   1.5199999999999989E-010     0.0000000000000000
   1.5600000000000008E-010     0.0000000000000000
   1.6000000000000007E-010     0.0000000000000000
   1.6400000000000005E-010     0.0000000000000000
   1.6800000000000004E-010     0.0000000000000000
   1.7200000000000003E-010     0.0000000000000000
   1.7600000000000001E-010     0.0000000000000000
   1.8000000000000000E-010     0.0000000000000000
   1.8399999999999998E-010     0.0000000000000000
   1.8799999999999997E-010     0.0000000000000000
   1.9199999999999996E-010     0.0000000000000000
   1.9599999999999994E-010     0.0000000000000000
   1.9999999999999993E-010     0.0000000000000000
   2.0399999999999992E-010     1.4012984643248171E-045
   2.0799999999999990E-010     2.8025969286496341E-045
   2.1199999999999989E-010     2.8025969286496341E-045
   2.1600000000000008E-010     1.4012984643248171E-045
   2.2000000000000007E-010     0.0000000000000000
   2.2400000000000005E-010    -4.2038953929744512E-045
   2.2800000000000004E-010    -8.4077907859489024E-045
   2.3200000000000003E-010    -1.4012984643248171E-044
   2.3600000000000001E-010    -1.9618178500547439E-044
   2.4000000000000000E-010    -2.2420775429197073E-044
   2.4399999999999998E-010    -2.2420775429197073E-044
   2.4799999999999997E-010    -2.1019476964872256E-044
   2.5199999999999996E-010    -1.5414283107572988E-044
   2.5599999999999994E-010    -7.0064923216240854E-045
   2.5999999999999993E-010     5.6051938572992683E-045
   2.6399999999999992E-010     2.3822073893521890E-044
   2.6799999999999990E-010     4.4841550858394146E-044
   2.7199999999999989E-010     6.8663624751916036E-044
   2.7600000000000008E-010     9.2485698645437927E-044
   2.8000000000000007E-010     1.1350517561031018E-043
   2.8400000000000005E-010     1.3312335411085762E-043
   2.8800000000000004E-010     1.4433374182545616E-043
   2.9200000000000003E-010     1.4293244336113134E-043
   2.9600000000000001E-010     1.2471556332490872E-043
   3.0000000000000000E-010     8.4077907859489024E-044
   3.0399999999999998E-010     1.8216880036222622E-044
   3.0799999999999997E-010    -7.5670117073540122E-044
   3.1199999999999996E-010    -1.9618178500547439E-043
   3.1599999999999994E-010    -3.3911422836660573E-043
   3.1999999999999993E-010    -5.0026355176395969E-043
   3.2399999999999992E-010    -6.6701806901861293E-043
   3.2799999999999990E-010    -8.2116090009434280E-043
   3.3199999999999989E-010    -9.4167256802627707E-043
   3.3600000000000008E-010    -9.9912580506359457E-043
   3.4000000000000007E-010    -9.6269204499114933E-043
   3.4400000000000005E-010    -8.0014142312947055E-043
   3.4800000000000004E-010    -4.8484926865638671E-043
   3.5200000000000003E-010     2.8025969286496341E-045
   3.5600000000000001E-010     6.7542585980456183E-043
   3.6000000000000000E-010     1.5218101322567513E-042
   3.6399999999999998E-010     2.5125281465343970E-042
   3.6799999999999997E-010     3.5873240686715317E-042
   3.7199999999999996E-010     4.6593173938800168E-042
   3.7599999999999994E-010     5.6079964542279179E-042
   3.7999999999999993E-010     6.2834223140324797E-042
   3.8399999999999991E-010     6.5160378591103994E-042
   3.8799999999999990E-010     6.1208716921708010E-042
   3.9199999999999989E-010     4.9171563113157831E-042
   3.9599999999999987E-010     2.7423410946836670E-042
   4.0000000000000007E-010    -5.2268432719315677E-043
   4.0400000000000005E-010    -4.9255641021017320E-042
   4.0800000000000004E-010    -1.0404641097611767E-041
   4.1200000000000002E-010    -1.6763733528717787E-041
   4.1600000000000001E-010    -2.3637102496231014E-041
   4.2000000000000000E-010    -3.0474037703671797E-041
   4.2399999999999998E-010    -3.6533252263412306E-041
   4.2799999999999997E-010    -4.0891290487462487E-041
   4.3199999999999996E-010    -4.2478961647542505E-041
   4.3599999999999994E-010    -4.0140194510584385E-041
   4.3999999999999993E-010    -3.2723121738913128E-041
   4.4399999999999991E-010    -1.9199190259714319E-041
   4.4799999999999990E-010     1.1883010977474449E-042
   4.5199999999999989E-010     2.8746236697159297E-041
   4.5599999999999987E-010     6.3153719190190856E-041
   4.6000000000000007E-010     1.0327009162688172E-040
   4.6400000000000005E-010     1.4697518943070844E-040
   4.6800000000000004E-010     1.9104182223833096E-040
   4.7200000000000002E-010     2.3107972196101963E-040
   4.7600000000000001E-010     2.6158318693244225E-040
   4.8000000000000000E-010     2.7610764551516898E-040
   4.8399999999999998E-010     2.6758634955360977E-040
   4.8799999999999997E-010     2.2883904571656425E-040
   4.9199999999999996E-010     1.5324319746163335E-040
   4.9599999999999994E-010     3.5585974501528730E-041
   4.9999999999999993E-010    -1.2693802268932788E-040
   5.0399999999999991E-010    -3.3363094747570272E-040
   5.0799999999999990E-010    -5.7917347088701879E-040
   5.1199999999999989E-010    -8.5257941296296953E-040
   5.1599999999999987E-010    -1.1363661740626385E-039
   5.2000000000000007E-010    -1.4060642804019858E-039
   5.2400000000000005E-010    -1.6302608243062419E-039
   5.2800000000000004E-010    -1.7713169290236423E-039
   5.3200000000000002E-010    -1.7869301965131494E-039
   5.3600000000000001E-010    -1.6326640511725590E-039
   5.4000000000000000E-010    -1.2655154457286709E-039
   5.4399999999999998E-010    -6.4852933708031129E-040
   5.4799999999999997E-010     2.4364656658908459E-040
   5.5199999999999995E-010     1.4184867912882253E-039
   5.5599999999999994E-010     2.8589319295124204E-039
   5.5999999999999993E-010     4.5168782075783278E-039
   5.6399999999999991E-010     6.3074531813971860E-039
   5.6799999999999990E-010     8.1048777021096640E-039
   5.7199999999999989E-010     9.7407997722117782E-039
   5.7599999999999987E-010     1.1006057379023013E-038
   5.8000000000000007E-010     1.1656821787153923E-038
   5.8400000000000005E-010     1.1425942450873302E-038
   5.8800000000000004E-010     1.0040124130683881E-038
   5.9200000000000002E-010     7.2432262828886556E-039
   5.9600000000000001E-010     2.8255067572428806E-039
   6.0000000000000000E-010    -3.3419693192544352E-039
   6.0399999999999998E-010    -1.1269219829324750E-038
   6.0799999999999997E-010    -2.0807851469491458E-038
   6.1199999999999995E-010    -3.1613262526601658E-038
   6.1599999999999994E-010    -4.3112516709233041E-038
   6.1999999999999993E-010    -5.4482545950081318E-038
   6.2399999999999991E-010    -6.4643921634286297E-038
   6.2799999999999990E-010    -7.2275561226814969E-038
   6.3199999999999989E-010    -7.5855744278512302E-038
   6.3599999999999987E-010    -7.3733971011351809E-038
   6.4000000000000006E-010    -6.4236978955052512E-038
   6.4400000000000005E-010    -4.5810262881588035E-038
   6.4800000000000004E-010    -1.7193672917049605E-038
   6.5200000000000002E-010     2.2373575493023220E-038
   6.5600000000000001E-010     7.2927445272418874E-038
   6.6000000000000000E-010     1.3354619872506456E-037
   6.6399999999999978E-010     2.0212815580247975E-037
   6.6800000000000017E-010     2.7520259728380630E-037
   6.7200000000000016E-010     3.4780028339640640E-037
   6.7600000000000015E-010     4.1341295629024358E-037
   6.8000000000000013E-010     4.6407274321406523E-037
   6.8400000000000012E-010     4.9058131926106437E-037
   6.8800000000000011E-010     4.8291498351855902E-037
   6.9200000000000009E-010     4.3082519953786318E-037
   6.9600000000000008E-010     3.2464300791513563E-037
   7.0000000000000006E-010     1.5628179547245071E-037
   7.0400000000000005E-010    -7.9586253024268543E-038
   7.0800000000000004E-010    -3.8422550115341312E-037
   7.1200000000000002E-010    -7.5347446241873289E-037
   7.1600000000000001E-010    -1.1764215844109374E-036
   7.2000000000000000E-010    -1.6342409939915961E-036
   7.2399999999999998E-010    -2.0993318197763503E-036
   7.2799999999999997E-010    -2.5349231829134014E-036
   7.3199999999999995E-010    -2.8953168795567563E-036
   7.3599999999999994E-010    -3.1269383771352471E-036
   7.3999999999999993E-010    -3.1703493031550550E-036
   7.4399999999999991E-010    -2.9633443820681952E-036
   7.4799999999999990E-010    -2.4452056428855538E-036
   7.5199999999999988E-010    -1.5621043911256975E-036
   7.5599999999999987E-010    -2.7356370586225828E-037
   7.5999999999999986E-010     1.4402317821252109E-036
   7.6399999999999984E-010     3.5706146718920666E-036
   7.6799999999999983E-010     6.0725741133046487E-036
   7.7199999999999982E-010     8.8574740548587124E-036
   7.7599999999999980E-010     1.1787097411315192E-035
   7.7999999999999979E-010     1.4669862423321870E-035
   7.8399999999999977E-010     1.7260162948517150E-035
   7.8800000000000017E-010     1.9261769244747158E-035
   7.9200000000000016E-010     2.0336215851203105E-035
   7.9600000000000015E-010     2.0116952864407391E-035
   8.0000000000000013E-010     1.8229819514138320E-035
   8.0400000000000012E-010     1.4320083977330121E-035
   8.0800000000000010E-010     8.0858219936023088E-036
   8.1200000000000009E-010    -6.8310197100515431E-037
   8.1600000000000008E-010    -1.2061872085679156E-035
   8.2000000000000006E-010    -2.5945470559348110E-035
   8.2400000000000005E-010    -4.2004212848533870E-035
   8.2800000000000004E-010    -5.9643676485198308E-035
   8.3200000000000002E-010    -7.7973301094645580E-035
   8.3600000000000001E-010    -9.5788503432645354E-035
   8.3999999999999999E-010    -1.1157144937757239E-034
   8.4399999999999998E-010    -1.2351574619943603E-034
   8.4799999999999997E-010    -1.2957978176399242E-034
   8.5199999999999995E-010    -1.2757283178982972E-034
   8.5599999999999994E-010    -1.1527681649711800E-034
   8.5999999999999993E-010    -9.0604320797904632E-035
   8.6399999999999991E-010    -5.1791552152979234E-035
   8.6799999999999990E-010     2.3785804253525587E-036
   8.7199999999999988E-010     7.2331020046194758E-035
   8.7599999999999987E-010     1.5744279757213417E-034
   8.7999999999999986E-010     2.5579266760896653E-034
   8.8399999999999984E-010     3.6393603566820535E-034
   8.8799999999999983E-010     4.7672820837845784E-034
   8.9199999999999981E-010     5.8722219779735660E-034
   8.9599999999999980E-010     6.8666892804142596E-034
   8.9999999999999979E-010     7.6464732026638980E-034
   9.0399999999999977E-010     8.0935072757968829E-034
   9.0799999999999976E-010     8.0805116347355656E-034
   9.1200000000000016E-010     7.4775734907274477E-034
   9.1600000000000015E-010     6.1607039036997022E-034
   9.2000000000000013E-010     4.0223134573059152E-034
   9.2400000000000012E-010     9.8337690354154404E-035
   9.2800000000000010E-010    -2.9931169548718945E-034
   9.3200000000000009E-010    -7.8880345366929934E-034
   9.3600000000000008E-010    -1.3612081319148083E-033
   9.4000000000000006E-010    -1.9992921794800702E-033
   9.4400000000000005E-010    -2.6764625162361270E-033
   9.4800000000000004E-010    -3.3560782485838789E-033
   9.5200000000000002E-010    -3.9912749881499335E-033
   9.5600000000000001E-010    -4.5254482738383823E-033
   9.5999999999999999E-010    -4.8935355953571654E-033
   9.6399999999999998E-010    -5.0242219144938024E-033
   9.6799999999999997E-010    -4.8431546421648914E-033
   9.7199999999999995E-010    -4.2772198664592091E-033
   9.7599999999999994E-010    -3.2598577911553359E-033
   9.7999999999999992E-010    -1.7373332633993234E-033
   9.8399999999999991E-010     3.2421066325964693E-034
   9.8799999999999990E-010     2.9311974685180939E-033
   9.9199999999999988E-010     6.0549280547314164E-033
   9.9599999999999987E-010     9.6242424479223967E-033
   9.9999999999999986E-010     1.3519107797521702E-032
   1.0039999999999998E-009     1.7565797058737337E-032
   1.0079999999999998E-009     2.1534386475284338E-032
   1.0119999999999998E-009     2.5139322020725080E-032
   1.0159999999999998E-009     2.8043798114926084E-032
   1.0199999999999998E-009     2.9868644361350234E-032
   1.0239999999999998E-009     3.0206231645227010E-032
   1.0279999999999998E-009     2.8639835464246402E-032
   1.0320000000000002E-009     2.4768482940399419E-032
   1.0360000000000001E-009     1.8237132168067515E-032
   1.0400000000000001E-009     8.7714903566939380E-033
   1.0440000000000001E-009    -3.7835519120481886E-033
   1.0480000000000001E-009    -1.9423470454276138E-032
   1.0520000000000001E-009    -3.7943726314210954E-032
   1.0560000000000001E-009    -5.8902035334251937E-032
   1.0600000000000001E-009    -8.1586372668115195E-032
   1.0640000000000000E-009    -1.0499213439496511E-031
   1.0680000000000000E-009    -1.2781214728680027E-031
   1.0720000000000000E-009    -1.4844334267763031E-031
   1.0760000000000000E-009    -1.6501369879399668E-031
   1.0800000000000000E-009    -1.7543283403183213E-031
   1.0840000000000000E-009    -1.7746860216836020E-031
   1.0880000000000000E-009    -1.6885158205493988E-031
   1.0920000000000000E-009    -1.4740732073153308E-031
   1.0959999999999999E-009    -1.1121518973327479E-031
   1.0999999999999999E-009    -5.8790198801714705E-032
   1.1039999999999999E-009     1.0717712272312244E-032