  -1.2000000000000000E-009     0.0000000000000000
  -1.1960000000000000E-009     0.0000000000000000
  -1.1920000000000000E-009     0.0000000000000000
  -1.1880000000000000E-009     0.0000000000000000
  -1.1840000000000000E-009     0.0000000000000000
  -1.1800000000000001E-009     0.0000000000000000
  -1.1760000000000001E-009     0.0000000000000000
  -1.1720000000000001E-009     0.0000000000000000
  -1.1679999999999999E-009     0.0000000000000000
  -1.1639999999999999E-009     0.0000000000000000
  -1.1599999999999999E-009     0.0000000000000000
  -1.1559999999999999E-009     0.0000000000000000
  -1.1520000000000000E-009     0.0000000000000000
  -1.1480000000000000E-009     0.0000000000000000
  -1.1440000000000000E-009     0.0000000000000000
  -1.1400000000000000E-009     0.0000000000000000
  -1.1360000000000000E-009     0.0000000000000000
  -1.1320000000000000E-009     0.0000000000000000
  -1.1280000000000000E-009     0.0000000000000000
  -1.1240000000000000E-009     0.0000000000000000
  -1.1200000000000001E-009     0.0000000000000000
  -1.1160000000000001E-009     0.0000000000000000
  -1.1120000000000001E-009     0.0000000000000000
  -1.1079999999999999E-009     0.0000000000000000
  -1.1039999999999999E-009     0.0000000000000000
  -1.0999999999999999E-009     0.0000000000000000
  -1.0959999999999999E-009     0.0000000000000000
  -1.0920000000000000E-009     0.0000000000000000
  -1.0880000000000000E-009     0.0000000000000000
  -1.0840000000000000E-009     0.0000000000000000
  -1.0800000000000000E-009     0.0000000000000000
  -1.0760000000000000E-009     0.0000000000000000
  -1.0720000000000000E-009     0.0000000000000000
  -1.0680000000000000E-009     0.0000000000000000
  -1.0640000000000000E-009     0.0000000000000000
  -1.0600000000000001E-009     0.0000000000000000
  -1.0560000000000001E-009     0.0000000000000000
  -1.0520000000000001E-009     0.0000000000000000
  -1.0480000000000001E-009     0.0000000000000000
  -1.0439999999999999E-009     0.0000000000000000
  -1.0399999999999999E-009     0.0000000000000000
  -1.0359999999999999E-009     0.0000000000000000
  -1.0320000000000000E-009     0.0000000000000000
  -1.0280000000000000E-009     0.0000000000000000
  -1.0240000000000000E-009     0.0000000000000000
  -1.0200000000000000E-009     0.0000000000000000
  -1.0160000000000000E-009     0.0000000000000000
  -1.0120000000000000E-009     0.0000000000000000
  -1.0080000000000000E-009     0.0000000000000000
  -1.0040000000000000E-009     0.0000000000000000
  -1.0000000000000001E-009     0.0000000000000000
  -9.9600000000000008E-010     0.0000000000000000
  -9.9199999999999988E-010     0.0000000000000000
  -9.8799999999999990E-010     0.0000000000000000
  -9.8399999999999991E-010     0.0000000000000000
  -9.7999999999999992E-010     0.0000000000000000
  -9.7599999999999994E-010     0.0000000000000000
  -9.7199999999999995E-010     0.0000000000000000
  -9.6799999999999997E-010     0.0000000000000000
  -9.6399999999999998E-010     0.0000000000000000
  -9.5999999999999999E-010     0.0000000000000000
  -9.5600000000000001E-010     0.0000000000000000
  -9.5200000000000002E-010     0.0000000000000000
  -9.4800000000000004E-010     0.0000000000000000
  -9.4400000000000005E-010     0.0000000000000000
  -9.4000000000000006E-010     0.0000000000000000
  -9.3600000000000008E-010     0.0000000000000000
  -9.3200000000000009E-010     0.0000000000000000
  -9.2800000000000000E-010     0.0000000000000000
  -9.2400000000000001E-010     0.0000000000000000
  -9.1999999999999992E-010     0.0000000000000000
  -9.1599999999999994E-010     0.0000000000000000
  -9.1199999999999995E-010     0.0000000000000000
  -9.0799999999999997E-010     0.0000000000000000
  -9.0399999999999998E-010     0.0000000000000000
  -8.9999999999999999E-010     0.0000000000000000
  -8.9600000000000001E-010     0.0000000000000000
  -8.9200000000000002E-010     0.0000000000000000
  -8.8800000000000004E-010     0.0000000000000000
  -8.8400000000000005E-010     0.0000000000000000
  -8.8000000000000006E-010     0.0000000000000000
  -8.7599999999999997E-010     0.0000000000000000
  -8.7199999999999999E-010     0.0000000000000000
  -8.6800000000000000E-010     0.0000000000000000
  -8.6400000000000001E-010     0.0000000000000000
  -8.5999999999999993E-010     0.0000000000000000
  -8.5599999999999994E-010     0.0000000000000000
  -8.5199999999999995E-010     0.0000000000000000
  -8.4799999999999997E-010     0.0000000000000000
  -8.4399999999999998E-010     0.0000000000000000
  -8.3999999999999999E-010     0.0000000000000000
  -8.3600000000000001E-010     0.0000000000000000
  -8.3200000000000002E-010     0.0000000000000000
  -8.2800000000000004E-010     0.0000000000000000
  -8.2400000000000005E-010     0.0000000000000000
  -8.2000000000000006E-010     0.0000000000000000
  -8.1599999999999997E-010     0.0000000000000000
  -8.1199999999999999E-010     0.0000000000000000
  -8.0800000000000000E-010     0.0000000000000000
  -8.0400000000000002E-010     0.0000000000000000
  -7.9999999999999993E-010     0.0000000000000000
  -7.9599999999999994E-010     0.0000000000000000
  -7.9199999999999995E-010     0.0000000000000000
  -7.8799999999999997E-010     0.0000000000000000
  -7.8399999999999998E-010     0.0000000000000000
  -7.7999999999999999E-010     0.0000000000000000
  -7.7600000000000001E-010     0.0000000000000000
  -7.7200000000000002E-010     0.0000000000000000
  -7.6800000000000004E-010     0.0000000000000000
  -7.6400000000000005E-010     0.0000000000000000
  -7.6000000000000006E-010     0.0000000000000000
  -7.5600000000000008E-010     0.0000000000000000
  -7.5199999999999999E-010     0.0000000000000000
  -7.4800000000000000E-010     0.0000000000000000
  -7.4400000000000002E-010     0.0000000000000000
  -7.3999999999999993E-010     0.0000000000000000
  -7.3599999999999994E-010     0.0000000000000000
  -7.3199999999999995E-010     0.0000000000000000
  -7.2799999999999997E-010     0.0000000000000000
  -7.2399999999999998E-010     0.0000000000000000
  -7.2000000000000000E-010     0.0000000000000000
  -7.1600000000000001E-010     0.0000000000000000
  -7.1200000000000002E-010     0.0000000000000000
  -7.0800000000000004E-010     0.0000000000000000
  -7.0400000000000005E-010     0.0000000000000000
  -6.9999999999999996E-010     0.0000000000000000
  -6.9599999999999997E-010     0.0000000000000000
  -6.9199999999999999E-010     0.0000000000000000
  -6.8800000000000000E-010     0.0000000000000000
  -6.8400000000000002E-010     0.0000000000000000
  -6.8000000000000003E-010     0.0000000000000000
  -6.7600000000000004E-010     0.0000000000000000
  -6.7199999999999995E-010     0.0000000000000000
  -6.6799999999999997E-010     0.0000000000000000
  -6.6399999999999998E-010     0.0000000000000000
  -6.6000000000000000E-010     0.0000000000000000
  -6.5600000000000001E-010     0.0000000000000000
  -6.5200000000000002E-010     0.0000000000000000
  -6.4800000000000004E-010     0.0000000000000000
  -6.4400000000000005E-010     0.0000000000000000
  -6.3999999999999996E-010     0.0000000000000000
  -6.3599999999999998E-010     0.0000000000000000
  -6.3199999999999999E-010     0.0000000000000000
  -6.2800000000000000E-010     0.0000000000000000
  -6.2400000000000002E-010     0.0000000000000000
  -6.2000000000000003E-010     0.0000000000000000
  -6.1600000000000004E-010     0.0000000000000000
  -6.1199999999999995E-010     0.0000000000000000
  -6.0799999999999997E-010     0.0000000000000000
  -6.0399999999999998E-010     0.0000000000000000
  -6.0000000000000000E-010     0.0000000000000000
  -5.9600000000000001E-010     0.0000000000000000
  -5.9200000000000002E-010     0.0000000000000000
  -5.8800000000000004E-010     0.0000000000000000
  -5.8400000000000005E-010     0.0000000000000000
  -5.7999999999999996E-010     0.0000000000000000
  -5.7599999999999998E-010     0.0000000000000000
  -5.7199999999999999E-010    -1.4012984643248171E-045
  -5.6800000000000000E-010    -2.8025969286496341E-045
  -5.6400000000000002E-010    -1.4012984643248171E-045
  -5.6000000000000003E-010     1.4012984643248171E-045
  -5.5600000000000004E-010     7.0064923216240854E-045
  -5.5199999999999995E-010     1.2611686178923354E-044
  -5.4799999999999997E-010     1.5414283107572988E-044
  -5.4399999999999998E-010     9.8090892502737195E-045
  -5.4000000000000000E-010    -4.2038953929744512E-045
  -5.3600000000000001E-010    -2.6624670822171524E-044
  -5.3200000000000002E-010    -5.1848043180018232E-044
  -5.2800000000000004E-010    -7.0064923216240854E-044
  -5.2400000000000005E-010    -6.8663624751916036E-044
  -5.1999999999999996E-010    -3.3631163143795610E-044
  -5.1599999999999998E-010     4.2038953929744512E-044
  -5.1199999999999999E-010     1.5414283107572988E-043
  -5.0800000000000000E-010     2.7605579747198896E-043
  -5.0400000000000002E-010     3.6573889918877726E-043
  -5.0000000000000003E-010     3.6293630226012762E-043
  -4.9600000000000004E-010     2.0599087425574811E-043
  -4.9199999999999996E-010    -1.4293244336113134E-043
  -4.8799999999999997E-010    -6.7262326287591219E-043
  -4.8399999999999998E-010    -1.2891945871788317E-042
  -4.8000000000000000E-010    -1.8006685266573899E-042
  -4.7600000000000001E-010    -1.9309892838395979E-042
  -4.7200000000000002E-010    -1.3746737935026455E-042
  -4.6800000000000004E-010     1.0089348943138683E-043
  -4.6400000000000005E-010     2.5223372357846707E-042
  -4.5999999999999996E-010     5.5603523064408741E-042
  -4.5599999999999998E-010     8.4330141583067491E-042
  -4.5199999999999999E-010     9.9183905304910552E-042
  -4.4800000000000000E-010     8.5465193339170593E-042
  -4.4400000000000002E-010     3.0043839075124078E-042
  -4.4000000000000003E-010    -7.2797455221674247E-042
  -4.3600000000000005E-010    -2.1449675593419975E-041
  -4.3199999999999996E-010    -3.6662171722130189E-041
  -4.2799999999999997E-010    -4.7918802286051445E-041
  -4.2399999999999998E-010    -4.8566202176569510E-041
  -4.2000000000000000E-010    -3.1731002426171158E-041
  -4.1600000000000001E-010     7.3400013561333918E-042
  -4.1200000000000002E-010     6.8281070271155361E-041
  -4.0800000000000004E-010     1.4266059145905233E-040
  -4.0400000000000005E-010     2.1214117321566973E-040
  -3.9999999999999996E-010     2.4904436827366379E-040
  -3.9599999999999998E-010     2.2050412245076024E-040
  -3.9199999999999999E-010     9.6829723884844860E-041
  -3.8800000000000000E-010    -1.3635334707112633E-040
  -3.8400000000000002E-010    -4.6419132669531025E-040
  -3.8000000000000003E-010    -8.3062667122085694E-040
  -3.7600000000000005E-010    -1.1334682888384148E-039
  -3.7200000000000006E-010    -1.2321477266961684E-039
  -3.6799999999999997E-010    -9.7265387577403445E-040
  -3.6399999999999998E-010    -2.3105730118559044E-040
  -3.6000000000000000E-010     1.0283737066109822E-039
  -3.5600000000000001E-010     2.6912889890313853E-039
  -3.5200000000000003E-010     4.4455507144457302E-039
  -3.4800000000000004E-010     5.7708525591548195E-039
  -3.4400000000000005E-010     5.9893191936384515E-039
  -3.3999999999999996E-010     4.3942407698760127E-039
  -3.3599999999999998E-010     4.5867721723819210E-040
  -3.3199999999999999E-010    -5.8983160687682692E-039
  -3.2800000000000000E-010    -1.4039700398470523E-038
  -3.2400000000000002E-010    -2.2413700273250697E-038
  -3.2000000000000003E-010    -2.8532852572205772E-038
  -3.1600000000000005E-010    -2.9228591654549186E-038
  -3.1200000000000006E-010    -2.1249996167447546E-038
  -3.0799999999999997E-010    -2.2076854747097833E-039
  -3.0399999999999998E-010     2.8238406133687984E-038
  -3.0000000000000000E-010     6.7173085996189158E-038
  -2.9600000000000001E-010     1.0754877151630026E-037
  -2.9200000000000003E-010     1.3806555442832782E-037
  -2.8800000000000004E-010     1.4423551640830085E-037
  -2.8400000000000005E-010     1.1093334451276556E-037
  -2.7999999999999996E-010     2.6462551800236858E-038
  -2.7599999999999998E-010    -1.1225097985357633E-037
  -2.7199999999999999E-010    -2.9424072790322498E-037
  -2.6800000000000011E-010    -4.9027460305319296E-037
  -2.6399999999999992E-010    -6.5161661059458544E-037
  -2.5999999999999993E-010    -7.1363166828382909E-037
  -2.5599999999999994E-010    -6.0567402029641428E-037
  -2.5199999999999996E-010    -2.6768791566630403E-037
  -2.4799999999999997E-010     3.2767073184986983E-037
  -2.4399999999999998E-010     1.1506641491823672E-036
  -2.4000000000000000E-010     2.0933418854126860E-036
  -2.3600000000000001E-010     2.9589477576896313E-036
  -2.3200000000000003E-010     3.4699195614816773E-036
  -2.2800000000000004E-010     3.3015348744871180E-036
  -2.2400000000000005E-010     2.1449215070692659E-036
  -2.2000000000000007E-010    -2.0271892081426366E-037
  -2.1600000000000008E-010    -3.7309447401552377E-036
  -2.1200000000000010E-010    -8.1115531516820760E-036
  -2.0800000000000011E-010    -1.2624995868682939E-035
  -2.0399999999999992E-010    -1.6151679811297647E-035
  -1.9999999999999993E-010    -1.7261795898433209E-035
  -1.9599999999999994E-010    -1.4428498650403884E-035
  -1.9199999999999996E-010    -6.3700465045159118E-036
  -1.8799999999999997E-010     7.5029413820227249E-036
  -1.8399999999999998E-010     2.6596354638367872E-035
  -1.8000000000000000E-010     4.8698412108289382E-035
  -1.7600000000000001E-010     6.9736833731568293E-035
  -1.7200000000000003E-010     8.3877921717308724E-035
  -1.6800000000000004E-010     8.4106023870609644E-035
  -1.6400000000000005E-010     6.3370320741260022E-035
  -1.6000000000000007E-010     1.6290847896147318E-035
  -1.5600000000000008E-010    -5.8721556268275918E-035
  -1.5200000000000010E-010    -1.5724193038316261E-034
  -1.4800000000000011E-010    -2.6698307536343219E-034
  -1.4399999999999992E-010    -3.6693409727577913E-034
  -1.3999999999999993E-010    -4.2814892986755941E-034
  -1.3599999999999994E-010    -4.1677074148232469E-034
  -1.3199999999999996E-010    -2.9963222432765487E-034
  -1.2799999999999997E-010    -5.2338128327519048E-035
  -1.2399999999999999E-010     3.3087197393234086E-034
  -1.2000000000000000E-010     8.2690425615082289E-034
  -1.1600000000000001E-010     1.3753846856212212E-033
  -1.1200000000000003E-010     1.8747500223783874E-033
  -1.0800000000000004E-010     2.1858080517960349E-033
  -1.0400000000000005E-010     2.1453960253827031E-033
  -1.0000000000000007E-010     1.5917345127255594E-033
  -9.6000000000000082E-011     4.0123088983544637E-034
  -9.2000000000000096E-011    -1.4661052988558544E-033
  -8.8000000000000110E-011    -3.9186107028278999E-033
  -8.3999999999999917E-011    -6.6914744087490089E-033
  -7.9999999999999931E-011    -9.3237008685117854E-033
  -7.5999999999999944E-011    -1.1166781236369097E-032
  -7.1999999999999958E-011    -1.1437514483094763E-032
  -6.7999999999999972E-011    -9.3236398897423365E-033
  -6.3999999999999986E-011    -4.1437755437019552E-033
  -6.0000000000000000E-011     4.4474924272277252E-033
  -5.6000000000000013E-011     1.6231769662291401E-032
  -5.2000000000000027E-011     3.0213222897878525E-032
  -4.8000000000000041E-011     4.4469292184968875E-032
  -4.4000000000000055E-011     5.6124688954092365E-032
  -4.0000000000000069E-011     6.1508494223160720E-032
  -3.6000000000000082E-011     5.6543353022081230E-032
  -3.2000000000000096E-011     3.7390970666887913E-032
  -2.8000000000000110E-011     1.3376730819724152E-033
  -2.3999999999999917E-011    -5.2150172107281341E-032
  -1.9999999999999931E-011    -1.2033435752347937E-031
  -1.5999999999999945E-011    -1.9627447817628987E-031
  -1.1999999999999959E-011    -2.6830990046925644E-031
  -7.9999999999999724E-012    -3.2023292004818488E-031
  -3.9999999999999862E-012    -3.3241842362722695E-031
   0.0000000000000000         -2.8410666375334667E-031
   3.9999999999999862E-012    -1.5690212949648644E-031
   7.9999999999999724E-012     6.0650453876721500E-032
   1.1999999999999959E-011     3.6780929065619074E-031
   1.5999999999999945E-011     7.4638690890207219E-031
   1.9999999999999931E-011     1.1564846323389817E-030
   2.3999999999999917E-011     1.5344112383034908E-030
   2.7999999999999903E-011     1.7940906357391230E-030
   3.1999999999999889E-011     1.8331729076779740E-030
   3.6000000000000082E-011     1.5447263422912785E-030
   4.0000000000000069E-011     8.3474863117428741E-031
   4.4000000000000055E-011    -3.5518692635660908E-031
   4.8000000000000041E-011    -2.0220233161827756E-030
   5.2000000000000027E-011    -4.0752572298940077E-030
   5.6000000000000013E-011    -6.3154357466289402E-030
   6.0000000000000000E-011    -8.4227010230768487E-030
   6.3999999999999986E-011    -9.9615009930490215E-030
   6.7999999999999972E-011    -1.0407287571332828E-029
   7.1999999999999958E-011    -9.1996813479534217E-030
   7.5999999999999944E-011    -5.8238692117139412E-030
   7.9999999999999931E-011     8.1964723157342611E-032
   8.3999999999999917E-011     8.6005945076783136E-030
   8.7999999999999903E-011     1.9404529608006847E-029
   9.1999999999999889E-011     3.1639213237579968E-029
   9.6000000000000082E-011     4.3845639863750283E-029
   1.0000000000000007E-010     5.3950792661159056E-029
   1.0400000000000005E-010     5.9354627084431525E-029
   1.0800000000000004E-010     5.7137953940814731E-029
   1.1200000000000003E-010     4.4406070431239278E-029
   1.1600000000000001E-010     1.8767105477092665E-029
   1.2000000000000000E-010    -2.1077246408323002E-029
   1.2399999999999999E-010    -7.4677373870224983E-029
   1.2799999999999997E-010    -1.3919482931951322E-028
   1.3199999999999996E-010    -2.0887962101343425E-028
   1.3599999999999994E-010    -2.7479228631827843E-028
   1.3999999999999993E-010    -3.2490861866400434E-028
   1.4399999999999992E-010    -3.4473888411401460E-028
   1.4799999999999990E-010    -3.1856706098787188E-028
   1.5199999999999989E-010    -2.3136181977449281E-028
   1.5600000000000008E-010    -7.1331726611739467E-029
   1.6000000000000007E-010     1.6700792994426274E-028
   1.6400000000000005E-010     4.7951466717613131E-028
   1.6800000000000004E-010     8.4923447563517678E-028
   1.7200000000000003E-010     1.2438684990408044E-027
   1.7600000000000001E-010     1.6145039908919088E-027
   1.8000000000000000E-010     1.8962658084188115E-027
   1.8399999999999998E-010     2.0115184637087991E-027
   1.8799999999999997E-010     1.8761126848877490E-027
   1.9199999999999996E-010     1.4089327323369429E-027
   1.9599999999999994E-010     5.4463059933710680E-028
   1.9999999999999993E-010    -7.5104897817811137E-028
   2.0399999999999992E-010    -2.4645158681491375E-027
   2.0799999999999990E-010    -4.5179365970649752E-027
   2.1199999999999989E-010    -6.7555605843957968E-027
   2.1600000000000008E-010    -8.9356223775487727E-027
   2.2000000000000007E-010    -1.0730941916083488E-026
   2.2400000000000005E-010    -1.1741299401976610E-026
   2.2800000000000004E-010    -1.1520188007293378E-026
   2.3200000000000003E-010    -9.6175841560205821E-027
   2.3600000000000001E-010    -5.6388771285049228E-027
   2.4000000000000000E-010     6.8199687854504586E-028
   2.4399999999999998E-010     9.3996212716104343E-027
   2.4799999999999997E-010     2.0271594415289533E-026
   2.5199999999999996E-010     3.2680513580628089E-026
   2.5599999999999994E-010     4.5576044368691347E-026
   2.5999999999999993E-010     5.7451482480178594E-026
   2.6399999999999992E-010     6.6369850836541590E-026
   2.6799999999999990E-010     7.0053553930011724E-026
   2.7199999999999989E-010     6.6048722818358418E-026
   2.7600000000000008E-010     5.1969718864676893E-026
   2.8000000000000007E-010     2.5821706973401604E-026
   2.8400000000000005E-010    -1.3611217140605243E-026
   2.8800000000000004E-010    -6.6336780308280528E-026
   2.9200000000000003E-010    -1.3072174617372126E-025
   2.9600000000000001E-010    -2.0310608209284579E-025
   3.0000000000000000E-010    -2.7752617218550630E-025
   3.0399999999999998E-010    -3.4561628213730203E-025
   3.0799999999999997E-010    -3.9676082168023864E-025
   3.1199999999999996E-010    -4.1856323611922052E-025
   3.1599999999999994E-010    -3.9768440523692942E-025
   3.1999999999999993E-010    -3.2107698874336571E-025
   3.2399999999999992E-010    -1.7760704080009496E-025
   3.2799999999999990E-010     3.9993140156974161E-026
   3.3199999999999989E-010     3.3295107100017211E-025
   3.3600000000000008E-010     6.9423097527154255E-025
   3.4000000000000007E-010     1.1064923960494050E-024
   3.4400000000000005E-010     1.5405164677462456E-024
   3.4800000000000004E-010     1.9544257696513082E-024
   3.5200000000000003E-010     2.2940412361864005E-024
   3.5600000000000001E-010     2.4947069400910902E-024
   3.6000000000000000E-010     2.4848605754873478E-024
   3.6399999999999998E-010     2.1915271838311196E-024
   3.6799999999999997E-010     1.5477721145296290E-024
   3.7199999999999996E-010     5.0194677057340642E-025
   3.7599999999999994E-010    -9.7166896759898711E-025
   3.7999999999999993E-010    -2.8614964954435571E-024
   3.8399999999999991E-010    -5.1075110908591972E-024
   3.8799999999999990E-010    -7.5915335016347477E-024
   3.9199999999999989E-010    -1.0130410538746199E-023
   3.9599999999999987E-010    -1.2473672948329091E-023
   4.0000000000000007E-010    -1.4307322535669252E-023
   4.0400000000000005E-010    -1.5265252110097231E-023
   4.0800000000000004E-010    -1.4949537354053298E-023
   4.1200000000000002E-010    -1.2960323607342649E-023
   4.1600000000000001E-010    -8.9353241326598168E-024
   4.2000000000000000E-010    -2.5980157698083813E-024
   4.2399999999999998E-010     6.1874861247948242E-024
   4.2799999999999997E-010     1.7358125335197542E-023
   4.3199999999999996E-010     3.0594701720661347E-023
   4.3599999999999994E-010     4.5271553525606899E-023
   4.3999999999999993E-010     6.0419879094610461E-023
   4.4399999999999991E-010     7.4712259027013016E-023
   4.4799999999999990E-010     8.6476106255354283E-023
   4.5199999999999989E-010     9.3743332727965431E-023
   4.5599999999999987E-010     9.4342437875600960E-023
   4.6000000000000007E-010     8.6037032586395510E-023
   4.6400000000000005E-010     6.6711972514172570E-023
   4.6800000000000004E-010     3.4604169312981283E-023
   4.7200000000000002E-010    -1.1429474334167047E-023
   4.7600000000000001E-010    -7.1619924278546650E-023
   4.8000000000000000E-010    -1.4498834297629757E-022
   4.8399999999999998E-010    -2.2906725871286624E-022
   4.8799999999999997E-010    -3.1967001627028923E-022
   4.9199999999999996E-010    -4.1074195042881423E-022
   4.9599999999999994E-010    -4.9432891988311259E-022
   4.9999999999999993E-010    -5.6069900639184962E-022
   5.0399999999999991E-010    -5.9864960255086895E-022
   5.0799999999999990E-010    -5.9602588904542732E-022
   5.1199999999999989E-010    -5.4046645335603491E-022
   5.1599999999999987E-010    -4.2037658003242984E-022
   5.2000000000000007E-010    -2.2611325861273943E-022
   5.2400000000000005E-010     4.8657918821554482E-023
   5.2800000000000004E-010     4.0549505353245926E-022
   5.3200000000000002E-010     8.3968934642428931E-022
   5.3600000000000001E-010     1.3388633111477500E-021
   5.4000000000000000E-010     1.8817922727055229E-021
   5.4399999999999998E-010     2.4375988773591621E-021
   5.4799999999999997E-010     2.9654838954229102E-021
   5.5199999999999995E-010     3.4151512721412052E-021
   5.5599999999999994E-010     3.7280787869694873E-021
   5.5999999999999993E-010     3.8397562475998155E-021
   5.6399999999999991E-010     3.6829715941912051E-021
   5.6799999999999990E-010     3.1921687437149111E-021
   5.7199999999999989E-010     2.3088268892651160E-021
   5.7599999999999987E-010     9.8772554501577327E-022
   5.8000000000000007E-010    -7.9614447689157913E-022
   5.8400000000000005E-010    -3.0403586850399477E-021
   5.8800000000000004E-010    -5.7079727416192386E-021
   5.9200000000000002E-010    -8.7211122165757550E-021
   5.9600000000000001E-010    -1.1955858547514056E-020
   6.0000000000000000E-010    -1.5239117728908885E-020
   6.0399999999999998E-010    -1.8348160071720402E-020
   6.0799999999999997E-010    -2.1013533106996592E-020
   6.1199999999999995E-010    -2.2925931062366577E-020
   6.1599999999999994E-010    -2.3747510434326399E-020
   6.1999999999999993E-010    -2.3127948924349913E-020
   6.2399999999999991E-010    -2.0725244507650523E-020
   6.2799999999999990E-010    -1.6231021990046471E-020
   6.3199999999999989E-010    -9.3996523504621249E-021
   6.3599999999999987E-010    -8.0179847650212607E-023
   6.4000000000000006E-010     1.1750422910948970E-020
   6.4400000000000005E-010     2.5954543015304383E-020
   6.4800000000000004E-010     4.2203995623374302E-020
   6.5200000000000002E-010     5.9955472514521271E-020
   6.5600000000000001E-010     7.8434105787587708E-020
   6.6000000000000000E-010     9.6628079070010799E-020
   6.6399999999999978E-010     1.1329701564622167E-019
   6.6800000000000017E-010     1.2699670340314249E-019
   6.7200000000000016E-010     1.3612223746900992E-019
   6.7600000000000015E-010     1.3897080192939819E-019
   6.8000000000000013E-010     1.3382462699537024E-019
   6.8400000000000012E-010     1.1905333967958405E-019
   6.8800000000000011E-010     9.3233446158366814E-020
   6.9200000000000009E-010     5.5281708183140598E-020
   6.9600000000000008E-010     4.5970247503143404E-021
   7.0000000000000006E-010    -5.8795668360493893E-020
   7.0400000000000005E-010    -1.3410778125880480E-019
   7.0800000000000004E-010    -2.1966499779502805E-019
   7.1200000000000002E-010    -3.1281116993642199E-019
   7.1600000000000001E-010    -4.0984922685987792E-019
   7.2000000000000000E-010    -5.0602980768084606E-019
   7.2399999999999998E-010    -5.9559801008264188E-019
   7.2799999999999997E-010    -6.7190754124097835E-019
   7.3199999999999995E-010    -7.2760864291938040E-019
   7.3599999999999994E-010    -7.5491475381915668E-019
   7.3999999999999993E-010    -7.4594723709968102E-019
   7.4399999999999991E-010    -6.9315532963562797E-019
   7.4799999999999990E-010    -5.8980200722927109E-019
   7.5199999999999988E-010    -4.3050196220137220E-019
   7.5599999999999987E-010    -2.1179268113126968E-019
   7.5999999999999986E-010     6.7287278346764530E-020
   7.6399999999999984E-010     4.0464153036779133E-019
   7.6799999999999983E-010     7.9461513222227439E-019
   7.7199999999999982E-010     1.2275872108290948E-018
   7.7599999999999980E-010     1.6896950721518705E-018
   7.7999999999999979E-010     2.1627300927640482E-018
   7.8399999999999977E-010     2.6242404194918309E-018
   7.8800000000000017E-010     3.0478747663562699E-018
   7.9200000000000016E-010     3.4039904957210680E-018
   7.9600000000000015E-010     3.6605434578365335E-018
   8.0000000000000013E-010     3.7842665164173149E-018
   8.0400000000000012E-010     3.7421208370271256E-018
   8.0800000000000010E-010     3.5030027742727466E-018
   8.1200000000000009E-010     3.0396598288978527E-018
   8.1600000000000008E-010     2.3307559109774042E-018
   8.2000000000000006E-010     1.3630124969332405E-018
   8.2400000000000005E-010     1.3333069677209952E-019
   8.2800000000000004E-010    -1.3492142971352434E-018
   8.3200000000000002E-010    -3.0616227149320544E-018
   8.3600000000000001E-010    -4.9655904461645080E-018
   8.3999999999999999E-010    -7.0066267611855205E-018
   8.4399999999999998E-010    -9.1137965797704538E-018
   8.4799999999999997E-010    -1.1200196720354793E-017
   8.5199999999999995E-010    -1.3164265120148665E-017
   8.5599999999999994E-010    -1.4891990648143274E-017
   8.5999999999999993E-010    -1.6260076243773302E-017
   8.6399999999999991E-010    -1.7140042559935789E-017
   8.6799999999999990E-010    -1.7403236541599136E-017
   8.7199999999999988E-010    -1.6926663049121610E-017
   8.7599999999999987E-010    -1.5599486497866004E-017
   8.7999999999999986E-010    -1.3330020534375716E-017
   8.8399999999999984E-010    -1.0052960903650910E-017
   8.8799999999999983E-010    -5.7365674448170077E-018
   8.9199999999999981E-010    -3.8948471226307007E-019
   8.9599999999999980E-010     5.9331754551213678E-018
   8.9999999999999979E-010     1.3124850791141126E-017
   9.0399999999999977E-010     2.1024021149703002E-017
   9.0799999999999976E-010     2.9412557348915537E-017
   9.1200000000000016E-010     3.8016248188536790E-017
   9.1600000000000015E-010     4.6507806424320354E-017
   9.2000000000000013E-010     5.4512552326004210E-017
   9.2400000000000012E-010     6.1616941909426148E-017
   9.2800000000000010E-010     6.7379915854527992E-017
   9.3200000000000009E-010     7.1347080689777213E-017
   9.3600000000000008E-010     7.3067364900981295E-017
   9.4000000000000006E-010     7.2111924971368245E-017
   9.4400000000000005E-010     6.8094778574786120E-017
   9.4800000000000004E-010     6.0694529647311115E-017
   9.5200000000000002E-010     4.9676470653214986E-017
   9.5600000000000001E-010     3.4914224938511880E-017
   9.5999999999999999E-010     1.6409977914380162E-017
   9.6399999999999998E-010    -5.6876678357253229E-018
   9.6799999999999997E-010    -3.1069244605904091E-017
   9.7199999999999995E-010    -5.9254328791517489E-017
   9.7599999999999994E-010    -8.9586770538596097E-017
   9.7999999999999992E-010    -1.2123606396852442E-016
   9.8399999999999991E-010    -1.5320553585251487E-016
   9.8799999999999990E-010    -1.8434785359373190E-016
   9.9199999999999988E-010    -2.1338813996232917E-016
   9.9599999999999987E-010    -2.3895463833511815E-016
   9.9999999999999986E-010    -2.5961678947352513E-016
   1.0039999999999998E-009    -2.7392997868600790E-016
   1.0079999999999998E-009    -2.8048609310709499E-016
   1.0119999999999998E-009    -2.7796884353675322E-016
   1.0159999999999998E-009    -2.6521213030440943E-016
   1.0199999999999998E-009    -2.4125983850107073E-016
   1.0239999999999998E-009    -2.0542486558783627E-016
   1.0279999999999998E-009    -1.5734534320777126E-016
   1.0320000000000002E-009    -9.7035935618775037E-017