  -1.2000000000000000E-009     0.0000000000000000
  -1.1960000000000000E-009     0.0000000000000000
  -1.1920000000000000E-009     0.0000000000000000
  -1.1880000000000000E-009     0.0000000000000000
  -1.1840000000000000E-009     0.0000000000000000
  -1.1800000000000001E-009     0.0000000000000000
  -1.1760000000000001E-009     0.0000000000000000
  -1.1720000000000001E-009     0.0000000000000000
  -1.1679999999999999E-009     8.8617865062653289E-034
  -1.1639999999999999E-009     1.4165459243793091E-032
  -1.1599999999999999E-009     1.1890434513581704E-031
  -1.1559999999999999E-009     6.9646220620965462E-031
  -1.1520000000000000E-009     3.1925275524265004E-030
  -1.1480000000000000E-009     1.2180947174859179E-029
  -1.1440000000000000E-009     4.0186427136194220E-029
  -1.1400000000000000E-009     1.1760545556948611E-028
  -1.1360000000000000E-009     3.1086613380874230E-028
  -1.1320000000000000E-009     7.5206996178987966E-028
  -1.1280000000000000E-009     1.6817526497250501E-027
  -1.1240000000000000E-009     3.5017789805513373E-027
  -1.1200000000000001E-009     6.8264440508129801E-027
  -1.1160000000000001E-009     1.2505923634405475E-026
  -1.1120000000000001E-009     2.1578080578315703E-026
  -1.1079999999999999E-009     3.5085577917323937E-026
  -1.1039999999999999E-009     5.3681879829700879E-026
  -1.0999999999999999E-009     7.6952247316758446E-026
  -1.0959999999999999E-009     1.0240756229605191E-025
  -1.0920000000000000E-009     1.2418348210197485E-025
  -1.0880000000000000E-009     1.3160628111560360E-025
  -1.0840000000000000E-009     1.0797107162285714E-025
  -1.0800000000000000E-009     3.0106180031492025E-026
  -1.0760000000000000E-009    -1.3046789319961146E-025
  -1.0720000000000000E-009    -4.0379354130218724E-025
  -1.0680000000000000E-009    -8.1411263861997585E-025
  -1.0640000000000000E-009    -1.3680560910772806E-024
  -1.0600000000000001E-009    -2.0381205590364103E-024
  -1.0560000000000001E-009    -2.7421759587177688E-024
  -1.0520000000000001E-009    -3.3212373340429894E-024
  -1.0480000000000001E-009    -3.5196488679110101E-024
  -1.0439999999999999E-009    -2.9739831301474157E-024
  -1.0399999999999999E-009    -1.2189943149333023E-024
  -1.0359999999999999E-009     2.2796052788360823E-024
  -1.0320000000000000E-009     8.0556385159770890E-024
  -1.0280000000000000E-009     1.6528153732761843E-023
  -1.0240000000000000E-009     2.7838790904722776E-023
  -1.0200000000000000E-009     4.1645030571117451E-023
  -1.0160000000000000E-009     5.6884608414193359E-023
  -1.0120000000000000E-009     7.1540299814217262E-023
  -1.0080000000000000E-009     8.2449886412851074E-023
  -1.0040000000000000E-009     8.5221325166848016E-023
  -1.0000000000000001E-009     7.4325010364083642E-023
  -9.9600000000000008E-010     4.3439809037352847E-023
  -9.9199999999999988E-010    -1.3876872694126354E-023
  -9.8799999999999990E-010    -1.0314598042746089E-022
  -9.8399999999999991E-010    -2.2754166483104122E-022
  -9.7999999999999992E-010    -3.8613410975537963E-022
  -9.7599999999999994E-010    -5.7192839720146003E-022
  -9.7199999999999995E-010    -7.6991885289549177E-022
  -9.6799999999999997E-010    -9.5547489172642094E-022
  -9.6399999999999998E-010    -1.0934624917547783E-021
  -9.5999999999999999E-010    -1.1385700884298440E-021
  -9.5600000000000001E-010    -1.0373240700262771E-021
  -9.5200000000000002E-010    -7.3223624225230687E-022
  -9.4800000000000004E-010    -1.6839235666481593E-022
  -9.4400000000000005E-010     6.9743286031720832E-022
  -9.4000000000000006E-010     1.8853794819879397E-021
  -9.3600000000000008E-010     3.3794875900573088E-021
  -9.3200000000000009E-010     5.1142186205195540E-021
  -9.2800000000000000E-010     6.9621764596735304E-021
  -9.2400000000000001E-010     8.7251754182174950E-021
  -9.1999999999999992E-010     1.0131165163088133E-020
  -9.1599999999999994E-010     1.0839688170798850E-020
  -9.1199999999999995E-010     1.0458427378658661E-020
  -9.0799999999999997E-010     8.5728853282153738E-021
  -9.0399999999999998E-010     4.7903325781620781E-021
  -8.9999999999999999E-010    -1.2022750115257355E-021
  -8.9600000000000001E-010    -9.5685135176965829E-021
  -8.9200000000000002E-010    -2.0245167944052925E-020
  -8.8800000000000004E-010    -3.2864073144839321E-020
  -8.8400000000000005E-010    -4.6682248062159824E-020
  -8.8000000000000006E-010    -6.0531442252451066E-020
  -8.7599999999999997E-010    -7.2799752120485689E-020
  -8.7199999999999999E-010    -8.1458258720035971E-020
  -8.6800000000000000E-010    -8.4144753941500673E-020
  -8.6400000000000001E-010    -7.8314028889448272E-020
  -8.5999999999999993E-010    -6.1459609985569454E-020
  -8.5599999999999994E-010    -3.1405647096157496E-020
  -8.5199999999999995E-010     1.3340725298402615E-020
  -8.4799999999999997E-010     7.3195435258970137E-020
  -8.4399999999999998E-010     1.4709119522874005E-019
  -8.3999999999999999E-010     2.3209822033534190E-019
  -8.3600000000000001E-010     3.2311990832036409E-019
  -8.3200000000000002E-010     4.1271781167602939E-019
  -8.2800000000000004E-010     4.9112292736808653E-019
  -8.2400000000000005E-010     5.4648690124808494E-019
  -8.2000000000000006E-010     5.6541961790335177E-019
  -8.1599999999999997E-010     5.3384148103125710E-019
  -8.1199999999999999E-010     4.3815906973419901E-019
  -8.0800000000000000E-010     2.6674095797936898E-019
  -8.0400000000000002E-010     1.1637231645174184E-020
  -7.9999999999999993E-010    -3.2955247835388271E-019
  -7.9599999999999994E-010    -7.5179648970498490E-019
  -7.9199999999999995E-010    -1.2409050254863517E-018
  -7.8799999999999997E-010    -1.7721596025494257E-018
  -7.8399999999999998E-010    -2.3095192895210240E-018
  -7.7999999999999999E-010    -2.8056223094657743E-018
  -7.7600000000000001E-010    -3.2027961825104076E-018
  -7.7200000000000002E-010    -3.4352440676003122E-018
  -7.6800000000000004E-010    -3.4325189210722562E-018
  -7.6400000000000005E-010    -3.1243170083041329E-018
  -7.6000000000000006E-010    -2.4465123930786874E-018
  -7.5600000000000008E-010    -1.3482377070245480E-018
  -7.5199999999999999E-010     2.0031522701466964E-019
  -7.4800000000000000E-010     2.1998370014528708E-018
  -7.4400000000000002E-010     4.6141681395953358E-018
  -7.3999999999999993E-010     7.3635824924623662E-018
  -7.3599999999999994E-010     1.0319851555471757E-017
  -7.3199999999999995E-010     1.3303875836754753E-017
  -7.2799999999999997E-010     1.6086656173990335E-017
  -7.2399999999999998E-010     1.8394279979137693E-017
  -7.2000000000000000E-010     1.9917442087286713E-017
  -7.1600000000000001E-010     2.0325812883898017E-017
  -7.1200000000000002E-010     1.9287251228890739E-017
  -7.0800000000000004E-010     1.6491539577139115E-017
  -7.0400000000000005E-010     1.1677931574412344E-017
  -6.9999999999999996E-010     4.6653813728603314E-018
  -6.9599999999999997E-010    -4.6160429444536872E-018
  -6.9199999999999999E-010    -1.6094471376417736E-017
  -6.8800000000000000E-010    -2.9528455278901567E-017
  -6.8400000000000002E-010    -4.4484525954738098E-017
  -6.8000000000000003E-010    -6.0322609391572573E-017
  -6.7600000000000004E-010    -7.6191798128161491E-017
  -6.7199999999999995E-010    -9.1038710741643075E-017
  -6.6799999999999997E-010    -1.0363043783772949E-016
  -6.6399999999999998E-010    -1.1259335005632537E-016
  -6.6000000000000000E-010    -1.1646845961556479E-016
  -6.5600000000000001E-010    -1.1378311370986244E-016
  -6.5200000000000002E-010    -1.0313772274277860E-016
  -6.4800000000000004E-010    -8.3305352872770517E-017
  -6.4400000000000005E-010    -5.3340642538808483E-017
  -6.3999999999999996E-010    -1.2693619203940694E-017
  -6.3599999999999998E-010     3.8677155571799308E-017
  -6.3199999999999999E-010     1.0019849194602658E-016
  -6.2800000000000000E-010     1.7059063563200317E-016
  -6.2400000000000002E-010     2.4779684174128539E-016
  -6.2000000000000003E-010     3.2894225398111254E-016
  -6.1600000000000004E-010     4.1032880591311115E-016
  -6.1199999999999995E-010     4.8747333743592142E-016
  -6.0799999999999997E-010     5.5519378038758034E-016
  -6.0399999999999998E-010     6.0774725138570376E-016
  -6.0000000000000000E-010     6.3902224889717430E-016
  -5.9600000000000001E-010     6.4278397515548985E-016
  -5.9200000000000002E-010     6.1296963302200015E-016
  -5.8800000000000004E-010     5.4402782149995973E-016
  -5.8400000000000005E-010     4.3129186550603022E-016
  -5.7999999999999996E-010     2.7137590965224017E-016
  -5.7599999999999998E-010     6.2577490506502325E-017
  -5.7199999999999999E-010    -1.9473132609165695E-016
  -5.6800000000000000E-010    -4.9774435307520866E-016
  -5.6400000000000002E-010    -8.4091578118834819E-016
  -5.6000000000000003E-010    -1.2157308249636915E-015
  -5.5600000000000004E-010    -1.6105768215130597E-015
  -5.5199999999999995E-010    -2.0107355145867253E-015
  -5.4799999999999997E-010    -2.3985165152021638E-015
  -5.4399999999999998E-010    -2.7535484692196724E-015
  -5.4000000000000000E-010    -3.0532386785953741E-015
  -5.3600000000000001E-010    -3.2734068937840003E-015
  -5.3200000000000002E-010    -3.3890921126211509E-015
  -5.2800000000000004E-010    -3.3755226448061370E-015
  -5.2400000000000005E-010    -3.2092295367111470E-015
  -5.1999999999999996E-010    -2.8692800631106852E-015
  -5.1599999999999998E-010    -2.3385887224256852E-015
  -5.1199999999999999E-010    -1.6052675131205513E-015
  -5.0800000000000000E-010    -6.6395667540285436E-016
  -5.0400000000000002E-010     4.8291958243236390E-016
  -5.0000000000000003E-010     1.8240380180670895E-015
  -4.9600000000000004E-010     3.3382671711705775E-015
  -4.9199999999999996E-010     4.9940296005296283E-015
  -4.8799999999999997E-010     6.7489988580117077E-015
  -4.8399999999999998E-010     8.5501877388101388E-015
  -4.8000000000000000E-010     1.0334470265497848E-014
  -4.7600000000000001E-010     1.2029570387235046E-014
  -4.7200000000000002E-010     1.3555546828525767E-014
  -4.6800000000000004E-010     1.4826754394007234E-014
  -4.6400000000000005E-010     1.5754279188173216E-014
  -4.5999999999999996E-010     1.6248797351571011E-014
  -4.5599999999999998E-010     1.6223799715231642E-014
  -4.5199999999999999E-010     1.5599099364104439E-014
  -4.4800000000000000E-010     1.4304521312575279E-014
  -4.4400000000000002E-010     1.2283668412950074E-014
  -4.4000000000000003E-010     9.4976161131707024E-015
  -4.3600000000000005E-010     5.9284183261836855E-015
  -4.3199999999999996E-010     1.5822759684376358E-015
  -4.2799999999999997E-010    -3.5077671460038724E-015
  -4.2399999999999998E-010    -9.2797312870496369E-015
  -4.2000000000000000E-010    -1.5641330732788644E-014
  -4.1600000000000001E-010    -2.2469425950931432E-014
  -4.1200000000000002E-010    -2.9610374482208490E-014
  -4.0800000000000004E-010    -3.6881345959020873E-014
  -4.0400000000000005E-010    -4.4072611635496625E-014
  -3.9999999999999996E-010    -5.0950827487194345E-014
  -3.9599999999999998E-010    -5.7263269375839448E-014
  -3.9199999999999999E-010    -6.2742949128325592E-014
  -3.8800000000000000E-010    -6.7114560708004395E-014
  -3.8400000000000002E-010    -7.0101131117387278E-014
  -3.8000000000000003E-010    -7.1431203237538182E-014
  -3.7600000000000005E-010    -7.0846513334707484E-014
  -3.7200000000000006E-010    -6.8109858302346088E-014
  -3.6799999999999997E-010    -6.3013139085972558E-014
  -3.6399999999999998E-010    -5.5385278747164049E-014
  -3.6000000000000000E-010    -4.5099930463376320E-014
  -3.5600000000000001E-010    -3.2082751846894755E-014
  -3.5200000000000003E-010    -1.6318120222040197E-014
  -3.4800000000000004E-010     2.1449209917830938E-015
  -3.4400000000000005E-010     2.3187591305590463E-014
  -3.3999999999999996E-010     4.6617362883328087E-014
  -3.3599999999999998E-010     7.2165120016884354E-014
  -3.3199999999999999E-010     9.9483646960520783E-014
  -3.2800000000000000E-010     1.2814756037999447E-013
  -3.2400000000000002E-010     1.5765473236790950E-013
  -3.2000000000000003E-010     1.8742948545199395E-013
  -3.1600000000000005E-010     2.1682742407103106E-013
  -3.1200000000000006E-010     2.4514212274701075E-013
  -3.0799999999999997E-010     2.7161373193987370E-013
  -3.0399999999999998E-010     2.9543942704594872E-013
  -3.0000000000000000E-010     3.1578575475019188E-013
  -2.9600000000000001E-010     3.3180297159991767E-013
  -2.9200000000000003E-010     3.4264109019695177E-013
  -2.8800000000000004E-010     3.4746763300820549E-013
  -2.8400000000000005E-010     3.4548703958456328E-013
  -2.7999999999999996E-010     3.3596121219205133E-013
  -2.7599999999999998E-010     3.1823125406539587E-013
  -2.7199999999999999E-010     2.9174002081321093E-013
  -2.6800000000000011E-010     2.5605480734845754E-013
  -2.6399999999999992E-010     2.1089023810681035E-013
  -2.5999999999999993E-010     1.5613039832350351E-013
  -2.5599999999999994E-010     9.1850111500965670E-014
  -2.5199999999999996E-010     1.8334573632537363E-014
  -2.4799999999999997E-010    -6.3903147096838753E-014
  -2.4399999999999998E-010    -1.5410726351711840E-013
  -2.4000000000000000E-010    -2.5126772949628229E-013
  -2.3600000000000001E-010    -3.5411235575766309E-013
  -2.3200000000000003E-010    -4.6110343191255176E-013
  -2.2800000000000004E-010    -5.7043887842500585E-013
  -2.2400000000000005E-010    -6.8005876537741150E-013
  -2.2000000000000007E-010    -7.8765742842976105E-013
  -2.1600000000000008E-010    -8.9070114131506450E-013
  -2.1200000000000010E-010    -9.8645213091747008E-013
  -2.0800000000000011E-010    -1.0719983928320076E-012
  -2.0399999999999992E-010    -1.1442899579272581E-012
  -1.9999999999999993E-010    -1.2001814472806238E-012
  -1.9599999999999994E-010    -1.2364798854941350E-012
  -1.9199999999999996E-010    -1.2499988023828568E-012
  -1.8799999999999997E-010    -1.2376175388337241E-012
  -1.8399999999999998E-010    -1.1963451063135011E-012
  -1.8000000000000000E-010    -1.1233891421269515E-012
  -1.7600000000000001E-010    -1.0162280088613085E-012
  -1.7200000000000003E-010    -8.7268576696650224E-013
  -1.6800000000000004E-010    -6.9101061678233933E-013
  -1.6400000000000005E-010    -4.6995409950720268E-013
  -1.6000000000000007E-010    -2.0885117908101686E-013
  -1.5600000000000008E-010     9.2299262579708524E-014
  -1.5200000000000010E-010     4.3275509586417071E-013
  -1.4800000000000011E-010     8.1095308419876222E-013
  -1.4399999999999992E-010     1.2244332067354313E-012
  -1.3999999999999993E-010     1.6697665385784211E-012
  -1.3599999999999994E-010     2.1424862751973084E-012
  -1.3199999999999996E-010     2.6370231952926870E-012
  -1.2799999999999997E-010     3.1466461380968980E-012
  -1.2399999999999999E-010     3.6634063838025810E-012
  -1.2000000000000000E-010     4.1780892981457818E-012
  -1.1600000000000001E-010     4.6801677117125351E-012
  -1.1200000000000003E-010     5.1577648402245657E-012
  -1.0800000000000004E-010     5.5976174216654240E-012
  -1.0400000000000005E-010     5.9850466596622631E-012
  -1.0000000000000007E-010     6.3039309015910927E-012
  -9.6000000000000082E-011     6.5366839545333288E-012
  -9.2000000000000096E-011     6.6642312328279996E-012
  -8.8000000000000110E-011     6.6659919771561160E-012
  -8.3999999999999917E-011     6.5198597389015678E-012
  -7.9999999999999931E-011     6.2021815634694111E-012
  -7.5999999999999944E-011     5.6877371736041571E-012
  -7.1999999999999958E-011     4.9497129485376323E-012
  -6.7999999999999972E-011     3.9596724336898870E-012
  -6.3999999999999986E-011     2.6875209956783719E-012
  -6.0000000000000000E-011     1.1014646226353841E-012
  -5.6000000000000013E-011    -8.3204276801751575E-013
  -5.2000000000000027E-011    -3.1483593943698596E-012
  -4.8000000000000041E-011    -5.8847284684082624E-012
  -4.4000000000000055E-011    -9.0803640648284834E-012
  -4.0000000000000069E-011    -1.2776552385518336E-011
  -3.6000000000000082E-011    -1.7016766468147537E-011
  -3.2000000000000096E-011    -2.1846807349290565E-011
  -2.8000000000000110E-011    -2.7314950648560377E-011
  -2.3999999999999917E-011    -3.3472134786105556E-011
  -1.9999999999999931E-011    -4.0372157006363096E-011
  -1.5999999999999945E-011    -4.8071904096280704E-011
  -1.1999999999999959E-011    -5.6631609124391247E-011
  -7.9999999999999724E-012    -6.6115134200739334E-011
  -3.9999999999999862E-012    -7.6590296604894803E-011
   0.0000000000000000         -8.8129212261200962E-011
   3.9999999999999862E-012    -1.0080870166406797E-010
   7.9999999999999724E-012    -1.1471069233381925E-010
   1.1999999999999959E-011    -1.2992272535594651E-010
   1.5999999999999945E-011    -1.4653842028700126E-010
   1.9999999999999931E-011    -1.6465806496057667E-010
   2.3999999999999917E-011    -1.8438917059881987E-010
   2.7999999999999903E-011    -2.0584714488514066E-010
   3.1999999999999889E-011    -2.2915597197581405E-010
   3.6000000000000082E-011    -2.5444890638937068E-010
   4.0000000000000069E-011    -2.8186930567386526E-010
   4.4000000000000055E-011    -3.1157140756299384E-010
   4.8000000000000041E-011    -3.4372121815451351E-010
   5.2000000000000027E-011    -3.7849751111096452E-010
   5.6000000000000013E-011    -4.1609260481578758E-010
   6.0000000000000000E-011    -4.5671361137422650E-010
   6.3999999999999986E-011    -5.0058329703617233E-010
   6.7999999999999972E-011    -5.4794141446379285E-010
   7.1999999999999958E-011    -5.9904564642110358E-010
   7.5999999999999944E-011    -6.5417299355274849E-010
   7.9999999999999931E-011    -7.1362099562932713E-010
   8.3999999999999917E-011    -7.7770923034847783E-010
   8.7999999999999903E-011    -8.4678042355790240E-010
   9.1999999999999889E-011    -9.2120211458990298E-010
   9.6000000000000082E-011    -1.0013683215959190E-009
   1.0000000000000007E-010    -1.0877007072807032E-009
   1.0400000000000005E-010    -1.1806506883260681E-009
   1.0800000000000004E-010    -1.2807011007254232E-009
   1.1200000000000003E-010    -1.3883679761406142E-009
   1.1600000000000001E-010    -1.5042023182587627E-009
   1.2000000000000000E-010    -1.6287925452829199E-009
   1.2399999999999999E-010    -1.7627661552666041E-009
   1.2799999999999997E-010    -1.9067922796267567E-009
   1.3199999999999996E-010    -2.0615835705228847E-009
   1.3599999999999994E-010    -2.2278994205038316E-009
   1.3999999999999993E-010    -2.4065476278423148E-009
   1.4399999999999992E-010    -2.5983877272039990E-009
   1.4799999999999990E-010    -2.8043332100935459E-009
   1.5199999999999989E-010    -3.0253546334790826E-009
   1.5600000000000008E-010    -3.2624831725058812E-009
   1.6000000000000007E-010    -3.5168130629870120E-009
   1.6400000000000005E-010    -3.7895051541170233E-009
   1.6800000000000004E-010    -4.0817904611856193E-009
   1.7200000000000003E-010    -4.3949732742021297E-009
   1.7600000000000001E-010    -4.7304360428768177E-009
   1.8000000000000000E-010    -5.0896411529777197E-009
   1.8399999999999998E-010    -5.4741371435795827E-009
   1.8799999999999997E-010    -5.8855622597775437E-009
   1.9199999999999996E-010    -6.3256475613115981E-009
   1.9599999999999994E-010    -6.7962222516371185E-009
   1.9999999999999993E-010    -7.2992194510845820E-009
   2.0399999999999992E-010    -7.8366779732164105E-009
   2.0799999999999990E-010    -8.4107512066111667E-009
   2.1199999999999989E-010    -9.0237080030419747E-009
   2.1600000000000008E-010    -9.6779402269930870E-009
   2.2000000000000007E-010    -1.0375969416998032E-008
   2.2400000000000005E-010    -1.1120450338353294E-008
   2.2800000000000004E-010    -1.1914174535831989E-008
   2.3200000000000003E-010    -1.2760082768181746E-008
   2.3600000000000001E-010    -1.3661265008124701E-008
   2.4000000000000000E-010    -1.4620969324141697E-008
   2.4399999999999998E-010    -1.5642607209542803E-008
   2.4799999999999997E-010    -1.6729758911537829E-008
   2.5199999999999996E-010    -1.7886184977555786E-008
   2.5599999999999994E-010    -1.9115828919780142E-008
   2.5999999999999993E-010    -2.0422822544219343E-008
   2.6399999999999992E-010    -2.1811498385204686E-008
   2.6799999999999990E-010    -2.3286393258103999E-008
   2.7199999999999989E-010    -2.4852255364748999E-008
   2.7600000000000008E-010    -2.6514051398862648E-008
   2.8000000000000007E-010    -2.8276978980557033E-008
   2.8400000000000005E-010    -3.0146466656333359E-008
   2.8800000000000004E-010    -3.2128184557222994E-008
   2.9200000000000003E-010    -3.4228051504214818E-008
   2.9600000000000001E-010    -3.6452252771823623E-008
   3.0000000000000000E-010    -3.8807229429949075E-008
   3.0399999999999998E-010    -4.1299696107444106E-008
   3.0799999999999997E-010    -4.3936651650255953E-008
   3.1199999999999996E-010    -4.6725379121426158E-008
   3.1599999999999994E-010    -4.9673456459231602E-008
   3.1999999999999993E-010    -5.2788767135325543E-008
   3.2399999999999992E-010    -5.6079503707451295E-008
   3.2799999999999990E-010    -5.9554171372155906E-008
   3.3199999999999989E-010    -6.3221612833785912E-008
   3.3600000000000008E-010    -6.7090986988205259E-008
   3.4000000000000007E-010    -7.1171783133650024E-008
   3.4400000000000005E-010    -7.5473856497865199E-008
   3.4800000000000004E-010    -8.0007396263681585E-008
   3.5200000000000003E-010    -8.4782939779870503E-008
   3.5600000000000001E-010    -8.9811408088280587E-008
   3.6000000000000000E-010    -9.5104063291273633E-008
   3.6399999999999998E-010    -1.0067255118428875E-007
   3.6799999999999997E-010    -1.0652887283413293E-007
   3.7199999999999996E-010    -1.1268542721154517E-007
   3.7599999999999994E-010    -1.1915497566405975E-007
   3.7999999999999993E-010    -1.2595066323228821E-007
   3.8399999999999991E-010    -1.3308601864991942E-007
   3.8799999999999990E-010    -1.4057494013286487E-007
   3.9199999999999989E-010    -1.4843173801182274E-007
   3.9599999999999987E-010    -1.5667107788885914E-007
   4.0000000000000007E-010    -1.6530800905911747E-007
   4.0400000000000005E-010    -1.7435795029996370E-007
   4.0800000000000004E-010    -1.8383670408184116E-007
   4.1200000000000002E-010    -1.9376042814656103E-007
   4.1600000000000001E-010    -2.0414566392901179E-007
   4.2000000000000000E-010    -2.1500926550288568E-007
   4.2399999999999998E-010    -2.2636847063495225E-007
   4.2799999999999997E-010    -2.3824082973078475E-007
   4.3199999999999996E-010    -2.5064423425646964E-007
   4.3599999999999994E-010    -2.6359685989518766E-007
   4.3999999999999993E-010    -2.7711720917977800E-007
   4.4399999999999991E-010    -2.9122406886017416E-007
   4.4799999999999990E-010    -3.0593645305998507E-007
   4.5199999999999989E-010    -3.2127366011991398E-007
   4.5599999999999987E-010    -3.3725521575433959E-007
   4.6000000000000007E-010    -3.5390084462960658E-007
   4.6400000000000005E-010    -3.7123047036402568E-007
   4.6800000000000004E-010    -3.8926413026274531E-007
   4.7200000000000002E-010    -4.0802203216117050E-007
   4.7600000000000001E-010    -4.2752449758154398E-007
   4.8000000000000000E-010    -4.4779190488952736E-007
   4.8399999999999998E-010    -4.6884466087249166E-007
   4.8799999999999997E-010    -4.9070320073951734E-007
   4.9199999999999996E-010    -5.1338793127797544E-007
   4.9599999999999994E-010    -5.3691917401010869E-007
   4.9999999999999993E-010    -5.6131716519303154E-007
   5.0399999999999991E-010    -5.8660202739702072E-007
   5.0799999999999990E-010    -6.1279359897525865E-007
   5.1199999999999989E-010    -6.3991149090725230E-007
   5.1599999999999987E-010    -6.6797514364225208E-007
   5.2000000000000007E-010    -6.9700354288215749E-007
   5.2400000000000005E-010    -7.2701533326835488E-007
   5.2800000000000004E-010    -7.5802870469487971E-007
   5.3200000000000002E-010    -7.9006139230841654E-007
   5.3600000000000001E-010    -8.2313050597804249E-007
   5.4000000000000000E-010    -8.5725258713864605E-007
   5.4399999999999998E-010    -8.9244343826067052E-007
   5.4799999999999997E-010    -9.2871817969353287E-007
   5.5199999999999995E-010    -9.6609107913536718E-007
   5.5599999999999994E-010    -1.0045756653198623E-006
   5.5999999999999993E-010    -1.0441842732689111E-006
   5.6399999999999991E-010    -1.0849283853531233E-006
   5.6799999999999990E-010    -1.1268184607615694E-006
   5.7199999999999989E-010    -1.1698637081281049E-006
   5.7599999999999987E-010    -1.2140719718445325E-006
   5.8000000000000007E-010    -1.2594501868079533E-006
   5.8400000000000005E-010    -1.3060034689260647E-006
   5.8800000000000004E-010    -1.3537356835513492E-006
   5.9200000000000002E-010    -1.4026491044205613E-006
   5.9600000000000001E-010    -1.4527444136547274E-006
   6.0000000000000000E-010    -1.5040207017591456E-006
   6.0399999999999998E-010    -1.5564750128760352E-006
   6.0799999999999997E-010    -1.6101029132187250E-006
   6.1199999999999995E-010    -1.6648976952637895E-006
   6.1599999999999994E-010    -1.7208509461852373E-006
   6.1999999999999993E-010    -1.7779518657334847E-006
   6.2399999999999991E-010    -1.8361876072958694E-006
   6.2799999999999990E-010    -1.8955431642098119E-006
   6.3199999999999989E-010    -1.9560011423891410E-006
   6.3599999999999987E-010    -2.0175418740109308E-006
   6.4000000000000006E-010    -2.0801433038286632E-006
   6.4400000000000005E-010    -2.1437806481117150E-006
   6.4800000000000004E-010    -2.2084263946453575E-006
   6.5200000000000002E-010    -2.2740507574781077E-006
   6.5600000000000001E-010    -2.3406209948007017E-006
   6.6000000000000000E-010    -2.4081016363197705E-006
   6.6399999999999978E-010    -2.4764547106315149E-006
   6.6800000000000017E-010    -2.5456390631006798E-006
   6.7200000000000016E-010    -2.6156103558605537E-006
   6.7600000000000015E-010    -2.6863215225603199E-006
   6.8000000000000013E-010    -2.7577229957387317E-006
   6.8400000000000012E-010    -2.8297615699557355E-006
   6.8800000000000011E-010    -2.9023810839134967E-006
   6.9200000000000009E-010    -2.9755221930827247E-006
   6.9600000000000008E-010    -3.0491228244500235E-006
   7.0000000000000006E-010    -3.1231177217705408E-006
   7.0400000000000005E-010    -3.1974382181942929E-006
   7.0800000000000004E-010    -3.2720124636398396E-006
   7.1200000000000002E-010    -3.3467661069153110E-006
   7.1600000000000001E-010    -3.4216211588500300E-006
   7.2000000000000000E-010    -3.4964964470418636E-006
   7.2399999999999998E-010    -3.5713080706045730E-006
   7.2799999999999997E-010    -3.6459694001678145E-006
   7.3199999999999995E-010    -3.7203901683824370E-006
   7.3599999999999994E-010    -3.7944776067888597E-006
   7.3999999999999993E-010    -3.8681355363223702E-006
   7.4399999999999991E-010    -3.9412661863025278E-006
   7.4799999999999990E-010    -4.0137674659490585E-006
   7.5199999999999988E-010    -4.0855361476133112E-006
   7.5599999999999987E-010    -4.1564653656678274E-006
   7.5999999999999986E-010    -4.2264464354957454E-006
   7.6399999999999984E-010    -4.2953679439960979E-006
   7.6799999999999983E-010    -4.3631166590785142E-006
   7.7199999999999982E-010    -4.4295770749158692E-006
   7.7599999999999980E-010    -4.4946314119442832E-006
   7.7999999999999979E-010    -4.5581605263578240E-006
   7.8399999999999977E-010    -4.6200434553611558E-006
   7.8800000000000017E-010    -4.6801578719168901E-006
   7.9200000000000016E-010    -4.7383796299982350E-006
   7.9600000000000015E-010    -4.7945841288310476E-006
   8.0000000000000013E-010    -4.8486449486517813E-006
   8.0400000000000012E-010    -4.9004361244442407E-006
   8.0800000000000010E-010    -4.9498294174554758E-006
   8.1200000000000009E-010    -4.9966979531745892E-006
   8.1600000000000008E-010    -5.0409134928486310E-006
   8.2000000000000006E-010    -5.0823482524720021E-006
   8.2400000000000005E-010    -5.1208744480391033E-006
   8.2800000000000004E-010    -5.1563656597863883E-006
   8.3200000000000002E-010    -5.1886954679503106E-006
   8.3600000000000001E-010    -5.2177383622620255E-006
   8.3999999999999999E-010    -5.2433706514420919E-006
   8.4399999999999998E-010    -5.2654695537057705E-006
   8.4799999999999997E-010    -5.2839150157524273E-006
   8.5199999999999995E-010    -5.2985878937761299E-006
   8.5599999999999994E-010    -5.3093717724550515E-006
   8.5999999999999993E-010    -5.3161529649514705E-006
   8.6399999999999991E-010    -5.3188205129117705E-006
   8.6799999999999990E-010    -5.3172661864664406E-006
   8.7199999999999988E-010    -5.3113853937247768E-006
   8.7599999999999987E-010    -5.3010771807748824E-006
   8.7999999999999986E-010    -5.2862446864310186E-006
   8.8399999999999984E-010    -5.2667951422336046E-006
   8.8799999999999983E-010    -5.2426398724492174E-006
   8.9199999999999981E-010    -5.2136952035652939E-006
   8.9599999999999980E-010    -5.1798820095427800E-006
   8.9999999999999979E-010    -5.1411266213108320E-006
   9.0399999999999977E-010    -5.0973612815141678E-006
   9.0799999999999976E-010    -5.0485227802710142E-006
   9.1200000000000016E-010    -4.9945551836572122E-006
   9.1600000000000015E-010    -4.9354075599694625E-006
   9.2000000000000013E-010    -4.8710357987147290E-006
   9.2400000000000012E-010    -4.8014026106102392E-006
   9.2800000000000010E-010    -4.7264770728361327E-006
   9.3200000000000009E-010    -4.6462355385301635E-006
   9.3600000000000008E-010    -4.5606616367876995E-006
   9.4000000000000006E-010    -4.4697462726617232E-006
   9.4400000000000005E-010    -4.3734871724154800E-006
   9.4800000000000004E-010    -4.2718902477645315E-006
   9.5200000000000002E-010    -4.1649691411294043E-006
   9.5600000000000001E-010    -4.0527461351302918E-006
   9.5999999999999999E-010    -3.9352503335976508E-006
   9.6399999999999998E-010    -3.8125194805616047E-006
   9.6799999999999997E-010    -3.6845995055045933E-006
   9.7199999999999995E-010    -3.5515442959876964E-006
   9.7599999999999994E-010    -3.4134166071453365E-006
   9.7999999999999992E-010    -3.2702871521905763E-006