  -1.2000000000000000E-009     0.0000000000000000
  -1.1960000000000000E-009     0.0000000000000000
  -1.1920000000000000E-009     0.0000000000000000
  -1.1880000000000000E-009     0.0000000000000000
  -1.1840000000000000E-009     0.0000000000000000
  -1.1800000000000001E-009     0.0000000000000000
  -1.1760000000000001E-009     0.0000000000000000
  -1.1720000000000001E-009    -1.8105340149557135E-032
  -1.1679999999999999E-009    -2.5761170287253579E-031
  -1.1639999999999999E-009    -1.9398000254105543E-030
  -1.1599999999999999E-009    -1.0264552088329429E-029
  -1.1559999999999999E-009    -4.2782661951397743E-029
  -1.1520000000000000E-009    -1.4931967174133781E-028
  -1.1480000000000000E-009    -4.5319322336743400E-028
  -1.1440000000000000E-009    -1.2267672040996180E-027
  -1.1400000000000000E-009    -3.0153944249670795E-027
  -1.1360000000000000E-009    -6.8196193254620495E-027
  -1.1320000000000000E-009    -1.4332892364902294E-026
  -1.1280000000000000E-009    -2.8208171449066538E-026
  -1.1240000000000000E-009    -5.2291173520578633E-026
  -1.1200000000000001E-009    -9.1712962678019010E-026
  -1.1160000000000001E-009    -1.5268815739932760E-025
  -1.1120000000000001E-009    -2.4182908223670426E-025
  -1.1079999999999999E-009    -3.6478015406354594E-025
  -1.1039999999999999E-009    -5.2401535161219053E-025
  -1.0999999999999999E-009    -7.1574868487944952E-025
  -1.0959999999999999E-009    -9.2608552765930932E-025
  -1.0920000000000000E-009    -1.1267906746092600E-024
  -1.0880000000000000E-009    -1.2713452939712580E-024
  -1.0840000000000000E-009    -1.2922594756828643E-024
  -1.0800000000000000E-009    -1.1008430672842779E-024
  -1.0760000000000000E-009    -5.9073232589893265E-025
  -1.0720000000000000E-009     3.5364986903274980E-025
  -1.0680000000000000E-009     1.8429175196851499E-024
  -1.0640000000000000E-009     3.9627453330559580E-024
  -1.0600000000000001E-009     6.7489740457344364E-024
  -1.0560000000000001E-009     1.0159807440379260E-023
  -1.0520000000000001E-009     1.4048296901996312E-023
  -1.0480000000000001E-009     1.8139208071893075E-023
  -1.0439999999999999E-009     2.2014892743296579E-023
  -1.0399999999999999E-009     2.5114595452617709E-023
  -1.0359999999999999E-009     2.6750585684962978E-023
  -1.0320000000000000E-009     2.6142681582790614E-023
  -1.0280000000000000E-009     2.2470089151436259E-023
  -1.0240000000000000E-009     1.4936623701034830E-023
  -1.0200000000000000E-009     2.8426022906873823E-024
  -1.0160000000000000E-009    -1.4345096351254855E-023
  -1.0120000000000000E-009    -3.6933587213677546E-023
  -1.0080000000000000E-009    -6.4961887751383376E-023
  -1.0040000000000000E-009    -9.8178510685509696E-023
  -1.0000000000000001E-009    -1.3603388817782524E-022
  -9.9600000000000008E-010    -1.7767452321597880E-022
  -9.9199999999999988E-010    -2.2191654384051261E-022
  -9.8799999999999990E-010    -2.6716977054956942E-022
  -9.8399999999999991E-010    -3.1128017130978892E-022
  -9.7999999999999992E-010    -3.5126347900583280E-022
  -9.7599999999999994E-010    -3.8291636505564485E-022
  -9.7199999999999995E-010    -4.0031651616670714E-022
  -9.6799999999999997E-010    -3.9525813809403827E-022
  -9.6399999999999998E-010    -3.5671474767462517E-022
  -9.5999999999999999E-010    -2.7046917813021268E-022
  -9.5600000000000001E-010    -1.1909765038790532E-022
  -9.5200000000000002E-010     1.1747196583442586E-022
  -9.4800000000000004E-010     4.6059525857904270E-022
  -9.4400000000000005E-010     9.3053184196625259E-022
  -9.4000000000000006E-010     1.5429081291389465E-021
  -9.3600000000000008E-010     2.3039976973735192E-021
  -9.3200000000000009E-010     3.2049625782282068E-021
  -9.2800000000000000E-010     4.2154113562821800E-021
  -9.2400000000000001E-010     5.2768771448502146E-021
  -9.1999999999999992E-010     6.2970658938376430E-021
  -9.1599999999999994E-010     7.1459494961538173E-021
  -9.1199999999999995E-010     7.6549442616545258E-021
  -9.0799999999999997E-010     7.6204603620751545E-021
  -9.0399999999999998E-010     6.8130189931240270E-021
  -8.9999999999999999E-010     4.9928573306086734E-021
  -8.9600000000000001E-010     1.9324706157666422E-021
  -8.9200000000000002E-010    -2.5541333987591468E-021
  -8.8800000000000004E-010    -8.5765357473444042E-021
  -8.8400000000000005E-010    -1.6129403174911759E-020
  -8.8000000000000006E-010    -2.5053416979633089E-020
  -8.7599999999999997E-010    -3.4999617610729690E-020
  -8.7199999999999999E-010    -4.5401901720898449E-020
  -8.6800000000000000E-010    -5.5462828425547033E-020
  -8.6400000000000001E-010    -6.4157918380157179E-020
  -8.5999999999999993E-010    -7.0262989514590156E-020
  -8.5599999999999994E-010    -7.2408043326350617E-020
  -8.5199999999999995E-010    -6.9159265621154459E-020
  -8.4799999999999997E-010    -5.9128569782955273E-020
  -8.4399999999999998E-010    -4.1107047502378150E-020
  -8.3999999999999999E-010    -1.4216042329609974E-020
  -8.3600000000000001E-010     2.1933837777534325E-020
  -8.3200000000000002E-010     6.7087766260425861E-020
  -8.2800000000000004E-010     1.2021008714275410E-019
  -8.2400000000000005E-010     1.7938122441551318E-019
  -8.2000000000000006E-010     2.4174332722346920E-019
  -8.1599999999999997E-010     3.0350815393037365E-019
  -8.1199999999999999E-010     3.6003798718497727E-019
  -8.0800000000000000E-010     4.0600573214365027E-019
  -8.0400000000000002E-010     4.3563508319135830E-019
  -7.9999999999999993E-010     4.4301575730322754E-019
  -7.9599999999999994E-010     4.2248148973508734E-019
  -7.9199999999999995E-010     3.6903313690679103E-019
  -7.8799999999999997E-010     2.7878338937903980E-019
  -7.8399999999999998E-010     1.4939634080077220E-019
  -7.7999999999999999E-010    -1.9507458546974872E-020
  -7.7600000000000001E-010    -2.2600885270785036E-019
  -7.7200000000000002E-010    -4.6563697570744490E-019
  -7.6800000000000004E-010    -7.3122657582232249E-019
  -7.6400000000000005E-010    -1.0129008580446586E-018
  -7.6000000000000006E-010    -1.2981871795080723E-018
  -7.5600000000000008E-010    -1.5722664444423113E-018
  -7.5199999999999999E-010    -1.8183485407737743E-018
  -7.4800000000000000E-010    -2.0181622895420836E-018
  -7.4400000000000002E-010    -2.1525448110865297E-018
  -7.3999999999999993E-010    -2.2021146432695355E-018
  -7.3599999999999994E-010    -2.1480155836424956E-018
  -7.3199999999999995E-010    -1.9727209157963299E-018
  -7.2799999999999997E-010    -1.6608964689331071E-018
  -7.2399999999999998E-010    -1.2003229242490407E-018
  -7.2000000000000000E-010    -5.8288377877860728E-019
  -7.1600000000000001E-010     1.9437472604804350E-019
  -7.1200000000000002E-010     1.1281116077368099E-018
  -7.0800000000000004E-010     2.2074964871299587E-018
  -7.0400000000000005E-010     3.4129817421843663E-018
  -6.9999999999999996E-010     4.7150949276747684E-018
  -6.9599999999999997E-010     6.0733391419669469E-018
  -6.9199999999999999E-010     7.4353155951829647E-018
  -6.8800000000000000E-010     8.7362266804481741E-018
  -6.8400000000000002E-010     9.8989340833292488E-018
  -6.8000000000000003E-010     1.0834773968327855E-017
  -6.7600000000000004E-010     1.1445330867704270E-017
  -6.7199999999999995E-010     1.1625344394149898E-017
  -6.6799999999999997E-010     1.1266894774686781E-017
  -6.6399999999999998E-010     1.0264936688965587E-017
  -6.6000000000000000E-010     8.5241483247375410E-018
  -6.5600000000000001E-010     5.9669558569768083E-018
  -6.5200000000000002E-010     2.5424541771965692E-018
  -6.4800000000000004E-010    -1.7642075017306472E-018
  -6.4400000000000005E-010    -6.9225310306200107E-018
  -6.3999999999999996E-010    -1.2848158876242138E-017
  -6.3599999999999998E-010    -1.9395922909045505E-017
  -6.3199999999999999E-010    -2.6355274643862395E-017
  -6.2800000000000000E-010    -3.3448917496766044E-017
  -6.2400000000000002E-010    -4.0335348297502709E-017
  -6.2000000000000003E-010    -4.6615912312936134E-017
  -6.1600000000000004E-010    -5.1846708030423412E-017
  -6.1199999999999995E-010    -5.5555421937641665E-017
  -6.0799999999999997E-010    -5.7262808748734820E-017
  -6.0399999999999998E-010    -5.6508214889294545E-017
  -6.0000000000000000E-010    -5.2878102992603531E-017
  -5.9600000000000001E-010    -4.6036293622830427E-017
  -5.9200000000000002E-010    -3.5754236776726830E-017
  -5.8800000000000004E-010    -2.1939516527535866E-017
  -5.8400000000000005E-010    -4.6606751287652109E-018
  -5.7999999999999996E-010     1.5833562067606260E-017
  -5.7599999999999998E-010     3.9102352876431166E-017
  -5.7199999999999999E-010     6.4509499867295480E-017
  -5.6800000000000000E-010     9.1229921812040833E-017
  -5.6400000000000002E-010     1.1826628704611204E-016
  -5.6000000000000003E-010     1.4447561725141803E-016
  -5.5600000000000004E-010     1.6860532275253710E-016
  -5.5199999999999995E-010     1.8933714235085575E-016
  -5.4799999999999997E-010     2.0533733002669346E-016
  -5.4399999999999998E-010     2.1531095769215564E-016
  -5.4000000000000000E-010     2.1805775319120332E-016
  -5.3600000000000001E-010     2.1252721038078398E-016
  -5.3200000000000002E-010     1.9787052283840999E-016
  -5.2800000000000004E-010     1.7348730302315567E-016
  -5.2400000000000005E-010     1.3906547223351700E-016
  -5.1999999999999996E-010     9.4613203013946024E-017
  -5.1599999999999998E-010     4.0482255574292127E-017
  -5.1199999999999999E-010    -2.2617252073180163E-017
  -5.0800000000000000E-010    -9.3610342474176534E-017
  -5.0400000000000002E-010    -1.7105835663756516E-016
  -5.0000000000000003E-010    -2.5316711003621646E-016
  -4.9600000000000004E-010    -3.3780137157644527E-016
  -4.9199999999999996E-010    -4.2250572509305937E-016
  -4.8799999999999997E-010    -5.0453178690023498E-016
  -4.8399999999999998E-010    -5.8087280179345614E-016
  -4.8000000000000000E-010    -6.4830715936717992E-016
  -4.7600000000000001E-010    -7.0345323939817114E-016
  -4.7200000000000002E-010    -7.4283725389062152E-016
  -4.6800000000000004E-010    -7.6297763273351984E-016
  -4.6400000000000005E-010    -7.6048740880815141E-016
  -4.5999999999999996E-010    -7.3219640249073937E-016
  -4.5599999999999998E-010    -6.7529283497331388E-016
  -4.5199999999999999E-010    -5.8748362924897993E-016
  -4.4800000000000000E-010    -4.6716868714081496E-016
  -4.4400000000000002E-010    -3.1362398076737374E-016
  -4.4000000000000003E-010    -1.2718452489418516E-016
  -4.3600000000000005E-010     9.0583218774257075E-017
  -4.3199999999999996E-010     3.3673217776899393E-016
  -4.2799999999999997E-010     6.0682186789082844E-016
  -4.2399999999999998E-010     8.9485632157715973E-016
  -4.2000000000000000E-010     1.1932856165317550E-015
  -4.1600000000000001E-010     1.4930822344214555E-015
  -4.1200000000000002E-010     1.7838998795537868E-015
  -4.0800000000000004E-010     2.0543191713712217E-015
  -4.0400000000000005E-010     2.2921797872456221E-015
  -3.9999999999999996E-010     2.4849896852708817E-015
  -3.9599999999999998E-010     2.6204016661748744E-015
  -3.9199999999999999E-010     2.6867368396808582E-015
  -3.8800000000000000E-010     2.6735326548243477E-015
  -3.8400000000000002E-010     2.5720877538964364E-015
  -3.8000000000000003E-010     2.3759759096845428E-015
  -3.7600000000000005E-010     2.0814970705168231E-015
  -3.7200000000000006E-010     1.6880388315724127E-015
  -3.6799999999999997E-010     1.1983246155349708E-015
  -3.6399999999999998E-010     6.1852939846909977E-016
  -3.6000000000000000E-010    -4.1747097448946961E-017
  -3.5600000000000001E-010    -7.6965251705567975E-016
  -3.5200000000000003E-010    -1.5493923494802110E-015
  -3.4800000000000004E-010    -2.3626626693360733E-015
  -3.4400000000000005E-010    -3.1891811138825849E-015
  -3.3999999999999996E-010    -4.0072870389552036E-015
  -3.3599999999999998E-010    -4.7945745172749219E-015
  -3.3199999999999999E-010    -5.5285243309060369E-015
  -3.2800000000000000E-010    -6.1871000706927807E-015
  -3.2400000000000002E-010    -6.7492762613019334E-015
  -3.2000000000000003E-010    -7.1954822064871846E-015
  -3.1600000000000005E-010    -7.5079399552350871E-015
  -3.1200000000000006E-010    -7.6708989298914475E-015
  -3.0799999999999997E-010    -7.6707786512129374E-015
  -3.0399999999999998E-010    -7.4962288777063492E-015
  -3.0000000000000000E-010    -7.1381465462875410E-015
  -2.9600000000000001E-010    -6.5896732311825947E-015
  -2.9200000000000003E-010    -5.8462154727185502E-015
  -2.8800000000000004E-010    -4.9055218573216056E-015
  -2.8400000000000005E-010    -3.7678469183924108E-015
  -2.7999999999999996E-010    -2.4362154105856109E-015
  -2.7599999999999998E-010    -9.1680622749318926E-016
  -2.7199999999999999E-010     7.8056547778986734E-016
  -2.6800000000000011E-010     2.6418839040249012E-015
  -2.6399999999999992E-010     4.6483304672832043E-015
  -2.5999999999999993E-010     6.7756956424432687E-015
  -2.5599999999999994E-010     8.9938737609773084E-015
  -2.5199999999999996E-010     1.1266502969009117E-014
  -2.4799999999999997E-010     1.3550828855009561E-014
  -2.4399999999999998E-010     1.5797840398584610E-014
  -2.4000000000000000E-010     1.7952746426508175E-014
  -2.3600000000000001E-010     1.9955799775779777E-014
  -2.3200000000000003E-010     2.1743486527882501E-014
  -2.2800000000000004E-010     2.3250065067648151E-014
  -2.2400000000000005E-010     2.4409383815962062E-014
  -2.2000000000000007E-010     2.5156932743561344E-014
  -2.1600000000000008E-010     2.5432003305050389E-014
  -2.1200000000000010E-010     2.5179867007641202E-014
  -2.0800000000000011E-010     2.4353855724071859E-014
  -2.0399999999999992E-010     2.2917203142233840E-014
  -1.9999999999999993E-010     2.0844577894806558E-014
  -1.9599999999999994E-010     1.8123198254615946E-014
  -1.9199999999999996E-010     1.4753496208465104E-014
  -1.8799999999999997E-010     1.0749301263283852E-014
  -1.8399999999999998E-010     6.1375749012997690E-015
  -1.8000000000000000E-010     9.5774640032842339E-016
  -1.7600000000000001E-010    -4.7392463251602710E-015
  -1.7200000000000003E-010    -1.0892096618630824E-014
  -1.6800000000000004E-010    -1.7430306669037089E-014
  -1.6400000000000005E-010    -2.4275271395357394E-014
  -1.6000000000000007E-010    -3.1341120291464991E-014
  -1.5600000000000008E-010    -3.8535238774907096E-014
  -1.5200000000000010E-010    -4.5758373218990345E-014
  -1.4800000000000011E-010    -5.2904329409051570E-014
  -1.4399999999999992E-010    -5.9859276281375162E-014
  -1.3999999999999993E-010    -6.6500759976842461E-014
  -1.3599999999999994E-010    -7.2696609474363905E-014
  -1.3199999999999996E-010    -7.8303859164970124E-014
  -1.2799999999999997E-010    -8.3168017015345513E-014
  -1.2399999999999999E-010    -8.7122834174866576E-014
  -1.2000000000000000E-010    -8.9990874181742481E-014
  -1.1600000000000001E-010    -9.1585105384955900E-014
  -1.1200000000000003E-010    -9.1711625002221381E-014
  -1.0800000000000004E-010    -9.0173677444287115E-014
  -1.0400000000000005E-010    -8.6776939800525810E-014
  -1.0000000000000007E-010    -8.1336006723178866E-014
  -9.6000000000000082E-011    -7.3681905303664419E-014
  -9.2000000000000096E-011    -6.3670287575243179E-014
  -8.8000000000000110E-011    -5.1190087189739372E-014
  -8.3999999999999917E-011    -3.6172040568990121E-014
  -7.9999999999999931E-011    -1.8596784539821193E-014
  -7.5999999999999944E-011     1.4980534707888910E-015
  -7.1999999999999958E-011     2.4012149080622318E-014
  -6.7999999999999972E-011     4.8778543731324911E-014
  -6.3999999999999986E-011     7.5561796674273457E-014
  -6.0000000000000000E-011     1.0405833638336970E-013
  -5.6000000000000013E-011     1.3389913093228567E-013
  -5.2000000000000027E-011     1.6465455843391041E-013
  -4.8000000000000041E-011     1.9584122734964127E-013
  -4.4000000000000055E-011     2.2693054846281008E-013
  -4.0000000000000069E-011     2.5735845204065411E-013
  -3.6000000000000082E-011     2.8653585038528051E-013
  -3.2000000000000096E-011     3.1385953406549982E-013
  -2.8000000000000110E-011     3.3872275644053484E-013
  -2.3999999999999917E-011     3.6052505924220879E-013
  -1.9999999999999931E-011     3.7868137987319417E-013
  -1.5999999999999945E-011     3.9262996608287193E-013
  -1.1999999999999959E-011     4.0183890828542068E-013
  -7.9999999999999724E-012     4.0581180451616794E-013
  -3.9999999999999862E-012     4.0409231408071455E-013
   0.0000000000000000          3.9626833173329878E-013
   3.9999999999999862E-012     3.8197589080461725E-013
   7.9999999999999724E-012     3.6090344580040623E-013
   1.1999999999999959E-011     3.3279691394154376E-013
   1.5999999999999945E-011     2.9746590932654138E-013
   1.9999999999999931E-011     2.5479135945180587E-013
   2.3999999999999917E-011     2.0473477514021399E-013
   2.7999999999999903E-011     1.4734906545778303E-013
   3.1999999999999889E-011     8.2790640120421199E-014
   3.6000000000000082E-011     1.1332557139334849E-014
   4.0000000000000069E-011    -6.6622190620160837E-014
   4.4000000000000055E-011    -1.5052770228202172E-013
   4.8000000000000041E-011    -2.3968351717425229E-013
   5.2000000000000027E-011    -3.3322492985418672E-013
   5.6000000000000013E-011    -4.3011650014204705E-013
   6.0000000000000000E-011    -5.2914909867002313E-013
   6.3999999999999986E-011    -6.2894139766025980E-013
   6.7999999999999972E-011    -7.2794613219240301E-013
   7.1999999999999958E-011    -8.2446094222532462E-013
   7.5999999999999944E-011    -9.1664458141960115E-013
   7.9999999999999931E-011    -1.0025370290878133E-012
   8.3999999999999917E-011    -1.0800839389535355E-012
   8.7999999999999903E-011    -1.1471641778865171E-012
   9.1999999999999889E-011    -1.2016194246219913E-012
   9.6000000000000082E-011    -1.2412859368843288E-012
   1.0000000000000007E-010    -1.2640255595691707E-012
   1.0400000000000005E-010    -1.2677579255479521E-012
   1.0800000000000004E-010    -1.2504910301691652E-012
   1.1200000000000003E-010    -1.2103502878765826E-012
   1.1600000000000001E-010    -1.1456073719870452E-012
   1.2000000000000000E-010    -1.0547066692234708E-012
   1.2399999999999999E-010    -9.3629195108829721E-013
   1.2799999999999997E-010    -7.8923239471562212E-013
   1.3199999999999996E-010    -6.1264995897605812E-013
   1.3599999999999994E-010    -4.0594798030903212E-013
   1.3999999999999993E-010    -1.6884285853127623E-013
   1.4399999999999992E-010     9.8601167378489785E-014
   1.4799999999999990E-010     3.9593279826596883E-013
   1.5199999999999989E-010     7.2226990013857240E-013
   1.5600000000000008E-010     1.0762512842737992E-012
   1.6000000000000007E-010     1.4559846384099018E-012
   1.6400000000000005E-010     1.8589897416571022E-012
   1.6800000000000004E-010     2.2821401886308212E-012
   1.7200000000000003E-010     2.7216020236087157E-012
   1.7600000000000001E-010     3.1727751936133641E-012
   1.8000000000000000E-010     3.6302334836119110E-012
   1.8399999999999998E-010     4.0876694390457047E-012
   1.8799999999999997E-010     4.5378440588494939E-012
   1.9199999999999996E-010     4.9725406084388801E-012
   1.9599999999999994E-010     5.3825255884321077E-012
   1.9999999999999993E-010     5.7575159917444552E-012
   2.0399999999999992E-010     6.0861545837787023E-012
   2.0799999999999990E-010     6.3559869173390737E-012
   2.1199999999999989E-010     6.5534465874816927E-012
   2.1600000000000008E-010     6.6638430884502498E-012
   2.2000000000000007E-010     6.6713466348455874E-012
   2.2400000000000005E-010     6.5589781869657138E-012
   2.2800000000000004E-010     6.3085908025284354E-012
   2.3200000000000003E-010     5.9008466515853009E-012
   2.3600000000000001E-010     5.3151866588607710E-012
   2.4000000000000000E-010     4.5297953756018305E-012
   2.4399999999999998E-010     3.5215461189480601E-012
   2.4799999999999997E-010     2.2659430755356258E-012
   2.5199999999999996E-010     7.3704773837987569E-013
   2.5599999999999994E-010    -1.0926067993063948E-012
   2.5999999999999993E-010    -3.2521145065106394E-012
   2.6399999999999992E-010    -5.7723049430580264E-012
   2.6799999999999990E-010    -8.6858627929009558E-012
   2.7199999999999989E-010    -1.2027462359398555E-011
   2.7600000000000008E-010    -1.5833905367412804E-011
   2.8000000000000007E-010    -2.0144280341027887E-011
   2.8400000000000005E-010    -2.5000121764429117E-011
   2.8800000000000004E-010    -3.0445587023697485E-011
   2.9200000000000003E-010    -3.6527645491668537E-011
   2.9600000000000001E-010    -4.3296293633643401E-011
   3.0000000000000000E-010    -5.0804766643652854E-011
   3.0399999999999998E-010    -5.9109793448808290E-011
   3.0799999999999997E-010    -6.8271853448376163E-011
   3.1199999999999996E-010    -7.8355467947321955E-011
   3.1599999999999994E-010    -8.9429547101005369E-011
   3.1999999999999993E-010    -1.0156769869595905E-010
   3.2399999999999992E-010    -1.1484865836131064E-010
   3.2799999999999990E-010    -1.2935666426905357E-010
   3.3199999999999989E-010    -1.4518196367330205E-010
   3.3600000000000008E-010    -1.6242127087728875E-010
   3.4000000000000007E-010    -1.8117833622266488E-010
   3.4400000000000005E-010    -2.0156447344543693E-010
   3.4800000000000004E-010    -2.2369921193199360E-010
   3.5200000000000003E-010    -2.4771096285292060E-010
   3.5600000000000001E-010    -2.7373767141902761E-010
   3.6000000000000000E-010    -3.0192753852631427E-010
   3.6399999999999998E-010    -3.3243990893438990E-010
   3.6799999999999997E-010    -3.6544595127807611E-010
   3.7199999999999996E-010    -4.0112962951255327E-010
   3.7599999999999994E-010    -4.3968850782505342E-010
   3.7999999999999993E-010    -4.8133480534673367E-010
   3.8399999999999991E-010    -5.2629645086454957E-010
   3.8799999999999990E-010    -5.7481791548852357E-010
   3.9199999999999989E-010    -6.2716154491937459E-010
   3.9599999999999987E-010    -6.8360866967154266E-010
   4.0000000000000007E-010    -7.4446093734081842E-010
   4.0400000000000005E-010    -8.1004142282736780E-010
   4.0800000000000004E-010    -8.8069623815911768E-010
   4.1200000000000002E-010    -9.5679575373708303E-010
   4.1600000000000001E-010    -1.0387363191810550E-009
   4.2000000000000000E-010    -1.1269415400860794E-009
   4.2399999999999998E-010    -1.2218643874462032E-009
   4.2799999999999997E-010    -1.3239885854332556E-009
   4.3199999999999996E-010    -1.4338302767313849E-009
   4.3599999999999994E-010    -1.5519404650277124E-009
   4.3999999999999993E-010    -1.6789064583022650E-009
   4.4399999999999991E-010    -1.8153539782517214E-009
   4.4799999999999990E-010    -1.9619497138023689E-009
   4.5199999999999989E-010    -2.1194028754223382E-009
   4.5599999999999987E-010    -2.2884678596568619E-009
   4.6000000000000007E-010    -2.4699469136635344E-009
   4.6400000000000005E-010    -2.6646924666806626E-009
   4.6800000000000004E-010    -2.8736093504733162E-009
   4.7200000000000002E-010    -3.0976579079577959E-009
   4.7600000000000001E-010    -3.3378568797814978E-009
   4.8000000000000000E-010    -3.5952865129473821E-009
   4.8399999999999998E-010    -3.8710914473938374E-009
   4.8799999999999997E-010    -4.1664840466637543E-009
   4.9199999999999996E-010    -4.4827479506182044E-009
   4.9599999999999994E-010    -4.8212420722393290E-009
   4.9999999999999993E-010    -5.1834025960317831E-009
   5.0399999999999991E-010    -5.5707491952716737E-009
   5.0799999999999990E-010    -5.9848876965418185E-009
   5.1199999999999989E-010    -6.4275145206238449E-009
   5.1599999999999987E-010    -6.9004197911226584E-009
   5.2000000000000007E-010    -7.4054939958045907E-009
   5.2400000000000005E-010    -7.9447302070434489E-009
   5.2800000000000004E-010    -8.5202307431586632E-009
   5.3200000000000002E-010    -9.1342098329505461E-009
   5.3600000000000001E-010    -9.7889998329492300E-009
   5.4000000000000000E-010    -1.0487056556485186E-008
   5.4399999999999998E-010    -1.1230962826402902E-008
   5.4799999999999997E-010    -1.2023437356845079E-008
   5.5199999999999995E-010    -1.2867335641431055E-008
   5.5599999999999994E-010    -1.3765657946862575E-008
   5.5999999999999993E-010    -1.4721554641994317E-008
   5.6399999999999991E-010    -1.5738333303261243E-008
   5.6799999999999990E-010    -1.6819461379213863E-008
   5.7199999999999989E-010    -1.7968577736837688E-008
   5.7599999999999987E-010    -1.9189490885196392E-008
   5.8000000000000007E-010    -2.0486194074464947E-008
   5.8400000000000005E-010    -2.1862868848643302E-008
   5.8800000000000004E-010    -2.3323886821913220E-008
   5.9200000000000002E-010    -2.4873820336779318E-008
   5.9600000000000001E-010    -2.6517453122210100E-008
   6.0000000000000000E-010    -2.8259776740924281E-008
   6.0399999999999998E-010    -3.0106008352959179E-008
   6.0799999999999997E-010    -3.2061592492027557E-008
   6.1199999999999995E-010    -3.4132202841874459E-008
   6.1599999999999994E-010    -3.6323758223488767E-008
   6.1999999999999993E-010    -3.8642422595103199E-008
   6.2399999999999991E-010    -4.1094622815762705E-008
   6.2799999999999990E-010    -4.3687030881756073E-008
   6.3199999999999989E-010    -4.6426599453752715E-008
   6.3599999999999987E-010    -4.9320551198661633E-008
   6.4000000000000006E-010    -5.2376385895058775E-008
   6.4400000000000005E-010    -5.5601891091328071E-008
   6.4800000000000004E-010    -5.9005149211088792E-008
   6.5200000000000002E-010    -6.2594537553195551E-008
   6.5600000000000001E-010    -6.6378724739024619E-008
   6.6000000000000000E-010    -7.0366716897751758E-008
   6.6399999999999978E-010    -7.4567800822933350E-008
   6.6800000000000017E-010    -7.8991604368638946E-008
   6.7200000000000016E-010    -8.3648068027741829E-008
   6.7600000000000015E-010    -8.8547466248201090E-008
   6.8000000000000013E-010    -9.3700386116779555E-008
   6.8400000000000012E-010    -9.9117769991607929E-008
   6.8800000000000011E-010    -1.0481087286962065E-007
   6.9200000000000009E-010    -1.1079130501912005E-007
   6.9600000000000008E-010    -1.1707100355806688E-007
   7.0000000000000006E-010    -1.2366224666493508E-007
   7.0400000000000005E-010    -1.3057766068413912E-007
   7.0800000000000004E-010    -1.3783018459889718E-007
   7.1200000000000002E-010    -1.4543311976922269E-007
   7.1600000000000001E-010    -1.5340010861564224E-007
   7.2000000000000000E-010    -1.6174509198663145E-007
   7.2399999999999998E-010    -1.7048235179117910E-007
   7.2799999999999997E-010    -1.7962649678793241E-007
   7.3199999999999995E-010    -1.8919244837434235E-007
   7.3599999999999994E-010    -1.9919542637580889E-007
   7.3999999999999993E-010    -2.0965096325653576E-007
   7.4399999999999991E-010    -2.2057488990867569E-007
   7.4799999999999990E-010    -2.3198327880891156E-007
   7.5199999999999988E-010    -2.4389251507273002E-007
   7.5599999999999987E-010    -2.5631919697843841E-007
   7.5999999999999986E-010    -2.6928017859972897E-007
   7.6399999999999984E-010    -2.8279254138396936E-007
   7.6799999999999983E-010    -2.9687359415220271E-007
   7.7199999999999982E-010    -3.1154081625572871E-007
   7.7599999999999980E-010    -3.2681180073268479E-007
   7.7999999999999979E-010    -3.4270436799488380E-007
   7.8399999999999977E-010    -3.5923645214097633E-007
   7.8800000000000017E-010    -3.7642604411303182E-007
   7.9200000000000016E-010    -3.9429122011824802E-007
   7.9600000000000015E-010    -4.1285011320724152E-007
   8.0000000000000013E-010    -4.3212082800891949E-007
   8.0400000000000012E-010    -4.5212149757389852E-007
   8.0800000000000010E-010    -4.7287016968766693E-007
   8.1200000000000009E-010    -4.9438483529229416E-007
   8.1600000000000008E-010    -5.1668331479959306E-007
   8.2000000000000006E-010    -5.3978328651282936E-007
   8.2400000000000005E-010    -5.6370225820501219E-007
   8.2800000000000004E-010    -5.8845739658863749E-007
   8.3200000000000002E-010    -6.1406564100252581E-007
   8.3600000000000001E-010    -6.4054364656840335E-007
   8.3999999999999999E-010    -6.6790755681722658E-007
   8.4399999999999998E-010    -6.9617311737601995E-007
   8.4799999999999997E-010    -7.2535567596787587E-007
   8.5199999999999995E-010    -7.5546989819486043E-007
   8.5599999999999994E-010    -7.8652999491168885E-007
   8.5999999999999993E-010    -8.1854938116521225E-007
   8.6399999999999991E-010    -8.5154096041151206E-007
   8.6799999999999990E-010    -8.8551666976854904E-007
   8.7199999999999988E-010    -9.2048765054641990E-007
   8.7599999999999987E-010    -9.5646430509077618E-007
   8.7999999999999986E-010    -9.9345584203547332E-007
   8.8399999999999984E-010    -1.0314706742065027E-006
   8.8799999999999983E-010    -1.0705159638746409E-006
   8.9199999999999981E-010    -1.1105979638159624E-006
   8.9599999999999980E-010    -1.1517213351908140E-006
   8.9999999999999979E-010    -1.1938898296648404E-006
   9.0399999999999977E-010    -1.2371056072879583E-006
   9.0799999999999976E-010    -1.2813693501811940E-006
   9.1200000000000016E-010    -1.3266804899103590E-006
   9.1600000000000015E-010    -1.3730368664255366E-006
   9.2000000000000013E-010    -1.4204343870005687E-006
   9.2400000000000012E-010    -1.4688675946672447E-006
   9.2800000000000010E-010    -1.5183292134679505E-006
   9.3200000000000009E-010    -1.5688098073951551E-006
   9.3600000000000008E-010    -1.6202984625124373E-006
   9.4000000000000006E-010    -1.6727821048334590E-006
   9.4400000000000005E-010    -1.7262455003219657E-006
   9.4800000000000004E-010    -1.7806715959522990E-006
   9.5200000000000002E-010    -1.8360408375883708E-006
   9.5600000000000001E-010    -1.8923318521046895E-006
   9.5999999999999999E-010    -1.9495205378916580E-006
   9.6399999999999998E-010    -2.0075808606634382E-006
   9.6799999999999997E-010    -2.0664842850237619E-006
   9.7199999999999995E-010    -2.1261994334054179E-006
   9.7599999999999994E-010    -2.1866931092517916E-006
   9.7999999999999992E-010    -2.2479289327748120E-006