  -1.2000000000000000E-009     0.0000000000000000
  -1.1960000000000000E-009     0.0000000000000000
  -1.1920000000000000E-009     0.0000000000000000
  -1.1880000000000000E-009     0.0000000000000000
  -1.1840000000000000E-009     0.0000000000000000
  -1.1800000000000001E-009     0.0000000000000000
  -1.1760000000000001E-009     0.0000000000000000
  -1.1720000000000001E-009     0.0000000000000000
  -1.1679999999999999E-009     0.0000000000000000
  -1.1639999999999999E-009     0.0000000000000000
  -1.1599999999999999E-009     0.0000000000000000
  -1.1559999999999999E-009     0.0000000000000000
  -1.1520000000000000E-009     0.0000000000000000
  -1.1480000000000000E-009     0.0000000000000000
  -1.1440000000000000E-009     0.0000000000000000
  -1.1400000000000000E-009     0.0000000000000000
  -1.1360000000000000E-009     0.0000000000000000
  -1.1320000000000000E-009     0.0000000000000000
  -1.1280000000000000E-009     0.0000000000000000
  -1.1240000000000000E-009     0.0000000000000000
  -1.1200000000000001E-009     0.0000000000000000
  -1.1160000000000001E-009     0.0000000000000000
  -1.1120000000000001E-009     0.0000000000000000
  -1.1079999999999999E-009     0.0000000000000000
  -1.1039999999999999E-009     0.0000000000000000
  -1.0999999999999999E-009     0.0000000000000000
  -1.0959999999999999E-009     0.0000000000000000
  -1.0920000000000000E-009     0.0000000000000000
  -1.0880000000000000E-009     0.0000000000000000
  -1.0840000000000000E-009     0.0000000000000000
  -1.0800000000000000E-009     0.0000000000000000
  -1.0760000000000000E-009     0.0000000000000000
  -1.0720000000000000E-009     0.0000000000000000
  -1.0680000000000000E-009     0.0000000000000000
  -1.0640000000000000E-009     0.0000000000000000
  -1.0600000000000001E-009     0.0000000000000000
  -1.0560000000000001E-009     0.0000000000000000
  -1.0520000000000001E-009     0.0000000000000000
  -1.0480000000000001E-009     0.0000000000000000
  -1.0439999999999999E-009     0.0000000000000000
  -1.0399999999999999E-009     0.0000000000000000
  -1.0359999999999999E-009     0.0000000000000000
  -1.0320000000000000E-009     0.0000000000000000
  -1.0280000000000000E-009     0.0000000000000000
  -1.0240000000000000E-009     0.0000000000000000
  -1.0200000000000000E-009     0.0000000000000000
  -1.0160000000000000E-009     0.0000000000000000
  -1.0120000000000000E-009     0.0000000000000000
  -1.0080000000000000E-009     0.0000000000000000
  -1.0040000000000000E-009     0.0000000000000000
  -1.0000000000000001E-009     0.0000000000000000
  -9.9600000000000008E-010     0.0000000000000000
  -9.9199999999999988E-010     0.0000000000000000
  -9.8799999999999990E-010     0.0000000000000000
  -9.8399999999999991E-010     0.0000000000000000
  -9.7999999999999992E-010     0.0000000000000000
  -9.7599999999999994E-010     0.0000000000000000
  -9.7199999999999995E-010     0.0000000000000000
  -9.6799999999999997E-010     0.0000000000000000
  -9.6399999999999998E-010     0.0000000000000000
  -9.5999999999999999E-010     0.0000000000000000
  -9.5600000000000001E-010     0.0000000000000000
  -9.5200000000000002E-010     0.0000000000000000
  -9.4800000000000004E-010     0.0000000000000000
  -9.4400000000000005E-010     0.0000000000000000
  -9.4000000000000006E-010     0.0000000000000000
  -9.3600000000000008E-010     0.0000000000000000
  -9.3200000000000009E-010     0.0000000000000000
  -9.2800000000000000E-010     0.0000000000000000
  -9.2400000000000001E-010     0.0000000000000000
  -9.1999999999999992E-010     0.0000000000000000
  -9.1599999999999994E-010     0.0000000000000000
  -9.1199999999999995E-010     0.0000000000000000
  -9.0799999999999997E-010     0.0000000000000000
  -9.0399999999999998E-010     0.0000000000000000
  -8.9999999999999999E-010     0.0000000000000000
  -8.9600000000000001E-010     0.0000000000000000
  -8.9200000000000002E-010     0.0000000000000000
  -8.8800000000000004E-010     0.0000000000000000
  -8.8400000000000005E-010     0.0000000000000000
  -8.8000000000000006E-010     0.0000000000000000
  -8.7599999999999997E-010     0.0000000000000000
  -8.7199999999999999E-010     0.0000000000000000
  -8.6800000000000000E-010     0.0000000000000000
  -8.6400000000000001E-010     0.0000000000000000
  -8.5999999999999993E-010     0.0000000000000000
  -8.5599999999999994E-010     0.0000000000000000
  -8.5199999999999995E-010     0.0000000000000000
  -8.4799999999999997E-010     0.0000000000000000
  -8.4399999999999998E-010     0.0000000000000000
  -8.3999999999999999E-010     0.0000000000000000
  -8.3600000000000001E-010     0.0000000000000000
  -8.3200000000000002E-010     0.0000000000000000
  -8.2800000000000004E-010     0.0000000000000000
  -8.2400000000000005E-010     0.0000000000000000
  -8.2000000000000006E-010     0.0000000000000000
  -8.1599999999999997E-010     0.0000000000000000
  -8.1199999999999999E-010     0.0000000000000000
  -8.0800000000000000E-010     0.0000000000000000
  -8.0400000000000002E-010     0.0000000000000000
  -7.9999999999999993E-010     0.0000000000000000
  -7.9599999999999994E-010     0.0000000000000000
  -7.9199999999999995E-010     0.0000000000000000
  -7.8799999999999997E-010     0.0000000000000000
  -7.8399999999999998E-010     0.0000000000000000
  -7.7999999999999999E-010     0.0000000000000000
  -7.7600000000000001E-010     0.0000000000000000
  -7.7200000000000002E-010     0.0000000000000000
  -7.6800000000000004E-010     0.0000000000000000
  -7.6400000000000005E-010     0.0000000000000000
  -7.6000000000000006E-010     0.0000000000000000
  -7.5600000000000008E-010     0.0000000000000000
  -7.5199999999999999E-010     0.0000000000000000
  -7.4800000000000000E-010     0.0000000000000000
  -7.4400000000000002E-010     0.0000000000000000
  -7.3999999999999993E-010     0.0000000000000000
  -7.3599999999999994E-010     0.0000000000000000
  -7.3199999999999995E-010     0.0000000000000000
  -7.2799999999999997E-010     0.0000000000000000
  -7.2399999999999998E-010     0.0000000000000000
  -7.2000000000000000E-010     0.0000000000000000
  -7.1600000000000001E-010     0.0000000000000000
  -7.1200000000000002E-010     0.0000000000000000
  -7.0800000000000004E-010     0.0000000000000000
  -7.0400000000000005E-010     0.0000000000000000
  -6.9999999999999996E-010     0.0000000000000000
  -6.9599999999999997E-010     0.0000000000000000
  -6.9199999999999999E-010     0.0000000000000000
  -6.8800000000000000E-010     0.0000000000000000
  -6.8400000000000002E-010     0.0000000000000000
  -6.8000000000000003E-010     0.0000000000000000
  -6.7600000000000004E-010     0.0000000000000000
  -6.7199999999999995E-010     0.0000000000000000
  -6.6799999999999997E-010     0.0000000000000000
  -6.6399999999999998E-010     0.0000000000000000
  -6.6000000000000000E-010     0.0000000000000000
  -6.5600000000000001E-010     0.0000000000000000
  -6.5200000000000002E-010     0.0000000000000000
  -6.4800000000000004E-010     0.0000000000000000
  -6.4400000000000005E-010     0.0000000000000000
  -6.3999999999999996E-010     0.0000000000000000
  -6.3599999999999998E-010     0.0000000000000000
  -6.3199999999999999E-010     0.0000000000000000
  -6.2800000000000000E-010     0.0000000000000000
  -6.2400000000000002E-010     0.0000000000000000
  -6.2000000000000003E-010     0.0000000000000000
  -6.1600000000000004E-010     0.0000000000000000
  -6.1199999999999995E-010     0.0000000000000000
  -6.0799999999999997E-010     0.0000000000000000
  -6.0399999999999998E-010     0.0000000000000000
  -6.0000000000000000E-010     0.0000000000000000
  -5.9600000000000001E-010     0.0000000000000000
  -5.9200000000000002E-010     0.0000000000000000
  -5.8800000000000004E-010     0.0000000000000000
  -5.8400000000000005E-010     0.0000000000000000
  -5.7999999999999996E-010     0.0000000000000000
  -5.7599999999999998E-010     0.0000000000000000
  -5.7199999999999999E-010    -1.4012984643248171E-045
  -5.6800000000000000E-010    -2.8025969286496341E-045
  -5.6400000000000002E-010    -1.4012984643248171E-045
  -5.6000000000000003E-010     2.8025969286496341E-045
  -5.5600000000000004E-010     8.4077907859489024E-045
  -5.5199999999999995E-010     1.4012984643248171E-044
  -5.4799999999999997E-010     1.5414283107572988E-044
  -5.4399999999999998E-010     8.4077907859489024E-045
  -5.4000000000000000E-010    -7.0064923216240854E-045
  -5.3600000000000001E-010    -3.0828566215145976E-044
  -5.3200000000000002E-010    -5.6051938572992683E-044
  -5.2800000000000004E-010    -7.2867520144890488E-044
  -5.2400000000000005E-010    -6.8663624751916036E-044
  -5.1999999999999996E-010    -3.0828566215145976E-044
  -5.1599999999999998E-010     4.6242849322718963E-044
  -5.1199999999999999E-010     1.5694542800437951E-043
  -5.0800000000000000E-010     2.7885839440063860E-043
  -5.0400000000000002E-010     3.6714019765310207E-043
  -5.0000000000000003E-010     3.6293630226012762E-043
  -4.9600000000000004E-010     2.0739217272007293E-043
  -4.9199999999999996E-010    -1.4153114489680652E-043
  -4.8799999999999997E-010    -6.7262326287591219E-043
  -4.8399999999999998E-010    -1.2891945871788317E-042
  -4.8000000000000000E-010    -1.8020698251217148E-042
  -4.7600000000000001E-010    -1.9337918807682476E-042
  -4.7200000000000002E-010    -1.3788776888956200E-042
  -4.6800000000000004E-010     9.8090892502737195E-044
  -4.6400000000000005E-010     2.5223372357846707E-042
  -4.5999999999999996E-010     5.5631549033695238E-042
  -4.5599999999999998E-010     8.4386193521640484E-042
  -4.5199999999999999E-010     9.9225944258840297E-042
  -4.4800000000000000E-010     8.5493219308457089E-042
  -4.4400000000000002E-010     3.0015813105837582E-042
  -4.4000000000000003E-010    -7.2881533129533736E-042
  -4.3600000000000005E-010    -2.1462287279598898E-041
  -4.3199999999999996E-010    -3.6676184706773437E-041
  -4.2799999999999997E-010    -4.7928611375301718E-041
  -4.2399999999999998E-010    -4.8570406071962484E-041
  -4.2000000000000000E-010    -3.1726798530778183E-041
  -4.1600000000000001E-010     7.3498104453836655E-042
  -4.1200000000000002E-010     6.8293681957334285E-041
  -4.0800000000000004E-010     1.4267040054830260E-040
  -4.0400000000000005E-010     2.1214537711106271E-040
  -3.9999999999999996E-010     2.4904436827366379E-040
  -3.9599999999999998E-010     2.2049991855536727E-040
  -3.9199999999999999E-010     9.6824118690987560E-041
  -3.8800000000000000E-010    -1.3635755096651930E-040
  -3.8400000000000002E-010    -4.6419132669531025E-040
  -3.8000000000000003E-010    -8.3062246732546397E-040
  -3.7600000000000005E-010    -1.1334626836445575E-039
  -3.7200000000000006E-010    -1.2321393189053825E-039
  -3.6799999999999997E-010    -9.7264686928171283E-040
  -3.6399999999999998E-010    -2.3105589988712611E-040
  -3.6000000000000000E-010     1.0283681014171249E-039
  -3.5600000000000001E-010     2.6912763773452063E-039
  -3.5200000000000003E-010     4.4455338988641583E-039
  -3.4800000000000004E-010     5.7708357435732476E-039
  -3.4400000000000005E-010     5.9893079832507369E-039
  -3.3999999999999996E-010     4.3942421711744771E-039
  -3.3599999999999998E-010     4.5869683541669265E-040
  -3.3199999999999999E-010    -5.8982796350081967E-039
  -3.2800000000000000E-010    -1.4039652754322736E-038
  -3.2400000000000002E-010    -2.2413658234296767E-038
  -3.2000000000000003E-010    -2.8532841361818057E-038
  -3.1600000000000005E-010    -2.9228642101293902E-038
  -3.1200000000000006E-010    -2.1250125086906264E-038
  -3.0799999999999997E-010    -2.2078844590917175E-039
  -3.0399999999999998E-010     2.8238179123336763E-038
  -3.0000000000000000E-010     6.7172929050761153E-038
  -2.9600000000000001E-010     1.0754879393707569E-037
  -2.9200000000000003E-010     1.3806591316073469E-037
  -2.8800000000000004E-010     1.4423624508350229E-037
  -2.8400000000000005E-010     1.1093437586843530E-037
  -2.7999999999999996E-010     2.6463633602651316E-038
  -2.7599999999999998E-010    -1.1225031844070117E-037
  -2.7199999999999999E-010    -2.9424106421485642E-037
  -2.6800000000000011E-010    -4.9027644155677815E-037
  -2.6399999999999992E-010    -6.5162015307710325E-037
  -2.5999999999999993E-010    -7.1363660085442352E-037
  -2.5599999999999994E-010    -6.0567913223321214E-037
  -2.5199999999999996E-010    -2.6769100973331326E-037
  -2.4799999999999997E-010     3.2767212193794644E-037
  -2.4399999999999998E-010     1.1506724897108269E-036
  -2.4000000000000000E-010     2.0933582077371985E-036
  -2.3600000000000001E-010     2.9589701784650605E-036
  -2.3200000000000003E-010     3.4699435965529374E-036
  -2.2800000000000004E-010     3.3015513761778339E-036
  -2.2400000000000005E-010     2.1449189959424178E-036
  -2.2000000000000007E-010    -2.0274954759349995E-037
  -2.1600000000000008E-010    -3.7310085945236600E-036
  -2.1200000000000010E-010    -8.1116442697134203E-036
  -2.0800000000000011E-010    -1.2625096313756862E-035
  -2.0399999999999992E-010    -1.6151758732427158E-035
  -1.9999999999999993E-010    -1.7261815987447994E-035
  -1.9599999999999994E-010    -1.4428419729274374E-035
  -1.9199999999999996E-010    -6.3698377222551151E-036
  -1.8799999999999997E-010     7.5032843302036899E-036
  -1.8399999999999998E-010     2.6596785117256113E-035
  -1.8000000000000000E-010     4.8698836847459113E-035
  -1.7600000000000001E-010     6.9737097758619747E-035
  -1.7200000000000003E-010     8.3877858580405115E-035
  -1.6800000000000004E-010     8.4105490076788226E-035
  -1.6400000000000005E-010     6.3369247413898676E-035
  -1.6000000000000007E-010     1.6289309651586671E-035
  -1.5600000000000008E-010    -5.8723272444110371E-035
  -1.5200000000000010E-010    -1.5724336531279007E-034
  -1.4800000000000011E-010    -2.6698369525303126E-034
  -1.4399999999999992E-010    -3.6693333963293582E-034
  -1.3999999999999993E-010    -4.2814645030916314E-034
  -1.3599999999999994E-010    -4.1676647113175335E-034
  -1.3199999999999996E-010    -2.9962659940351520E-034
  -1.2799999999999997E-010    -5.2332141801113249E-035
  -1.2399999999999999E-010     3.3087679529588916E-034
  -1.2000000000000000E-010     8.2690600102524989E-034
  -1.1600000000000001E-010     1.3753815632143519E-033
  -1.1200000000000003E-010     1.8747410224997639E-033
  -1.0800000000000004E-010     2.1857931744456573E-033
  -1.0400000000000005E-010     2.1453772909414869E-033
  -1.0000000000000007E-010     1.5917155946133509E-033
  -9.6000000000000082E-011     4.0121725226426691E-034
  -9.2000000000000096E-011    -1.4661080539207392E-033
  -8.8000000000000110E-011    -3.9185974785164532E-033
  -8.3999999999999917E-011    -6.6914428173383305E-033
  -7.9999999999999931E-011    -9.3236516446858448E-033
  -7.5999999999999944E-011    -1.1166721726967587E-032
  -7.1999999999999958E-011    -1.1437454973693253E-032
  -6.7999999999999972E-011    -9.3235950740202114E-033
  -6.3999999999999986E-011    -4.1437601153386007E-033
  -6.0000000000000000E-011     4.4474623051849854E-033
  -5.6000000000000013E-011     1.6231682969583028E-032
  -5.2000000000000027E-011     3.0213087716028181E-032
  -4.8000000000000041E-011     4.4469127615759760E-032
  -4.4000000000000055E-011     5.6124524384883249E-032
  -4.0000000000000069E-011     6.1508376673725638E-032
  -3.6000000000000082E-011     5.6543335389665968E-032
  -3.2000000000000096E-011     3.7391079400115364E-032
  -2.8000000000000110E-011     1.3379119460979222E-033
  -2.3999999999999917E-011    -5.2149831213919603E-032
  -1.9999999999999931E-011    -1.2033400487517413E-031
  -1.5999999999999945E-011    -1.9627419605764568E-031
  -1.1999999999999959E-011    -2.6830978291982136E-031
  -7.9999999999999724E-012    -3.2023306110750698E-031
  -3.9999999999999862E-012    -3.3241879978541921E-031
   0.0000000000000000         -2.8410727501040910E-031
   3.9999999999999862E-012    -1.5690287005792746E-031
   7.9999999999999724E-012     6.0649772089998023E-032
   1.1999999999999959E-011     3.6780891449799848E-031
   1.5999999999999945E-011     7.4638719102071639E-031
   1.9999999999999931E-011     1.1564856667740105E-030
   2.3999999999999917E-011     1.5344130250549040E-030
   2.7999999999999903E-011     1.7940928926882766E-030
   3.1999999999999889E-011     1.8331751646271276E-030
   3.6000000000000082E-011     1.5447278469240475E-030
   4.0000000000000069E-011     8.3474853713473934E-031
   4.4000000000000055E-011    -3.5518939489474581E-031
   4.8000000000000041E-011    -2.0220289585556595E-030
   5.2000000000000027E-011    -4.0752651292160452E-030
   5.6000000000000013E-011    -6.3154447744255546E-030
   6.0000000000000000E-011    -8.4227092985570784E-030
   6.3999999999999986E-011    -9.9615032499981751E-030
   6.7999999999999972E-011    -1.0407280800485368E-029
   7.1999999999999958E-011    -9.1996663016257312E-030
   7.5999999999999944E-011    -5.8238462660642132E-030
   7.9999999999999931E-011     8.1991830057072573E-032
   8.3999999999999917E-011     8.6006185818026184E-030
   8.7999999999999903E-011     1.9404544654334537E-029
   9.1999999999999889E-011     3.1639219256111044E-029
   9.6000000000000082E-011     4.3845630835953668E-029
   1.0000000000000007E-010     5.3950780624096904E-029
   1.0400000000000005E-010     5.9354603010307220E-029
   1.0800000000000004E-010     5.7137917829628273E-029
   1.1200000000000003E-010     4.4406016264459592E-029
   1.1600000000000001E-010     1.8767048301047441E-029
   1.2000000000000000E-010    -2.1077296061204380E-029
   1.2399999999999999E-010    -7.4677409981411440E-029
   1.2799999999999997E-010    -1.3919484135657537E-028
   1.3199999999999996E-010    -2.0887959693930994E-028
   1.3599999999999994E-010    -2.7479223817002982E-028
   1.3999999999999993E-010    -3.2490854644163143E-028
   1.4399999999999992E-010    -3.4473878781751738E-028
   1.4799999999999990E-010    -3.1856691654312605E-028
   1.5199999999999989E-010    -2.3136155495912546E-028
   1.5600000000000008E-010    -7.1331329388688437E-029
   1.6000000000000007E-010     1.6700853179737036E-028
   1.6400000000000005E-010     4.7951548569635767E-028
   1.6800000000000004E-010     8.4923524600715453E-028
   1.7200000000000003E-010     1.2438690768197877E-027
   1.7600000000000001E-010     1.6145040871884060E-027
   1.8000000000000000E-010     1.8962654232328226E-027
   1.8399999999999998E-010     2.0115178859298157E-027
   1.8799999999999997E-010     1.8761119145157712E-027
   1.9199999999999996E-010     1.4089321545579596E-027
   1.9599999999999994E-010     5.4463026229936653E-028
   1.9999999999999993E-010    -7.5104936336410025E-028
   2.0399999999999992E-010    -2.4645164459281208E-027
   2.0799999999999990E-010    -4.5179381378089307E-027
   2.1199999999999989E-010    -6.7555636658837078E-027
   2.1600000000000008E-010    -8.9356262294086615E-027
   2.2000000000000007E-010    -1.0730944997571399E-026
   2.2400000000000005E-010    -1.1741299401976610E-026
   2.2800000000000004E-010    -1.1520180303573600E-026
   2.3200000000000003E-010    -9.6175687485810270E-027
   2.3600000000000001E-010    -5.6388528617876235E-027
   2.4000000000000000E-010     6.8202774157240466E-028
   2.4399999999999998E-010     9.3996536272335000E-027
   2.4799999999999997E-010     2.0271619067192822E-026
   2.5199999999999996E-010     3.2680525906579734E-026
   2.5599999999999994E-010     4.5576041287203436E-026
   2.5999999999999993E-010     5.7451470154226950E-026
   2.6399999999999992E-010     6.6369826184638302E-026
   2.6799999999999990E-010     7.0053523115132613E-026
   2.7199999999999989E-010     6.6048685840503486E-026
   2.7600000000000008E-010     5.1969688049797783E-026
   2.8000000000000007E-010     2.5821690025218093E-026
   2.8400000000000005E-010    -1.3611215599861287E-026
   2.8800000000000004E-010    -6.6336767982328884E-026
   2.9200000000000003E-010    -1.3072170919586632E-025
   2.9600000000000001E-010    -2.0310605744094250E-025
   3.0000000000000000E-010    -2.7752612288169972E-025
   3.0399999999999998E-010    -3.4561620818159217E-025
   3.0799999999999997E-010    -3.9676062446501233E-025
   3.1199999999999996E-010    -4.1856289099257449E-025
   3.1599999999999994E-010    -3.9768396150267024E-025
   3.1999999999999993E-010    -3.2107647105339666E-025
   3.2399999999999992E-010    -1.7760651078417426E-025
   3.2799999999999990E-010     3.9993525342963039E-026
   3.3199999999999989E-010     3.3295126821539842E-025
   3.3600000000000008E-010     6.9423092596773598E-025
   3.4000000000000007E-010     1.1064921002265656E-024
   3.4400000000000005E-010     1.5405159747081798E-024
   3.4800000000000004E-010     1.9544247835751766E-024
   3.5200000000000003E-010     2.2940394612493638E-024
   3.5600000000000001E-010     2.4947047707236008E-024
   3.6000000000000000E-010     2.4848582089046322E-024
   3.6399999999999998E-010     2.1915252116788565E-024
   3.6799999999999997E-010     1.5477708326306580E-024
   3.7199999999999996E-010     5.0194637614295381E-025
   3.7599999999999994E-010    -9.7166827734569504E-025
   3.7999999999999993E-010    -2.8614945232912940E-024
   3.8399999999999991E-010    -5.1075071465546711E-024
   3.8799999999999990E-010    -7.5915271907475059E-024
   3.9199999999999989E-010    -1.0130401072415336E-023
   3.9599999999999987E-010    -1.2473661115415513E-023
   4.0000000000000007E-010    -1.4307311491616579E-023
   4.0400000000000005E-010    -1.5265244221488179E-023
   4.0800000000000004E-010    -1.4949532620887867E-023
   4.1200000000000002E-010    -1.2960322029620838E-023
   4.1600000000000001E-010    -8.9353264992425324E-024
   4.2000000000000000E-010    -2.5980226723413020E-024
   4.2399999999999998E-010     6.1874735030203406E-024
   4.2799999999999997E-010     1.7358106402535817E-023
   4.3199999999999996E-010     3.0594676477112380E-023
   4.3599999999999994E-010     4.5271518815727069E-023
   4.3999999999999993E-010     6.0419834918399768E-023
   4.4399999999999991E-010     7.4712214850802324E-023
   4.4799999999999990E-010     8.6476062079143591E-023
   4.5199999999999989E-010     9.3743288551754739E-023
   4.5599999999999987E-010     9.4342400010277509E-023
   4.6000000000000007E-010     8.6037032586395510E-023
   4.6400000000000005E-010     6.6712035623044987E-023
   4.6800000000000004E-010     3.4604292375282497E-023
   4.7200000000000002E-010    -1.1429312617681477E-023
   4.7600000000000001E-010    -7.1619728641042155E-023
   4.8000000000000000E-010    -1.4498814102790583E-022
   4.8399999999999998E-010    -2.2906708200802347E-022
   4.8799999999999997E-010    -3.1966991529609336E-022
   4.9199999999999996E-010    -4.1074192518526526E-022
   4.9599999999999994E-010    -4.9432902085730846E-022
   4.9999999999999993E-010    -5.6069915785314342E-022
   5.0399999999999991E-010    -5.9864980449926069E-022
   5.0799999999999990E-010    -5.9602619196801492E-022
   5.1199999999999989E-010    -5.4046675627862251E-022
   5.1599999999999987E-010    -4.2037698392921331E-022
   5.2000000000000007E-010    -2.2611371299662084E-022
   5.2400000000000005E-010     4.8657489681222042E-023
   5.2800000000000004E-010     4.0549472536632269E-022
   5.3200000000000002E-010     8.3968909398879964E-022
   5.3600000000000001E-010     1.3388631091993583E-021
   5.4000000000000000E-010     1.8817920707571311E-021
   5.4399999999999998E-010     2.4375988773591621E-021
   5.4799999999999997E-010     2.9654842993196937E-021
   5.5199999999999995E-010     3.4151516760379887E-021
   5.5599999999999994E-010     3.7280795947630543E-021
   5.5999999999999993E-010     3.8397574592901660E-021
   5.6399999999999991E-010     3.6829732097783389E-021
   5.6799999999999990E-010     3.1921701573536532E-021
   5.7199999999999989E-010     2.3088289087490333E-021
   5.7599999999999987E-010     9.8772806937066997E-022
   5.8000000000000007E-010    -7.9614159912699689E-022
   5.8400000000000005E-010    -3.0403560597108551E-021
   5.8800000000000004E-010    -5.7079703182385378E-021
   5.9200000000000002E-010    -8.7211106009886211E-021
   5.9600000000000001E-010    -1.1955858547514056E-020
   6.0000000000000000E-010    -1.5239119344496019E-020
   6.0399999999999998E-010    -1.8348163302894670E-020
   6.0799999999999997E-010    -2.1013537953757994E-020
   6.1199999999999995E-010    -2.2925935909127978E-020
   6.1599999999999994E-010    -2.3747516896674934E-020
   6.1999999999999993E-010    -2.3127953771111315E-020
   6.2399999999999991E-010    -2.0725247738824791E-020
   6.2799999999999990E-010    -1.6231023605633605E-020
   6.3199999999999989E-010    -9.3996539660492588E-021
   6.3599999999999987E-010    -8.0181463237346500E-023
   6.4000000000000006E-010     1.1750423718742537E-020
   6.4400000000000005E-010     2.5954546246478651E-020
   6.4800000000000004E-010     4.2204008548071373E-020
   6.5200000000000002E-010     5.9955498363915414E-020
   6.5600000000000001E-010     7.8434144561678922E-020
   6.6000000000000000E-010     9.6628124306450548E-020
   6.6399999999999978E-010     1.1329706734500996E-019
   6.6800000000000017E-010     1.2699676802662784E-019
   6.7200000000000016E-010     1.3612231501719234E-019
   6.7600000000000015E-010     1.3897087947758062E-019
   6.8000000000000013E-010     1.3382471746824974E-019
   6.8400000000000012E-010     1.1905340430306940E-019
   6.8800000000000011E-010     9.3233478470109492E-020
   6.9200000000000009E-010     5.5281708183140598E-020
   6.9600000000000008E-010     4.5970190957593718E-021
   7.0000000000000006E-010    -5.8795648973448286E-020
   7.0400000000000005E-010    -1.3410770371062237E-019
   7.0800000000000004E-010    -2.1966484269866320E-019
   7.1200000000000002E-010    -3.1281096314126885E-019
   7.1600000000000001E-010    -4.0984902006472478E-019
   7.2000000000000000E-010    -5.0602960088569292E-019
   7.2399999999999998E-010    -5.9559780328748874E-019
   7.2799999999999997E-010    -6.7190733444582521E-019
   7.3199999999999995E-010    -7.2760859122059211E-019
   7.3599999999999994E-010    -7.5491480551794497E-019
   7.3999999999999993E-010    -7.4594744389483416E-019
   7.4399999999999991E-010    -6.9315558812956939E-019
   7.4799999999999990E-010    -5.8980216232563595E-019
   7.5199999999999988E-010    -4.3050203974955463E-019
   7.5599999999999987E-010    -2.1179261650778432E-019
   7.5999999999999986E-010     6.7287485141917668E-020
   7.6399999999999984E-010     4.0464178886173276E-019
   7.6799999999999983E-010     7.9461533901742753E-019
   7.7199999999999982E-010     1.2275872108290948E-018
   7.7599999999999980E-010     1.6896947619591408E-018
   7.7999999999999979E-010     2.1627294723785888E-018
   7.8399999999999977E-010     2.6242395923112184E-018
   7.8800000000000017E-010     3.0478737323805042E-018
   7.9200000000000016E-010     3.4039892549501492E-018
   7.9600000000000015E-010     3.6605426306559209E-018
   8.0000000000000013E-010     3.7842656892367024E-018
   8.0400000000000012E-010     3.7421200098465131E-018
   8.0800000000000010E-010     3.5030023606824403E-018
   8.1200000000000009E-010     3.0396598288978527E-018
   8.1600000000000008E-010     2.3307565313628636E-018
   8.2000000000000006E-010     1.3630139444993125E-018
   8.2400000000000005E-010     1.3333276472363090E-019
   8.2800000000000004E-010    -1.3492121257861355E-018
   8.3200000000000002E-010    -3.0616204401853698E-018
   8.3600000000000001E-010    -4.9655883782129766E-018
   8.3999999999999999E-010    -7.0066251068242954E-018
   8.4399999999999998E-010    -9.1137949254092287E-018
   8.4799999999999997E-010    -1.1200194238812956E-017
   8.5199999999999995E-010    -1.3164260157064990E-017
   8.5599999999999994E-010    -1.4891984030698373E-017
   8.5999999999999993E-010    -1.6260069626328402E-017
   8.6399999999999991E-010    -1.7140034288129663E-017
   8.6799999999999990E-010    -1.7403229924154236E-017
   8.7199999999999988E-010    -1.6926661394760384E-017
   8.7599999999999987E-010    -1.5599488152227229E-017
   8.7999999999999986E-010    -1.3330026324640004E-017
   8.8399999999999984E-010    -1.0052967521095811E-017
   8.8799999999999983E-010    -5.7365715807200704E-018
   8.9199999999999981E-010    -3.8948168788395543E-019
   8.9599999999999980E-010     5.9331882764208623E-018
   8.9999999999999979E-010     1.3124873125017665E-017
   9.0399999999999977E-010     2.1024049273843829E-017
   9.0799999999999976E-010     2.9412587127417589E-017
   9.1200000000000016E-010     3.8016277967038841E-017
   9.1600000000000015E-010     4.6507832894099956E-017
   9.2000000000000013E-010     5.4512582104506262E-017
   9.2400000000000012E-010     6.1616974996650650E-017
   9.2800000000000010E-010     6.7379968794087196E-017
   9.3200000000000009E-010     7.1347146864226218E-017
   9.3600000000000008E-010     7.3067444310320100E-017
   9.4000000000000006E-010     7.2112004380707050E-017
   9.4400000000000005E-010     6.8094851366680024E-017
   9.4800000000000004E-010     6.0694589204315219E-017
   9.5200000000000002E-010     4.9676510357884388E-017
   9.5600000000000001E-010     3.4914244790846581E-017
   9.5999999999999999E-010     1.6409984531825062E-017
   9.6399999999999998E-010    -5.6876752803508358E-018
   9.6799999999999997E-010    -3.1069264458238793E-017
   9.7199999999999995E-010    -5.9254361878741991E-017
   9.7599999999999994E-010    -8.9586816860710400E-017
   9.7999999999999992E-010    -1.2123611690808363E-016
   9.8399999999999991E-010    -1.5320560202696388E-016
   9.8799999999999990E-010    -1.8434794623796051E-016
   9.9199999999999988E-010    -2.1338827231122718E-016
   9.9599999999999987E-010    -2.3895479715379576E-016
   9.9999999999999986E-010    -2.5961697476198234E-016
   1.0039999999999998E-009    -2.7393016397446511E-016
   1.0079999999999998E-009    -2.8048627839555220E-016
   1.0119999999999998E-009    -2.7796902882521043E-016
   1.0159999999999998E-009    -2.6521231559286664E-016
   1.0199999999999998E-009    -2.4126002378952794E-016
   1.0239999999999998E-009    -2.0542499793673428E-016
   1.0279999999999998E-009    -1.5734542261711007E-016
   1.0320000000000002E-009    -9.7035935618775037E-017