  -1.2000000000000000E-009     0.0000000000000000
  -1.1960000000000000E-009     0.0000000000000000
  -1.1920000000000000E-009     0.0000000000000000
  -1.1880000000000000E-009     0.0000000000000000
  -1.1840000000000000E-009     0.0000000000000000
  -1.1800000000000001E-009     0.0000000000000000
  -1.1760000000000001E-009     0.0000000000000000
  -1.1720000000000001E-009     0.0000000000000000
  -1.1679999999999999E-009     0.0000000000000000
  -1.1639999999999999E-009     0.0000000000000000
  -1.1599999999999999E-009     0.0000000000000000
  -1.1559999999999999E-009     0.0000000000000000
  -1.1520000000000000E-009     0.0000000000000000
  -1.1480000000000000E-009     0.0000000000000000
  -1.1440000000000000E-009     0.0000000000000000
  -1.1400000000000000E-009     0.0000000000000000
  -1.1360000000000000E-009     0.0000000000000000
  -1.1320000000000000E-009     0.0000000000000000
  -1.1280000000000000E-009     0.0000000000000000
  -1.1240000000000000E-009     0.0000000000000000
  -1.1200000000000001E-009     0.0000000000000000
  -1.1160000000000001E-009     0.0000000000000000
  -1.1120000000000001E-009     0.0000000000000000
  -1.1079999999999999E-009     0.0000000000000000
  -1.1039999999999999E-009    -1.4012984643248171E-045
  -1.0999999999999999E-009    -5.6051938572992683E-045
  -1.0959999999999999E-009    -1.4012984643248171E-044
  -1.0920000000000000E-009    -3.5032461608120427E-044
  -1.0880000000000000E-009    -8.2676609395164207E-044
  -1.0840000000000000E-009    -1.8637269575520067E-043
  -1.0800000000000000E-009    -4.0637655465419695E-043
  -1.0760000000000000E-009    -8.5058816784516396E-043
  -1.0720000000000000E-009    -1.7095841264762768E-042
  -1.0680000000000000E-009    -3.3084656742708931E-042
  -1.0640000000000000E-009    -6.1741210338151440E-042
  -1.0600000000000001E-009    -1.1129112403667697E-041
  -1.0560000000000001E-009    -1.9393970746255468E-041
  -1.0520000000000001E-009    -3.2688089277305008E-041
  -1.0480000000000001E-009    -5.3308196179844691E-041
  -1.0439999999999999E-009    -8.4105933828775521E-041
  -1.0399999999999999E-009    -1.2829447960279430E-040
  -1.0359999999999999E-009    -1.8896790051113023E-040
  -1.0320000000000000E-009    -2.6816928971476889E-040
  -1.0280000000000000E-009    -3.6535214081262361E-040
  -1.0240000000000000E-009    -4.7503737680918434E-040
  -1.0200000000000000E-009    -5.8355673248342682E-040
  -1.0160000000000000E-009    -6.6480822134037269E-040
  -1.0120000000000000E-009    -6.7516521829019741E-040
  -1.0080000000000000E-009    -5.4789368656636023E-040
  -1.0040000000000000E-009    -1.8779361239802603E-040
  -1.0000000000000001E-009     5.3279469561326032E-040
  -9.9600000000000008E-010     1.7749743180155301E-039
  -9.9199999999999988E-010     3.7290948356057378E-039
  -9.8799999999999990E-010     6.6026913535473174E-039
  -9.8399999999999991E-010     1.0597403714364289E-038
  -9.7999999999999992E-010     1.5871428705589673E-038
  -9.7599999999999994E-010     2.2483959976953479E-038
  -9.7199999999999995E-010     3.0318221722229663E-038
  -9.6799999999999997E-010     3.8980303337902661E-038
  -9.6399999999999998E-010     4.7672078468034703E-038
  -9.5999999999999999E-010     5.5038446656072830E-038
  -9.5600000000000001E-010     5.8992204667971444E-038
  -9.5200000000000002E-010     5.6524955277416311E-038
  -9.4800000000000004E-010     4.3520078762388057E-038
  -9.4400000000000005E-010     1.4595592696671250E-038
  -9.4000000000000006E-010    -3.6978727847818094E-038
  -9.3600000000000008E-010    -1.1922261907979573E-037
  -9.3200000000000009E-010    -2.4114837652843717E-037
  -9.2800000000000000E-010    -4.1209389723019306E-037
  -9.2400000000000001E-010    -6.4051890969729405E-037
  -9.1999999999999992E-010    -9.3206221652940776E-037
  -9.1599999999999994E-010    -1.2866449862801251E-036
  -9.1199999999999995E-010    -1.6944162028491199E-036
  -9.0799999999999997E-010    -2.1304079113522346E-036
  -9.0399999999999998E-010    -2.5479071436475511E-036
  -8.9999999999999999E-010    -2.8708045148293203E-036
  -8.9600000000000001E-010    -2.9855429227713380E-036
  -8.9200000000000002E-010    -2.7338074785060095E-036
  -8.8800000000000004E-010    -1.9077263840852802E-036
  -8.8400000000000005E-010    -2.5009159785241073E-037
  -8.8000000000000006E-010     2.5371462476387571E-036
  -8.7599999999999997E-010     6.7722092089528438E-036
  -8.7199999999999999E-010     1.2756386634951730E-035
  -8.6800000000000000E-010     2.0716364582760228E-035
  -8.6400000000000001E-010     3.0722793247516382E-035
  -8.5999999999999993E-010     4.2583832582535031E-035
  -8.5599999999999994E-010     5.5715763259869336E-035
  -8.5199999999999995E-010     6.8997374316504147E-035
  -8.4799999999999997E-010     8.0621205434805960E-035
  -8.4399999999999998E-010     8.7962190614565185E-035
  -8.3999999999999999E-010     8.7492721818487024E-035
  -8.3600000000000001E-010     7.4781271439749102E-035
  -8.3200000000000002E-010     4.4618944485566431E-035
  -8.2800000000000004E-010    -8.6777742302867494E-036
  -8.2400000000000005E-010    -9.0740553016736502E-035
  -8.2000000000000006E-010    -2.0635931898379878E-034
  -8.1599999999999997E-010    -3.5840668932115481E-034
  -8.1199999999999999E-010    -5.4648107888354272E-034
  -8.0800000000000000E-010    -7.6531436739273337E-034
  -8.0400000000000002E-010    -1.0030396868295613E-033
  -7.9999999999999993E-010    -1.2394769675150254E-033
  -7.9599999999999994E-010    -1.4446606084770096E-033
  -7.9199999999999995E-010    -1.5779016992812658E-033
  -7.8799999999999997E-010    -1.5877372809197867E-033
  -7.8399999999999998E-010    -1.4131557986715376E-033
  -7.7999999999999999E-010    -9.8650516492379581E-034
  -7.7600000000000001E-010    -2.3844909794092314E-034
  -7.7200000000000002E-010     8.9474726976005810E-034
  -7.6800000000000004E-010     2.4614759870722542E-033
  -7.6400000000000005E-010     4.4826915035371447E-033
  -7.6000000000000006E-010     6.9378631674691452E-033
  -7.5600000000000008E-010     9.7497374901322149E-033
  -7.5199999999999999E-010     1.2769092443187172E-032
  -7.4800000000000000E-010     1.5761092908014526E-032
  -7.4400000000000002E-010     1.8395287586130961E-032
  -7.3999999999999993E-010     2.0241630685495774E-032
  -7.3599999999999994E-010     2.0775180224494317E-032
  -7.3199999999999995E-010     1.9392150876666416E-032
  -7.2799999999999997E-010     1.5439887607284398E-032
  -7.2399999999999998E-010     8.2627907682717775E-033
  -7.2000000000000000E-010    -2.7345132027255318E-033
  -7.1600000000000001E-010    -1.8006676500588805E-032
  -7.1200000000000002E-010    -3.7771248966850677E-032
  -7.0800000000000004E-010    -6.1899786905190689E-032
  -7.0400000000000005E-010    -8.9802002603031982E-032
  -6.9999999999999996E-010    -1.2031091816612398E-031
  -6.9599999999999997E-010    -1.5157950283090663E-031
  -6.9199999999999999E-010    -1.8100170325402219E-031
  -6.8800000000000000E-010    -2.0517273531314443E-031
  -6.8400000000000002E-010    -2.1990539409109629E-031
  -6.8000000000000003E-010    -2.2031949724100396E-031
  -6.7600000000000004E-010    -2.0102154754287657E-031
  -6.7199999999999995E-010    -1.5638966097930195E-031
  -6.6799999999999997E-010    -8.0975668088032492E-032
  -6.6399999999999998E-010     2.9969569367575958E-032
  -6.6000000000000000E-010     1.7984922508258900E-031
  -6.5600000000000001E-010     3.6996347809362065E-031
  -6.5200000000000002E-010     5.9866676561389828E-031
  -6.4800000000000004E-010     8.6047869788101823E-031
  -6.4400000000000005E-010     1.1452044004693949E-030
  -6.3999999999999996E-010     1.4371384224961100E-030
  -6.3599999999999998E-010     1.7144460974539616E-030
  -6.3199999999999999E-010     1.9488308312904076E-030
  -6.2800000000000000E-010     2.1056146943002578E-030
  -6.2400000000000002E-010     2.1443646304762443E-030
  -6.2000000000000003E-010     2.0202023343740297E-030
  -6.1600000000000004E-010     1.6859233382883213E-030
  -6.1199999999999995E-010     1.0950324207853384E-030
  -6.0799999999999997E-010     2.0575810798996691E-031
  -6.0399999999999998E-010    -1.0139460681492325E-030
  -6.0000000000000000E-010    -2.5804897736708687E-030
  -5.9600000000000001E-010    -4.4879960540383448E-030
  -5.9200000000000002E-010    -6.7012107992354715E-030
  -5.8800000000000004E-010    -9.1484109863479568E-030
  -5.8400000000000005E-010    -1.1714875889899391E-029
  -5.7999999999999996E-010    -1.4237673341227382E-029
  -5.7599999999999998E-010    -1.6502591029951076E-029
  -5.7199999999999999E-010    -1.8244192927699994E-029
  -5.6800000000000000E-010    -1.9150016461223304E-029
  -5.6400000000000002E-010    -1.8869894464710488E-029
  -5.6000000000000003E-010    -1.7031318984996135E-029
  -5.5600000000000004E-010    -1.3261526281344095E-029
  -5.5199999999999995E-010    -7.2166483330314888E-030
  -5.4799999999999997E-010     1.3821581066799019E-030
  -5.4399999999999998E-010     1.2706348386851862E-029
  -5.4000000000000000E-010     2.6772785491164453E-029
  -5.3600000000000001E-010     4.3393952115746252E-029
  -5.3200000000000002E-010     6.2128718520733670E-029
  -5.2800000000000004E-010     8.2237587792792772E-029
  -5.2400000000000005E-010     1.0264731139628946E-028
  -5.1999999999999996E-010     1.2193025163022918E-028
  -5.1599999999999998E-010     1.3830442375797439E-028
  -5.1199999999999999E-010     1.4966010393313256E-028
  -5.0800000000000000E-010     1.5361872052613685E-028
  -5.0400000000000002E-010     1.4762859691660645E-028
  -5.0000000000000003E-010     1.2910103048097971E-028
  -4.9600000000000004E-010     9.5587767036889442E-029
  -4.9199999999999996E-010     4.4998396204166648E-029
  -4.8799999999999997E-010    -2.4147010220806122E-029
  -4.8399999999999998E-010    -1.1243865497411911E-028
  -4.8000000000000000E-010    -2.1928373531425714E-028
  -4.7600000000000001E-010    -3.4261607598106238E-028
  -4.7200000000000002E-010    -4.7862955792193954E-028
  -4.6800000000000004E-010    -6.2155994503571055E-028
  -4.6400000000000005E-010    -7.6354296720983747E-028
  -4.5999999999999996E-010    -8.9457760728085767E-028
  -4.5599999999999998E-010    -1.0026242993874232E-027
  -4.5199999999999999E-010    -1.0738657961812681E-027
  -4.4800000000000000E-010    -1.0931552364287701E-027
  -4.4400000000000002E-010    -1.0446683130383688E-027
  -4.4000000000000003E-010    -9.1276936375655618E-028
  -4.3600000000000005E-010    -6.8308888082351342E-028
  -4.3199999999999996E-010    -3.4379496177414611E-028
  -4.2799999999999997E-010     1.1297219775402513E-028
  -4.2399999999999998E-010     6.8955475727755608E-028
  -4.2000000000000000E-010     1.3811896151915476E-027
  -4.1600000000000001E-010     2.1744677370365087E-027
  -4.1200000000000002E-010     3.0459487257557997E-027
  -4.0800000000000004E-010     3.9610527980874393E-027
  -4.0400000000000005E-010     4.8733677386736173E-027
  -3.9999999999999996E-010     5.7245189960859455E-027
  -3.9599999999999998E-010     6.4447412988329517E-027
  -3.9199999999999999E-010     6.9543026879609600E-027
  -3.8800000000000000E-010     7.1658853516513417E-027
  -3.8400000000000002E-010     6.9880365064948690E-027
  -3.8000000000000003E-010     6.3297297699720014E-027
  -3.7600000000000005E-010     5.1060350982091616E-027
  -3.7200000000000006E-010     3.2448356592527808E-027
  -3.6799999999999997E-010     6.9443708598307494E-028
  -3.6399999999999998E-010    -2.5681620992222698E-027
  -3.6000000000000000E-010    -6.5286814147151139E-027
  -3.5600000000000001E-010    -1.1127084905600543E-026
  -3.5200000000000003E-010    -1.6249762734831133E-026
  -3.4800000000000004E-010    -2.1722999873283042E-026
  -3.4400000000000005E-010    -2.7308429364343308E-026
  -3.3999999999999996E-010    -3.2701251994269251E-026
  -3.3599999999999998E-010    -3.7531968088394469E-026
  -3.3199999999999999E-010    -4.1372404901482791E-026
  -3.2800000000000000E-010    -4.3746700581387108E-026
  -3.2400000000000002E-010    -4.4147793210861239E-026
  -3.2000000000000003E-010    -4.2059740024499441E-026
  -3.1600000000000005E-010    -3.6985943838001355E-026
  -3.1200000000000006E-010    -2.8483006274362463E-026
  -3.0799999999999997E-010    -1.6199531400393603E-026
  -3.0399999999999998E-010     8.1235207460581054E-029
  -3.0000000000000000E-010     2.0396599594631909E-026
  -2.9600000000000001E-010     4.4559532381067941E-026
  -2.9200000000000003E-010     7.2116363567406449E-026
  -2.8800000000000004E-010     1.0231008250747472E-025
  -2.8400000000000005E-010     1.3405274832387191E-025
  -2.7999999999999996E-010     1.6591061248433466E-025
  -2.7599999999999998E-010     1.9610569344205960E-025
  -2.7199999999999999E-010     2.2253746414762113E-025
  -2.6800000000000011E-010     2.4282785409842392E-025
  -2.6399999999999992E-010     2.5439216053851134E-025
  -2.5999999999999993E-010     2.5453740955268516E-025
  -2.5599999999999994E-010     2.4058877102656723E-025
  -2.5199999999999996E-010     2.1004299209266498E-025
  -2.4799999999999997E-010     1.6074590315999776E-025
  -2.4399999999999998E-010     9.1089214058046250E-026
  -2.4000000000000000E-010     2.2009269811327270E-028
  -2.3600000000000001E-010    -1.1174561081696831E-025
  -2.3200000000000003E-010    -2.4351734318149037E-025
  -2.2800000000000004E-010    -3.9244373107261007E-025
  -2.2400000000000005E-010    -5.5436061196474692E-025
  -2.2000000000000007E-010    -7.2348844573960574E-025
  -2.1600000000000008E-010    -8.9239485611913035E-025
  -2.1200000000000010E-010    -1.0520372291543854E-024
  -2.0800000000000011E-010    -1.1918999010673552E-024
  -2.0399999999999992E-010    -1.3002373246249776E-024
  -1.9999999999999993E-010    -1.3644325571167610E-024
  -1.9599999999999994E-010    -1.3714741267719901E-024
  -1.9199999999999996E-010    -1.3085518199583939E-024
  -1.8799999999999997E-010    -1.1637635991608373E-024
  -1.8399999999999998E-010    -9.2691905781328847E-025
  -1.8000000000000000E-010    -5.9041806343581523E-025
  -1.7600000000000001E-010    -1.5017490818505168E-025
  -1.7200000000000003E-010     3.9345076132193127E-025
  -1.6800000000000004E-010     1.0347608795072058E-024
  -1.6400000000000005E-010     1.7619172819370564E-024
  -1.6000000000000007E-010     2.5562868028592265E-024
  -1.5600000000000008E-010     3.3919989461022194E-024
  -1.5200000000000010E-010     4.2357760088097394E-024
  -1.4800000000000011E-010     5.0470965728632986E-024
  -1.4399999999999992E-010     5.7787548072640192E-024
  -1.3999999999999993E-010     6.3778567994559270E-024
  -1.3599999999999994E-010     6.7872976973709783E-024
  -1.3199999999999996E-010     6.9477354394139225E-024
  -1.2799999999999997E-010     6.8000598890956439E-024
  -1.2399999999999999E-010     6.2883380472228044E-024
  -1.2000000000000000E-010     5.3631757826454432E-024
  -1.1600000000000001E-010     3.9854187731938203E-024
  -1.1200000000000003E-010     2.1300735388078186E-024
  -1.0800000000000004E-010    -2.0969833383279326E-025
  -1.0400000000000005E-010    -3.0186933996726270E-024
  -1.0000000000000007E-010    -6.2560949354437060E-024
  -9.6000000000000082E-011    -9.8524514544870494E-024
  -9.2000000000000096E-011    -1.3707453770677469E-023
  -8.8000000000000110E-011    -1.7688776383620929E-023
  -8.3999999999999917E-011    -2.1632216318173866E-023
  -7.9999999999999931E-011    -2.5343410869064306E-023
  -7.5999999999999944E-011    -2.8601288078491301E-023
  -7.1999999999999958E-011    -3.1163467277882076E-023
  -6.7999999999999972E-011    -3.2773664914070238E-023
  -6.3999999999999986E-011    -3.3171143525218518E-023
  -6.0000000000000000E-011    -3.2102136024448179E-023
  -5.6000000000000013E-011    -2.9333041765061554E-023
  -5.2000000000000027E-011    -2.4665119863762692E-023
  -4.8000000000000041E-011    -1.7950214353942035E-023
  -4.4000000000000055E-011    -9.1070023537412551E-024
  -4.0000000000000069E-011     1.8629307236353806E-024
  -3.6000000000000082E-011     1.4859966931430884E-023
  -3.2000000000000096E-011     2.9673154411182161E-023
  -2.8000000000000110E-011     4.5969667027734906E-023
  -2.3999999999999917E-011     6.3287975397602323E-023
  -1.9999999999999931E-011     8.1035749110602921E-023
  -1.5999999999999945E-011     9.8493285119354605E-023
  -1.1999999999999959E-011     1.1482337481147718E-022
  -7.9999999999999724E-012     1.2908821403195666E-022
  -3.9999999999999862E-012     1.4027369368813884E-022
   0.0000000000000000          1.4732136439360888E-022
   3.9999999999999862E-012     1.4916785426990332E-022
   7.9999999999999724E-012     1.4479115299354128E-022
   1.1999999999999959E-011     1.3326291642948418E-022
   1.5999999999999945E-011     1.1380554229535033E-022
   1.9999999999999931E-011     8.5852022616015836E-023
   2.3999999999999917E-011     4.9106698635091095E-023
   2.7999999999999903E-011     3.6041839913753989E-024
   3.1999999999999889E-011    -5.0236224389066369E-023
   3.6000000000000082E-011    -1.1156390252529982E-022
   4.0000000000000069E-011    -1.7906110087364215E-022
   4.4000000000000055E-011    -2.5092143209077671E-022
   4.8000000000000041E-011    -3.2484567587145911E-022
   5.2000000000000027E-011    -3.9805782437932937E-022
   5.6000000000000013E-011    -4.6734407090829156E-022
   6.0000000000000000E-011    -5.2911654984365569E-022
   6.3999999999999986E-011    -5.7950277455612803E-022
   6.7999999999999972E-011    -6.1446145480447201E-022
   7.1999999999999958E-011    -6.2992393634037079E-022
   7.5999999999999944E-011    -6.2195899079608425E-022
   7.9999999999999931E-011    -5.8695769943708384E-022
   8.3999999999999917E-011    -5.2183454327312433E-022
   8.7999999999999903E-011    -4.2423823717921670E-022
   9.1999999999999889E-011    -2.9276521458924279E-022
   9.6000000000000082E-011    -1.2716754598702247E-022
   1.0000000000000007E-010     7.1453960565862632E-023
   1.0400000000000005E-010     3.0048191507298714E-022
   1.0800000000000004E-010     5.5565024611133721E-022
   1.1200000000000003E-010     8.3095856209143973E-022
   1.1600000000000001E-010     1.1186436386688040E-021
   1.2000000000000000E-010     1.4092173850415684E-021
   1.2399999999999999E-010     1.6915803137031069E-021
   1.2799999999999997E-010     1.9532159662561740E-021
   1.3199999999999996E-010     2.1804723284967893E-021
   1.3599999999999994E-010     2.3589294774613943E-021
   1.3999999999999993E-010     2.4738532584888880E-021
   1.4399999999999992E-010     2.5107290348199873E-021
   1.4799999999999990E-010     2.4558638977013853E-021
   1.5199999999999989E-010     2.2970472395751213E-021
   1.5600000000000008E-010     2.0242476779784644E-021
   1.6000000000000007E-010     1.6303266401861140E-021
   1.6400000000000005E-010     1.1117422543295982E-021
   1.6800000000000004E-010     4.6921360814479294E-022
   1.7200000000000003E-010    -2.9168458874506035E-022
   1.7600000000000001E-010    -1.1600311440196903E-021
   1.8000000000000000E-010    -2.1192040137213956E-021
   1.8399999999999998E-010    -3.1466948126572351E-021
   1.8799999999999997E-010    -4.2141229255429006E-021
   1.9199999999999996E-010    -5.2874737808614164E-021
   1.9599999999999994E-010    -6.3275863542807922E-021
   1.9999999999999993E-010    -7.2908967426323965E-021
   2.0399999999999992E-010    -8.1304519448374748E-021
   2.0799999999999990E-010    -8.7971861757429243E-021
   2.1199999999999989E-010    -9.2414435569949881E-021
   2.1600000000000008E-010    -9.4147298173891779E-021
   2.2000000000000007E-010    -9.2716445350824100E-021
   2.2400000000000005E-010    -8.7719620138214587E-021
   2.2800000000000004E-010    -7.8827848605924351E-021
   2.3200000000000003E-010    -6.5807141230383889E-021
   2.3600000000000001E-010    -4.8539523800108526E-021
   2.4000000000000000E-010    -2.7042575922598932E-021
   2.4399999999999998E-010    -1.4865804817673881E-022
   2.4799999999999997E-010     2.7791598468582068E-021
   2.5199999999999996E-010     6.0278808045562873E-021
   2.5599999999999994E-010     9.5280915276065892E-021
   2.5999999999999993E-010     1.3192386126736428E-020
   2.6399999999999992E-010     1.6916114945347910E-020
   2.6799999999999990E-010     2.0578815767770164E-020
   2.7199999999999989E-010     2.4046373051463795E-020
   2.7600000000000008E-010     2.7173894479912776E-020
   2.8000000000000007E-010     2.9809304836203793E-020
   2.8400000000000005E-010     3.1797614384233991E-020
   2.8800000000000004E-010     3.2985791479506792E-020
   2.9200000000000003E-010     3.3228123087242151E-020
   2.9600000000000001E-010     3.2391985659618823E-020
   3.0000000000000000E-010     3.0363845426389636E-020
   3.0399999999999998E-010     2.7055302306349387E-020
   3.0799999999999997E-010     2.2409030421226165E-020
   3.1199999999999996E-010     1.6404372873926017E-020
   3.1599999999999994E-010     9.0623710712807618E-021
   3.1999999999999993E-010     4.5002689534268404E-022
   3.2399999999999992E-010    -9.3164431507181188E-021
   3.2799999999999990E-010    -2.0069563316121600E-020
   3.3199999999999989E-010    -3.1589966201089039E-020
   3.3600000000000008E-010    -4.3607330150790387E-020
   3.4000000000000007E-010    -5.5803045226550679E-020
   3.4400000000000005E-010    -6.7814657686055370E-020
   3.4800000000000004E-010    -7.9242235396657874E-020
   3.5200000000000003E-010    -8.9656491007488777E-020
   3.5600000000000001E-010    -9.8608782433814630E-020
   3.6000000000000000E-010    -1.0564273862205344E-019
   3.6399999999999998E-010    -1.1030733934321068E-019
   3.6799999999999997E-010    -1.1217127453132529E-019
   3.7199999999999996E-010    -1.1083813080252830E-019
   3.7599999999999994E-010    -1.0596220482190937E-019
   3.7999999999999993E-010    -9.7264336057428931E-020
   3.8399999999999991E-010    -8.4547481039888893E-020
   3.8799999999999990E-010    -6.7711421668199631E-020
   3.9199999999999989E-010    -4.6766087340886048E-020
   3.9599999999999987E-010    -2.1843061167655166E-020
   4.0000000000000007E-010     6.7953000412330596E-021
   4.0400000000000005E-010     3.8749602143647628E-020
   4.0800000000000004E-010     7.3480424829388797E-020
   4.1200000000000002E-010     1.1030899370443578E-019
   4.1600000000000001E-010     1.4842183156630524E-019
   4.2000000000000000E-010     1.8687960374360930E-019
   4.2399999999999998E-010     2.2463025281945417E-019
   4.2799999999999997E-010     2.6052653098301708E-019
   4.3199999999999996E-010     2.9334766182183753E-019
   4.3599999999999994E-010     3.2182508631838304E-019
   4.3999999999999993E-010     3.4467196993346252E-019
   4.4399999999999991E-010     3.6061577284284556E-019
   4.4799999999999990E-010     3.6843368945663150E-019
   4.5199999999999989E-010     3.6698984569742019E-019
   4.5599999999999987E-010     3.5527402139273710E-019
   4.6000000000000007E-010     3.3244047606503504E-019
   4.6400000000000005E-010     2.9784649037836031E-019
   4.6800000000000004E-010     2.5108922737439958E-019
   4.7200000000000002E-010     1.9204004754320379E-019
   4.7600000000000001E-010     1.2087552809615887E-019
   4.8000000000000000E-010     3.8103645171077604E-020
   4.8399999999999998E-010    -5.5415478797826908E-020
   4.8799999999999997E-010    -1.5845535145081447E-019
   4.9199999999999996E-010    -2.6941634442370103E-019
   4.9599999999999994E-010    -3.8632713122040789E-019
   4.9999999999999993E-010    -5.0685502373944428E-019
   5.0399999999999991E-010    -6.2832587630739698E-019
   5.0799999999999990E-010    -7.4775390295507340E-019
   5.1199999999999989E-010    -8.6188166643023974E-019
   5.1599999999999987E-010    -9.6723035526922765E-019
   5.2000000000000007E-010    -1.0601598577889210E-018
   5.2400000000000005E-010    -1.1369392792339759E-018
   5.2800000000000004E-010    -1.1938261443204727E-018
   5.3200000000000002E-010    -1.2271537681881170E-018
   5.3600000000000001E-010    -1.2334261753755300E-018
   5.4000000000000000E-010    -1.2094184988670972E-018
   5.4399999999999998E-010    -1.1522820320307625E-018
   5.4799999999999997E-010    -1.0596507281218946E-018
   5.5199999999999995E-010    -9.2974894055807172E-019
   5.5599999999999994E-010    -7.6149585447141685E-019
   5.5999999999999993E-010    -5.5460562726150462E-019
   5.6399999999999991E-010    -3.0968000697457321E-019
   5.6799999999999990E-010    -2.8290475215759991E-020
   5.7199999999999989E-010     2.8695298700013150E-019
   5.7599999999999987E-010     6.3234933450564319E-019
   5.8000000000000007E-010     1.0030729183917629E-018
   5.8400000000000005E-010     1.3931618860923030E-018
   5.8800000000000004E-010     1.7955311771668053E-018
   5.9200000000000002E-010     2.2020124864638852E-018
   5.9600000000000001E-010     2.6034219378350963E-018
   6.0000000000000000E-010     2.9896598627963192E-018
   6.0399999999999998E-010     3.3498403576912029E-018
   6.0799999999999997E-010     3.6724527907057657E-018
   6.1199999999999995E-010     3.9455572232881110E-018
   6.1599999999999994E-010     4.1570069217332038E-018
   6.1999999999999993E-010     4.2947035424018435E-018
   6.2399999999999991E-010     4.3468779595386257E-018
   6.2799999999999990E-010     4.3023930133761365E-018
   6.3199999999999989E-010     4.1510690057059919E-018
   6.3599999999999987E-010     3.8840207759784536E-018
   6.4000000000000006E-010     3.4940038763887822E-018
   6.4400000000000005E-010     2.9757650896618066E-018
   6.4800000000000004E-010     2.3263826070788363E-018
   6.5200000000000002E-010     1.5455964871323766E-018
   6.5600000000000001E-010     6.3611388517216030E-019
   6.6000000000000000E-010    -3.9611652942663740E-019
   6.6399999999999978E-010    -1.5416731694870376E-018
   6.6800000000000017E-010    -2.7874807910664145E-018
   6.7200000000000016E-010    -4.1166930338095131E-018
   6.7600000000000015E-010    -5.5086444444729213E-018
   6.8000000000000013E-010    -6.9388843913301840E-018
   6.8400000000000012E-010    -8.3792990733121552E-018
   6.8800000000000011E-010    -9.7983298956887119E-018
   6.9200000000000009E-010    -1.1161291107423974E-017
   6.9600000000000008E-010    -1.2430798280733608E-017
   7.0000000000000006E-010    -1.3567300601809002E-017
   7.0400000000000005E-010    -1.4529720281430775E-017
   7.0800000000000004E-010    -1.5276201153423129E-017
   7.1200000000000002E-010    -1.5764955707601112E-017
   7.1600000000000001E-010    -1.5955200631043407E-017
   7.2000000000000000E-010    -1.5808182512051908E-017
   7.2399999999999998E-010    -1.5288254829309252E-017
   7.2799999999999997E-010    -1.4364012843679252E-017
   7.3199999999999995E-010    -1.3009465713134879E-017
   7.3599999999999994E-010    -1.1205194545615839E-017
   7.3999999999999993E-010    -8.9395096247055309E-018
   7.4399999999999991E-010    -6.2095518006166665E-018
   7.4799999999999990E-010    -3.0223206756926692E-018
   7.5199999999999988E-010     6.0440272731780944E-019
   7.5599999999999987E-010     4.6412711259559420E-018
   7.5999999999999986E-010     9.0467511095811933E-018
   7.6399999999999984E-010     1.3766704068993486E-017
   7.6799999999999983E-010     1.8734191653892884E-017
   7.7199999999999982E-010     2.3869534037413993E-017
   7.7599999999999980E-010     2.9080642856322509E-017
   7.7999999999999979E-010     3.4263657312906274E-017
   7.8399999999999977E-010     3.9303893778318486E-017
   7.8800000000000017E-010     4.4077106415831230E-017
   7.9200000000000016E-010     4.8451098528668732E-017
   7.9600000000000015E-010     5.2287648236473379E-017
   8.0000000000000013E-010     5.5444771641461672E-017
   8.0400000000000012E-010     5.7779273853433328E-017
   8.0800000000000010E-010     5.9149601108523375E-017
   8.1200000000000009E-010     5.9418944350860442E-017
   8.1600000000000008E-010     5.8458587659686377E-017
   8.2000000000000006E-010     5.6151369173039169E-017
   8.2400000000000005E-010     5.2395347152227784E-017
   8.2800000000000004E-010     4.7107452811417195E-017
   8.3200000000000002E-010     4.0227182851882825E-017
   8.3600000000000001E-010     3.1720196043313922E-017
   8.3999999999999999E-010     2.1581764221329132E-017
   8.4399999999999998E-010     9.8399610687378932E-018
   8.4799999999999997E-010    -3.4414584687472699E-018
   8.5199999999999995E-010    -1.8160606419175138E-017
   8.5599999999999994E-010    -3.4175522872999974E-017
   8.5999999999999993E-010    -5.1302810307890195E-017
   8.6399999999999991E-010    -6.9316987560669971E-017
   8.6799999999999990E-010    -8.7950560964851905E-017
   8.7199999999999988E-010    -1.0689495575600676E-016
   8.7599999999999987E-010    -1.2580235241272335E-016
   8.7999999999999986E-010    -1.4428843620496463E-016
   8.8399999999999984E-010    -1.6193619560744057E-016
   8.8799999999999983E-010    -1.7830067362504664E-016
   8.9199999999999981E-010    -1.9291477129204150E-016
   8.9599999999999980E-010    -2.0529606364029442E-016
   8.9999999999999979E-010    -2.1495463475404739E-016
   9.0399999999999977E-010    -2.2140169368317549E-016
   9.0799999999999976E-010    -2.2415924914763127E-016
   9.1200000000000016E-010    -2.2277030040259143E-016
   9.1600000000000015E-010    -2.1680991484122013E-016
   9.2000000000000013E-010    -2.0589654382544871E-016
   9.2400000000000012E-010    -1.8970385467745765E-016
   9.2800000000000010E-010    -1.6797258914093814E-016
   9.3200000000000009E-010    -1.4052235566790460E-016
   9.3600000000000008E-010    -1.0726315700771127E-016
   9.4000000000000006E-010    -6.8206335460917471E-017
   9.4400000000000005E-010    -2.3474768707517961E-017
   9.4800000000000004E-010     2.6687986538565924E-017
   9.5200000000000002E-010     8.1909919031728260E-017
   9.5600000000000001E-010     1.4168431281797009E-016
   9.5999999999999999E-010     2.0536544093263046E-016
   9.6399999999999998E-010     2.7216624433158763E-016
   9.6799999999999997E-010     3.4115848078376928E-016
   9.7199999999999995E-010     4.1127541817122704E-016
   9.7599999999999994E-010     4.8131731373351398E-016
   9.7999999999999992E-010     5.4995980498781841E-016
   9.8399999999999991E-010     6.1576558290176819E-016