  -1.2000000000000000E-009     0.0000000000000000
  -1.1960000000000000E-009     0.0000000000000000
  -1.1920000000000000E-009     0.0000000000000000
  -1.1880000000000000E-009     0.0000000000000000
  -1.1840000000000000E-009     0.0000000000000000
  -1.1800000000000001E-009     0.0000000000000000
  -1.1760000000000001E-009     0.0000000000000000
  -1.1720000000000001E-009     0.0000000000000000
  -1.1679999999999999E-009     0.0000000000000000
  -1.1639999999999999E-009     0.0000000000000000
  -1.1599999999999999E-009     0.0000000000000000
  -1.1559999999999999E-009     0.0000000000000000
  -1.1520000000000000E-009     0.0000000000000000
  -1.1480000000000000E-009     0.0000000000000000
  -1.1440000000000000E-009     0.0000000000000000
  -1.1400000000000000E-009     0.0000000000000000
  -1.1360000000000000E-009     0.0000000000000000
  -1.1320000000000000E-009     0.0000000000000000
  -1.1280000000000000E-009     0.0000000000000000
  -1.1240000000000000E-009     0.0000000000000000
  -1.1200000000000001E-009     0.0000000000000000
  -1.1160000000000001E-009     0.0000000000000000
  -1.1120000000000001E-009     0.0000000000000000
  -1.1079999999999999E-009     0.0000000000000000
  -1.1039999999999999E-009     0.0000000000000000
  -1.0999999999999999E-009     0.0000000000000000
  -1.0959999999999999E-009     0.0000000000000000
  -1.0920000000000000E-009     0.0000000000000000
  -1.0880000000000000E-009     0.0000000000000000
  -1.0840000000000000E-009     0.0000000000000000
  -1.0800000000000000E-009     0.0000000000000000
  -1.0760000000000000E-009     0.0000000000000000
  -1.0720000000000000E-009     0.0000000000000000
  -1.0680000000000000E-009     0.0000000000000000
  -1.0640000000000000E-009     0.0000000000000000
  -1.0600000000000001E-009     0.0000000000000000
  -1.0560000000000001E-009     0.0000000000000000
  -1.0520000000000001E-009     0.0000000000000000
  -1.0480000000000001E-009     0.0000000000000000
  -1.0439999999999999E-009     0.0000000000000000
  -1.0399999999999999E-009     0.0000000000000000
  -1.0359999999999999E-009     0.0000000000000000
  -1.0320000000000000E-009     0.0000000000000000
  -1.0280000000000000E-009     0.0000000000000000
  -1.0240000000000000E-009     0.0000000000000000
  -1.0200000000000000E-009     0.0000000000000000
  -1.0160000000000000E-009     0.0000000000000000
  -1.0120000000000000E-009     0.0000000000000000
  -1.0080000000000000E-009     0.0000000000000000
  -1.0040000000000000E-009     0.0000000000000000
  -1.0000000000000001E-009     0.0000000000000000
  -9.9600000000000008E-010     0.0000000000000000
  -9.9199999999999988E-010     0.0000000000000000
  -9.8799999999999990E-010     0.0000000000000000
  -9.8399999999999991E-010     0.0000000000000000
  -9.7999999999999992E-010     0.0000000000000000
  -9.7599999999999994E-010     0.0000000000000000
  -9.7199999999999995E-010     0.0000000000000000
  -9.6799999999999997E-010     0.0000000000000000
  -9.6399999999999998E-010     0.0000000000000000
  -9.5999999999999999E-010     0.0000000000000000
  -9.5600000000000001E-010     0.0000000000000000
  -9.5200000000000002E-010     0.0000000000000000
  -9.4800000000000004E-010     0.0000000000000000
  -9.4400000000000005E-010     0.0000000000000000
  -9.4000000000000006E-010     0.0000000000000000
  -9.3600000000000008E-010     0.0000000000000000
  -9.3200000000000009E-010     0.0000000000000000
  -9.2800000000000000E-010     0.0000000000000000
  -9.2400000000000001E-010     0.0000000000000000
  -9.1999999999999992E-010     0.0000000000000000
  -9.1599999999999994E-010     0.0000000000000000
  -9.1199999999999995E-010     0.0000000000000000
  -9.0799999999999997E-010     0.0000000000000000
  -9.0399999999999998E-010     0.0000000000000000
  -8.9999999999999999E-010     0.0000000000000000
  -8.9600000000000001E-010     0.0000000000000000
  -8.9200000000000002E-010     0.0000000000000000
  -8.8800000000000004E-010     0.0000000000000000
  -8.8400000000000005E-010     0.0000000000000000
  -8.8000000000000006E-010     0.0000000000000000
  -8.7599999999999997E-010     0.0000000000000000
  -8.7199999999999999E-010     0.0000000000000000
  -8.6800000000000000E-010     0.0000000000000000
  -8.6400000000000001E-010     0.0000000000000000
  -8.5999999999999993E-010     0.0000000000000000
  -8.5599999999999994E-010     0.0000000000000000
  -8.5199999999999995E-010     0.0000000000000000
  -8.4799999999999997E-010     0.0000000000000000
  -8.4399999999999998E-010     0.0000000000000000
  -8.3999999999999999E-010    -1.4012984643248171E-045
  -8.3600000000000001E-010    -2.8025969286496341E-045
  -8.3200000000000002E-010    -5.6051938572992683E-045
  -8.2800000000000004E-010    -5.6051938572992683E-045
  -8.2400000000000005E-010    -4.2038953929744512E-045
  -8.2000000000000006E-010     2.8025969286496341E-045
  -8.1599999999999997E-010     1.4012984643248171E-044
  -8.1199999999999999E-010     3.0828566215145976E-044
  -8.0800000000000000E-010     5.0446744715693415E-044
  -8.0400000000000002E-010     6.7262326287591219E-044
  -7.9999999999999993E-010     7.1466221680565671E-044
  -7.9599999999999994E-010     5.0446744715693415E-044
  -7.9199999999999995E-010    -7.0064923216240854E-045
  -7.8799999999999997E-010    -1.0930128021733573E-043
  -7.8399999999999998E-010    -2.5783891743576634E-043
  -7.7999999999999999E-010    -4.3300122547636847E-043
  -7.7600000000000001E-010    -5.9415054887372244E-043
  -7.7200000000000002E-010    -6.7122196441158738E-043
  -7.6800000000000004E-010    -5.7172977344452536E-043
  -7.6400000000000005E-010    -1.9197788961249994E-043
  -7.6000000000000006E-010     5.5631549033695238E-043
  -7.5600000000000008E-010     1.6997750372260031E-042
  -7.5199999999999999E-010     3.1487176493378640E-042
  -7.4800000000000000E-010     4.6411005138437941E-042
  -7.4400000000000002E-010     5.7074886451949799E-042
  -7.3999999999999993E-010     5.6766600789798340E-042
  -7.3599999999999994E-010     3.7470720936045608E-042
  -7.3199999999999995E-010    -8.4218037705921506E-043
  -7.2799999999999997E-010    -8.5395128415954352E-042
  -7.2399999999999998E-010    -1.9109507157997530E-041
  -7.2000000000000000E-010    -3.1237745366728822E-041
  -7.1600000000000001E-010    -4.2197300656213216E-041
  -7.1200000000000002E-010    -4.7732429590296244E-041
  -7.0800000000000004E-010    -4.2337430502645698E-041
  -7.0400000000000005E-010    -2.0107231664596800E-041
  -6.9999999999999996E-010     2.3728186896412127E-041
  -6.9599999999999997E-010     9.0603754807849697E-041
  -6.9199999999999999E-010     1.7599467932841108E-040
  -6.8800000000000000E-010     2.6686748344141114E-040
  -6.8400000000000002E-010     3.3999984899605902E-040
  -6.8000000000000003E-010     3.6223144913257224E-040
  -6.7600000000000004E-010     2.9374018409176815E-040
  -6.7199999999999995E-010     9.5298104663337835E-041
  -6.6799999999999997E-010    -2.6014405340958067E-040
  -6.6399999999999998E-010    -7.7217010448308287E-040
  -6.6000000000000000E-010    -1.3960001548312049E-039
  -6.5600000000000001E-010    -2.0277026999519038E-039
  -6.5200000000000002E-010    -2.4968686361955672E-039
  -6.4800000000000004E-010    -2.5731721401749821E-039
  -6.4400000000000005E-010    -1.9931719031940117E-039
  -6.3999999999999996E-010    -5.1186910564549783E-040
  -6.3599999999999998E-010     2.0205196440237748E-039
  -6.3199999999999999E-010     5.5625355294482922E-039
  -6.2800000000000000E-010     9.7806527005371760E-039
  -6.2400000000000002E-010     1.3967365371742076E-038
  -6.2000000000000003E-010     1.7010147659773913E-038
  -6.1600000000000004E-010     1.7447623231246870E-038
  -6.1199999999999995E-010     1.3646767901283059E-038
  -6.0799999999999997E-010     4.1225219911511091E-039
  -6.0399999999999998E-010    -1.2003336272710628E-038
  -6.0000000000000000E-010    -3.4443708860931284E-038
  -5.9600000000000001E-010    -6.1173566751028886E-038
  -5.9200000000000002E-010    -8.7977228228645548E-038
  -5.8800000000000004E-010    -1.0829011445586666E-037
  -5.8400000000000005E-010    -1.1352868379334770E-037
  -5.7999999999999996E-010    -9.4083974832295955E-038
  -5.7599999999999998E-010    -4.1085325483220616E-038
  -5.7199999999999999E-010     5.1088718778557614E-038
  -5.6800000000000000E-010     1.8176339911130319E-037
  -5.6400000000000002E-010     3.4082699624319295E-037
  -5.6000000000000003E-010     5.0618178448780141E-037
  -5.5600000000000004E-010     6.4267309780053130E-037
  -5.5199999999999995E-010     7.0348200745478587E-037
  -5.4799999999999997E-010     6.3488344779316536E-037
  -5.4399999999999998E-010     3.8495166522801395E-037
  -5.4000000000000000E-010    -8.3814940189673829E-038
  -5.3600000000000001E-010    -7.7886312073304364E-037
  -5.3200000000000002E-010    -1.6609622535143166E-036
  -5.2800000000000004E-010    -2.6297745424159247E-036
  -5.2400000000000005E-010    -3.5158157856162609E-036
  -5.1999999999999996E-010    -4.0835873056834141E-036
  -5.1599999999999998E-010    -4.0504612377684874E-036
  -5.1199999999999999E-010    -3.1246507405766552E-036
  -5.0800000000000000E-010    -1.0630785558485312E-036
  -5.0400000000000002E-010     2.2538672834713963E-036
  -5.0000000000000003E-010     6.7385945474997640E-036
  -4.9600000000000004E-010     1.2016902108619104E-035
  -4.9199999999999996E-010     1.7371283898868320E-035
  -4.8799999999999997E-010     2.1728823664239159E-035
  -4.8399999999999998E-010     2.3716150975746226E-035
  -4.8000000000000000E-010     2.1800260200813056E-035
  -4.7600000000000001E-010     1.4524996232921521E-035
  -4.7200000000000002E-010     8.3821163075894203E-037
  -4.6800000000000004E-010    -1.9515456193305843E-035
  -4.6400000000000005E-010    -4.5584855884859907E-035
  -4.5999999999999996E-010    -7.4858332900462676E-035
  -4.5599999999999998E-010    -1.0305820704823045E-034
  -4.5199999999999999E-010    -1.2418714403241008E-034
  -4.4800000000000000E-010    -1.3092475852297428E-034
  -4.4400000000000002E-010    -1.1544808969745266E-034
  -4.4000000000000003E-010    -7.0699648552725692E-035
  -4.3600000000000005E-010     7.9466072735397452E-036
  -4.3199999999999996E-010     1.2076549119880756E-034
  -4.2799999999999997E-010     2.6175653360608860E-034
  -4.2399999999999998E-010     4.1706782931239579E-034
  -4.2000000000000000E-010     5.6419890115730396E-034
  -4.1600000000000001E-010     6.7244641066918594E-034
  -4.1200000000000002E-010     7.0501867036425034E-034
  -4.0800000000000004E-010     6.2311995856154610E-034
  -4.0400000000000005E-010     3.9207213580360990E-034
  -3.9999999999999996E-010    -1.0787617985781528E-035
  -3.9599999999999998E-010    -5.8710809219338029E-034
  -3.9199999999999999E-010    -1.3085559950670510E-033
  -3.8800000000000000E-010    -2.1094451837017343E-033
  -3.8400000000000002E-010    -2.8828642632191508E-033
  -3.8000000000000003E-010    -3.4823454436453934E-033
  -3.7600000000000005E-010    -3.7309610294763687E-033
  -3.7200000000000006E-010    -3.4392158212297544E-033
  -3.6799999999999997E-010    -2.4321475866902305E-033
  -3.6399999999999998E-010    -5.8467279850626268E-034
  -3.6000000000000000E-010     2.1374897238474694E-033
  -3.5600000000000001E-010     5.6359488073197362E-033
  -3.5200000000000003E-010     9.6433155784484576E-033
  -3.4800000000000004E-010     1.3700467474070380E-032
  -3.4400000000000005E-010     1.7156262173750544E-032
  -3.3999999999999996E-010     1.9198263369073850E-032
  -3.3599999999999998E-010     1.8921266941510209E-032
  -3.3199999999999999E-010     1.5436940055199711E-032
  -3.2800000000000000E-010     8.0226431498705382E-033
  -3.2400000000000002E-010    -3.6993556598026037E-033
  -3.2000000000000003E-010    -1.9569051021521662E-032
  -3.1600000000000005E-010    -3.8707192262654768E-032
  -3.1200000000000006E-010    -5.9377428759611487E-032
  -3.0799999999999997E-010    -7.8929490949027890E-032
  -3.0399999999999998E-010    -9.3861895604543228E-032
  -3.0000000000000000E-010    -1.0003857769071297E-031
  -2.9600000000000001E-010    -9.3082866110894528E-032
  -2.9200000000000003E-010    -6.8954075441269089E-032
  -2.8800000000000004E-010    -2.4686662656110434E-032
  -2.8400000000000005E-010     4.0759311525602776E-032
  -2.7999999999999996E-010     1.2562245991997553E-031
  -2.7599999999999998E-010     2.2455929377543681E-031
  -2.7199999999999999E-010     3.2810718054615113E-031
  -2.6800000000000011E-010     4.2255674104150094E-031
  -2.6399999999999992E-010     4.9039917498508441E-031
  -2.5999999999999993E-010     5.1148787277725448E-031
  -2.5599999999999994E-010     4.6500191423895839E-031
  -2.5199999999999996E-010     3.3221449886724630E-031
  -2.4799999999999997E-010     9.9956093252115771E-032
  -2.4399999999999998E-010    -2.3547310054598529E-031
  -2.4000000000000000E-010    -6.6433547540394117E-031
  -2.3600000000000001E-010    -1.1599712426230687E-030
  -2.3200000000000003E-010    -1.6764505465325588E-030
  -2.2800000000000004E-010    -2.1480880323423610E-030
  -2.2400000000000005E-010    -2.4915328750989452E-030
  -2.2000000000000007E-010    -2.6110420943628648E-030
  -2.1600000000000008E-010    -2.4073161339868255E-030
  -2.1200000000000010E-010    -1.7899237433643281E-030
  -2.0800000000000011E-010    -6.9286561667410472E-031
  -2.0399999999999992E-010     9.0774466745074595E-031
  -1.9999999999999993E-010     2.9755341164511481E-030
  -1.9599999999999994E-010     5.3975254980718312E-030
  -1.9199999999999996E-010     7.9723817385762711E-030
  -1.8799999999999997E-010     1.0406365231445399E-029
  -1.8399999999999998E-010     1.2320158807917457E-029
  -1.8000000000000000E-010     1.3269323288353325E-029
  -1.7600000000000001E-010     1.2780343217168328E-029
  -1.7200000000000003E-010     1.0402807527262974E-029
  -1.6800000000000004E-010     5.7763950385847959E-030
  -1.6400000000000005E-010    -1.2909818747736259E-030
  -1.6000000000000007E-010    -1.0740187571485700E-029
  -1.5600000000000008E-010    -2.2181989917078901E-029
  -1.5200000000000010E-010    -3.4833705088086466E-029
  -1.4800000000000011E-010    -4.7484512965534293E-029
  -1.4399999999999992E-010    -5.8503335956356985E-029
  -1.3999999999999993E-010    -6.5902349542579563E-029
  -1.3599999999999994E-010    -6.7466535676631190E-029
  -1.3199999999999996E-010    -6.0954936442002565E-029
  -1.2799999999999997E-010    -4.4372291425574048E-029
  -1.2399999999999999E-010    -1.6300571511214239E-029
  -1.2000000000000000E-010     2.3730532384230689E-029
  -1.1600000000000001E-010     7.4866704820820400E-029
  -1.1200000000000003E-010     1.3458940119174863E-028
  -1.0800000000000004E-010     1.9846671965724008E-028
  -1.0400000000000005E-010     2.6005391482586067E-028
  -1.0000000000000007E-010     3.1100400631863612E-028
  -9.6000000000000082E-011     3.4144279945894167E-028
  -9.2000000000000096E-011     3.4064922002535691E-028
  -8.8000000000000110E-011     2.9805795338071373E-028
  -8.3999999999999917E-011     2.0456999165100323E-028
  -7.9999999999999931E-011     5.4115658282929680E-029
  -7.5999999999999944E-011    -1.5463174763982238E-028
  -7.1999999999999958E-011    -4.1654296911873934E-028
  -6.7999999999999972E-011    -7.1851881771119572E-028
  -6.3999999999999986E-011    -1.0384126036895074E-027
  -6.0000000000000000E-011    -1.3446504871006441E-027
  -5.6000000000000013E-011    -1.5968127836087565E-027
  -5.2000000000000027E-011    -1.7474143422840163E-027
  -4.8000000000000041E-011    -1.7450550781021420E-027
  -4.4000000000000055E-011    -1.5390198630235732E-027
  -4.0000000000000069E-011    -1.0852611384762185E-027
  -3.6000000000000082E-011    -3.5352719133974522E-028
  -3.2000000000000096E-011     6.6479769821443592E-028
  -2.8000000000000110E-011     1.9487911180131012E-027
  -2.3999999999999917E-011     3.4408799201518463E-027
  -1.9999999999999931E-011     5.0415399414175108E-027
  -1.5999999999999945E-011     6.6069550595148999E-027
  -1.1999999999999959E-011     7.9507888560226266E-027
  -7.9999999999999724E-012     8.8511534013038818E-027
  -3.9999999999999862E-012     9.0636027334692378E-027
   0.0000000000000000          8.3406178768100025E-027
   3.9999999999999862E-012     6.4574559031398074E-027
   7.9999999999999724E-012     3.2435660862334407E-027
   1.1999999999999959E-011    -1.3820744837044963E-027
   1.5999999999999945E-011    -7.3742494012186635E-027
   1.9999999999999931E-011    -1.4526859702949333E-026
   2.3999999999999917E-011    -2.2444608845590007E-026
   2.7999999999999903E-011    -3.0525857114557514E-026
   3.1999999999999889E-011    -3.7961811000078412E-026
   3.6000000000000082E-011    -4.3757005076961558E-026
   4.0000000000000069E-011    -4.6775377952587632E-026
   4.4000000000000055E-011    -4.5814816540964610E-026
   4.8000000000000041E-011    -3.9711103894430183E-026
   5.2000000000000027E-011    -2.7469437107694081E-026
   5.6000000000000013E-011    -8.4183491797374491E-027
   6.0000000000000000E-011     1.7622768977392482E-026
   6.3999999999999986E-011     5.0175383861529748E-026
   6.7999999999999972E-011     8.7949313462185385E-026
   7.1999999999999958E-011     1.2872581714994730E-025
   7.5999999999999944E-011     1.6929840029370958E-025
   7.9999999999999931E-011     2.0549391474914322E-025
   8.3999999999999917E-011     2.3229547632997874E-025
   8.7999999999999903E-011     2.4408480534328045E-025
   9.1999999999999889E-011     2.3501537012356763E-025
   9.6000000000000082E-011     1.9951787430973815E-025
   1.0000000000000007E-010     1.3292782034707510E-025
   1.0400000000000005E-010     3.2210263117966947E-026
   1.0800000000000004E-010    -1.0325971696296527E-025
   1.1200000000000003E-010    -2.7091889511050469E-025
   1.1600000000000001E-010    -4.6431475273551696E-025
   1.2000000000000000E-010    -6.7256919994081960E-025
   1.2399999999999999E-010    -8.8010499486146590E-025
   1.2799999999999997E-010    -1.0667357785785291E-024
   1.3199999999999996E-010    -1.2082133473720994E-024
   1.3599999999999994E-010    -1.2773132239344813E-024
   1.3999999999999993E-010    -1.2455096062872041E-024
   1.4399999999999992E-010    -1.0852522175687161E-024
   1.4799999999999990E-010    -7.7280748719215106E-025
   1.5199999999999989E-010    -2.9156264544303993E-025
   1.5600000000000008E-010     3.6437500003300508E-025
   1.6000000000000007E-010     1.1865277583028001E-024
   1.6400000000000005E-010     2.1486589045195994E-024
   1.6800000000000004E-010     3.2040220698580097E-024
   1.7200000000000003E-010     4.2836693320875174E-024
   1.7600000000000001E-010     5.2962665728168600E-024
   1.8000000000000000E-010     6.1298424807285144E-024
   1.8399999999999998E-010     6.6558592710648638E-024
   1.8799999999999997E-010     6.7358805324295780E-024
   1.9199999999999996E-010     6.2309756320692059E-024
   1.9599999999999994E-010     5.0137932320275831E-024
   1.9999999999999993E-010     2.9829931049763975E-024
   2.0399999999999992E-010     7.9440012626010238E-026
   2.0799999999999990E-010    -3.6967410413849802E-024
   2.1199999999999989E-010    -8.2694726749726330E-024
   2.1600000000000008E-010    -1.3471899904378475E-023
   2.2000000000000007E-010    -1.9035189977155858E-023
   2.2400000000000005E-010    -2.4582866914897107E-023
   2.2800000000000004E-010    -2.9632647981420873E-023
   2.3200000000000003E-010    -3.3607632885851788E-023
   2.3600000000000001E-010    -3.5858423442402862E-023
   2.4000000000000000E-010    -3.5697271781240693E-023
   2.4399999999999998E-010    -3.2444649963164280E-023
   2.4799999999999997E-010    -2.5487745593448973E-023
   2.5199999999999996E-010    -1.4349285202661578E-023
   2.5599999999999994E-010     1.2361203865780373E-024
   2.5999999999999993E-010     2.1242290261332172E-023
   2.6399999999999992E-010     4.5273923263766183E-023
   2.6799999999999990E-010     7.2497932776944878E-023
   2.7199999999999989E-010     1.0159136277521098E-022
   2.7600000000000008E-010     1.3071435296931752E-022
   2.8000000000000007E-010     1.5751675419397904E-022
   2.8400000000000005E-010     1.7918653606845953E-022
   2.8800000000000004E-010     1.9254703776896812E-022
   2.9200000000000003E-010     1.9420811377809942E-022
   2.9600000000000001E-010     1.8077339604362763E-022
   3.0000000000000000E-010     1.4910214531194203E-022
   3.0399999999999998E-010     9.6619677360582284E-023
   3.0799999999999997E-010     2.1665197014899346E-023
   3.1199999999999996E-010    -7.6139478798513354E-023
   3.1599999999999994E-010    -1.9552286091717697E-022
   3.1999999999999993E-010    -3.3322600401399883E-022
   3.2399999999999992E-010    -4.8372622542015872E-022
   3.2799999999999990E-010    -6.3905871843088940E-022
   3.3199999999999989E-010    -7.8877230036413738E-022
   3.3600000000000008E-010    -9.2005677888687624E-022
   3.4000000000000007E-010    -1.0180750561453174E-021
   3.4400000000000005E-010    -1.0665260094197781E-021
   3.4800000000000004E-010    -1.0484545566110345E-021
   3.5200000000000003E-010    -9.4731163286144907E-022
   3.5600000000000001E-010    -7.4825044679442999E-022
   3.6000000000000000E-010    -4.3962327150688450E-022
   3.6399999999999998E-010    -1.4623935015423326E-023
   3.6799999999999997E-010     5.2700482599836422E-022
   3.7199999999999996E-010     1.1773013665842190E-021
   3.7599999999999994E-010     1.9185773742087325E-021
   3.7999999999999993E-010     2.7222142374079345E-021
   3.8399999999999991E-010     3.5479202228045017E-021
   3.8799999999999990E-010     4.3436017330080247E-021
   3.9199999999999989E-010     5.0460113590040914E-021
   3.9599999999999987E-010     5.5823042964094002E-021
   4.0000000000000007E-010     5.8726123796728351E-021
   4.0400000000000005E-010     5.8337041947272988E-021
   4.0800000000000004E-010     5.3837377324408419E-021
   4.1200000000000002E-010     4.4480498451109669E-021
   4.1600000000000001E-010     2.9658360934180988E-021
   4.2000000000000000E-010     8.9749480163947802E-022
   4.2399999999999998E-010    -1.7676904216323970E-021
   4.2799999999999997E-010    -5.0039475284892793E-021
   4.3199999999999996E-010    -8.7419969114555851E-021
   4.3599999999999994E-010    -1.2863190861160198E-020
   4.3999999999999993E-010    -1.7195451576385080E-020
   4.4399999999999991E-010    -2.1511657394466904E-020
   4.4799999999999990E-010    -2.5531112167795329E-020
   4.5199999999999989E-010    -2.8924715950435025E-020
   4.5599999999999987E-010    -3.1324302283966002E-020
   4.6000000000000007E-010    -3.2336503166266682E-020
   4.6400000000000005E-010    -3.1561250755371231E-020
   4.6800000000000004E-010    -2.8614836644631615E-020
   4.7200000000000002E-010    -2.3157066651264060E-020
   4.7600000000000001E-010    -1.4921811569050970E-020
   4.8000000000000000E-010    -3.7498076261267763E-021
   4.8399999999999998E-010     1.0377767575411938E-020
   4.8799999999999997E-010     2.7306744209932767E-020
   4.9199999999999996E-010     4.6680574313889111E-020
   4.9599999999999994E-010     6.7916510761324497E-020
   4.9999999999999993E-010     9.0189912642660375E-020
   5.0399999999999991E-010     1.1242921271077405E-019
   5.0799999999999990E-010     1.3332414395068445E-019
   5.1199999999999989E-010     1.5134935300110111E-019
   5.1599999999999987E-010     1.6480537144413971E-019
   5.2000000000000007E-010     1.7187799832601538E-019
   5.2400000000000005E-010     1.7071650749902021E-019
   5.2800000000000004E-010     1.5953018218394763E-019
   5.3200000000000002E-010     1.3670140606946482E-019
   5.3600000000000001E-010     1.0091229303166728E-019
   5.4000000000000000E-010     5.1280583861433318E-020
   5.4399999999999998E-010    -1.2500730656497118E-020
   5.4799999999999997E-010    -9.0027035610169856E-020
   5.5199999999999995E-010    -1.8005708267475729E-019
   5.5599999999999994E-010    -2.8040807549967052E-019
   5.5999999999999993E-010    -3.8788065395896490E-019
   5.6399999999999991E-010    -4.9822303215593544E-019
   5.6799999999999990E-010    -6.0614461459148126E-019
   5.7199999999999989E-010    -7.0538648746193160E-019
   5.7599999999999987E-010    -7.8885697288192791E-019
   5.8000000000000007E-010    -8.4883676967633707E-019
   5.8400000000000005E-010    -8.7725626568060973E-019
   5.8800000000000004E-010    -8.6604378077866515E-019
   5.9200000000000002E-010    -8.0754034628129829E-019
   5.9600000000000001E-010    -6.9497197335715927E-019
   6.0000000000000000E-010    -5.2296550354225675E-019
   6.0399999999999998E-010    -2.8809043789057434E-019
   6.0799999999999997E-010     1.0596426792667935E-020
   6.1199999999999995E-010     3.7102974411034090E-019
   6.1599999999999994E-010     7.8766821094411264E-019
   6.1999999999999993E-010     1.2511134682210217E-018
   6.2399999999999991E-010     1.7478497983222580E-018
   6.2799999999999990E-010     2.2601378477225271E-018
   6.3199999999999989E-010     2.7660938295337028E-018
   6.3599999999999987E-010     3.2399851888750261E-018
   6.4000000000000006E-010     3.6527613426336346E-018
   6.4400000000000005E-010     3.9728384670707224E-018
   6.4800000000000004E-010     4.1671419521885097E-018
   6.5200000000000002E-010     4.2024009393888888E-018
   6.5600000000000001E-010     4.0466763308599621E-018
   6.6000000000000000E-010     3.6710887698756657E-018
   6.6399999999999978E-010     3.0517004766893277E-018
   6.6800000000000017E-010     2.1714874539091471E-018
   6.7200000000000016E-010     1.0223280286907723E-018
   6.7600000000000015E-010    -3.9308289622888746E-019
   6.8000000000000013E-010    -2.0594927824386019E-018
   6.8400000000000012E-010    -3.9476288971322500E-018
   6.8800000000000011E-010    -6.0131253564567618E-018
   6.9200000000000009E-010    -8.1959528361785516E-018
   6.9600000000000008E-010    -1.0420447471306169E-017
   7.0000000000000006E-010    -1.2596040015800263E-017
   7.0400000000000005E-010    -1.4618753039482307E-017
   7.0800000000000004E-010    -1.6373530682229850E-017
   7.1200000000000002E-010    -1.7737410891625659E-017
   7.1600000000000001E-010    -1.8583535594567376E-017
   7.2000000000000000E-010    -1.8785964888432578E-017
   7.2399999999999998E-010    -1.8225191027042054E-017
   7.2799999999999997E-010    -1.6794226469968195E-017
   7.3199999999999995E-010    -1.4405092287259860E-017
   7.3599999999999994E-010    -1.0995494334166295E-017
   7.3999999999999993E-010    -6.5354291155089762E-018
   7.4399999999999991E-010    -1.0334372711125126E-018
   7.4799999999999990E-010     5.4578017881223495E-018
   7.5199999999999988E-010     1.2836867033700177E-017
   7.5599999999999987E-010     2.0950312739679627E-017
   7.5999999999999986E-010     2.9591009985545277E-017
   7.6399999999999984E-010     3.8498431619928651E-017
   7.6799999999999983E-010     4.7361106091895356E-017
   7.7199999999999982E-010     5.5821449840083619E-017
   7.7599999999999980E-010     6.3483107693460081E-017
   7.7999999999999979E-010     6.9920869112503084E-017
   7.8399999999999977E-010     7.4693039502444011E-017
   7.8800000000000017E-010     7.7356197115395237E-017
   7.9200000000000016E-010     7.7482041065066604E-017
   7.9600000000000015E-010     7.4675867232927410E-017
   8.0000000000000013E-010     6.8596321341234172E-017
   8.0400000000000012E-010     5.8975688039095326E-017
   8.0800000000000010E-010     4.5640150210033881E-017
   8.1200000000000009E-010     2.8529092058761951E-017
   8.1600000000000008E-010     7.7127660347036636E-018
   8.2000000000000006E-010    -1.6592654135217597E-017
   8.2400000000000005E-010    -4.4013459830778950E-017
   8.2800000000000004E-010    -7.4011098570565494E-017
   8.3200000000000002E-010    -1.0587991250017559E-016
   8.3600000000000001E-010    -1.3875064067493442E-016
   8.3999999999999999E-010    -1.7160021949579149E-016
   8.4399999999999998E-010    -2.0326825352967782E-016
   8.4799999999999997E-010    -2.3248026259344110E-016
   8.5199999999999995E-010    -2.5787788377237126E-016
   8.5599999999999994E-010    -2.7805534677649156E-016
   8.5999999999999993E-010    -2.9160207705082760E-016
   8.6399999999999991E-010    -2.9715027520424127E-016
   8.6799999999999990E-010    -2.9342666542855216E-016
   8.7199999999999988E-010    -2.7930662619782298E-016
   8.7599999999999987E-010    -2.5386982974508231E-016
   8.7999999999999986E-010    -2.1645487568742257E-016
   8.8399999999999984E-010    -1.6671159531049290E-016
   8.8799999999999983E-010    -1.0464867731944756E-016
   8.9199999999999981E-010    -3.0674877977063310E-017
   8.9599999999999980E-010     5.4368493859244425E-017
   8.9999999999999979E-010     1.4918547778017656E-016
   9.0399999999999977E-010     2.5201554227464464E-016
   9.0799999999999976E-010     3.6063740630420081E-016
   9.1200000000000016E-010     4.7238778652444074E-016
   9.1600000000000015E-010     5.8419539440817954E-016
   9.2000000000000013E-010     6.9263170528272781E-016
   9.2400000000000012E-010     7.9397676220198149E-016
   9.2800000000000010E-010     8.8430091462583186E-016
   9.3200000000000009E-010     9.5956000374761326E-016
   9.3600000000000008E-010     1.0157038885904700E-015
   9.4000000000000006E-010     1.0487941835870250E-015
   9.4400000000000005E-010     1.0551310488236712E-015
   9.4800000000000004E-010     1.0313832095979760E-015
   9.5200000000000002E-010     9.7472041119580754E-016
   9.5600000000000001E-010     8.8294248553667277E-016
   9.5999999999999999E-010     7.5460211801151012E-016
   9.6399999999999998E-010     5.8911813813938472E-016
   9.6799999999999997E-010     3.8687388126848834E-016
   9.7199999999999995E-010     1.4929778905502656E-016
   9.7599999999999994E-010    -1.2107712617690603E-016
   9.7999999999999992E-010    -4.2057843397048022E-016
   9.8399999999999991E-010    -7.4438653009070883E-016
   9.8799999999999990E-010    -1.0865561829250425E-015
   9.9199999999999988E-010    -1.4400680304395850E-015
   9.9599999999999987E-010    -1.7969124232059810E-015
   9.9999999999999986E-010    -2.1482034562119411E-015
   1.0039999999999998E-009    -2.4843234938578661E-015
   1.0079999999999998E-009    -2.7950960705572063E-015