  -1.2000000000000000E-009     0.0000000000000000
  -1.1960000000000000E-009     0.0000000000000000
  -1.1920000000000000E-009     0.0000000000000000
  -1.1880000000000000E-009     0.0000000000000000
  -1.1840000000000000E-009     0.0000000000000000
  -1.1800000000000001E-009     0.0000000000000000
  -1.1760000000000001E-009     0.0000000000000000
  -1.1720000000000001E-009     0.0000000000000000
  -1.1679999999999999E-009     0.0000000000000000
  -1.1639999999999999E-009     0.0000000000000000
  -1.1599999999999999E-009     0.0000000000000000
  -1.1559999999999999E-009     0.0000000000000000
  -1.1520000000000000E-009     0.0000000000000000
  -1.1480000000000000E-009     0.0000000000000000
  -1.1440000000000000E-009     0.0000000000000000
  -1.1400000000000000E-009     0.0000000000000000
  -1.1360000000000000E-009     0.0000000000000000
  -1.1320000000000000E-009     0.0000000000000000
  -1.1280000000000000E-009     0.0000000000000000
  -1.1240000000000000E-009     0.0000000000000000
  -1.1200000000000001E-009     0.0000000000000000
  -1.1160000000000001E-009     0.0000000000000000
  -1.1120000000000001E-009     0.0000000000000000
  -1.1079999999999999E-009     0.0000000000000000
  -1.1039999999999999E-009    -1.4012984643248171E-045
  -1.0999999999999999E-009    -5.6051938572992683E-045
  -1.0959999999999999E-009    -1.4012984643248171E-044
  -1.0920000000000000E-009    -3.5032461608120427E-044
  -1.0880000000000000E-009    -8.2676609395164207E-044
  -1.0840000000000000E-009    -1.8637269575520067E-043
  -1.0800000000000000E-009    -4.0637655465419695E-043
  -1.0760000000000000E-009    -8.5058816784516396E-043
  -1.0720000000000000E-009    -1.7095841264762768E-042
  -1.0680000000000000E-009    -3.3084656742708931E-042
  -1.0640000000000000E-009    -6.1741210338151440E-042
  -1.0600000000000001E-009    -1.1129112403667697E-041
  -1.0560000000000001E-009    -1.9393970746255468E-041
  -1.0520000000000001E-009    -3.2688089277305008E-041
  -1.0480000000000001E-009    -5.3308196179844691E-041
  -1.0439999999999999E-009    -8.4105933828775521E-041
  -1.0399999999999999E-009    -1.2829447960279430E-040
  -1.0359999999999999E-009    -1.8896790051113023E-040
  -1.0320000000000000E-009    -2.6816928971476889E-040
  -1.0280000000000000E-009    -3.6535214081262361E-040
  -1.0240000000000000E-009    -4.7503597551072001E-040
  -1.0200000000000000E-009    -5.8355392988649817E-040
  -1.0160000000000000E-009    -6.6480541874344404E-040
  -1.0120000000000000E-009    -6.7516241569326876E-040
  -1.0080000000000000E-009    -5.4788948267096725E-040
  -1.0040000000000000E-009    -1.8778800720416874E-040
  -1.0000000000000001E-009     5.3280030080711762E-040
  -9.9600000000000008E-010     1.7749785219109231E-039
  -9.9199999999999988E-010     3.7290990395011307E-039
  -9.8799999999999990E-010     6.6026955574427104E-039
  -9.8399999999999991E-010     1.0597406516961217E-038
  -9.7999999999999992E-010     1.5871430106888137E-038
  -9.7599999999999994E-010     2.2483957174356550E-038
  -9.7199999999999995E-010     3.0318213314438877E-038
  -9.6799999999999997E-010     3.8980283719724161E-038
  -9.6399999999999998E-010     4.7672050442065416E-038
  -9.5999999999999999E-010     5.5038413024909686E-038
  -9.5600000000000001E-010     5.8992171036808301E-038
  -9.5200000000000002E-010     5.6524921646253167E-038
  -9.4800000000000004E-010     4.3520053539015699E-038
  -9.4400000000000005E-010     1.4595594097969714E-038
  -9.4000000000000006E-010    -3.6978697019251879E-038
  -9.3600000000000008E-010    -1.1922251818630629E-037
  -9.3200000000000009E-010    -2.4114810747913202E-037
  -9.2800000000000000E-010    -4.1209362818088791E-037
  -9.2400000000000001E-010    -6.4051864064798890E-037
  -9.1999999999999992E-010    -9.3206203716320432E-037
  -9.1599999999999994E-010    -1.2866448069139217E-036
  -9.1199999999999995E-010    -1.6944160234829164E-036
  -9.0799999999999997E-010    -2.1304075526198278E-036
  -9.0399999999999998E-010    -2.5479067849151442E-036
  -8.9999999999999999E-010    -2.8708039767307100E-036
  -8.9600000000000001E-010    -2.9855425640389312E-036
  -8.9200000000000002E-010    -2.7338076578722129E-036
  -8.8800000000000004E-010    -1.9077278190149077E-036
  -8.8400000000000005E-010    -2.5009556632966169E-037
  -8.8000000000000006E-010     2.5371397904554335E-036
  -8.7599999999999997E-010     6.7722005993750789E-036
  -8.7199999999999999E-010     1.2756373720585083E-035
  -8.6800000000000000E-010     2.0716350233463953E-035
  -8.6400000000000001E-010     3.0722773158501597E-035
  -8.5999999999999993E-010     4.2583812493520247E-035
  -8.5599999999999994E-010     5.5715746040713807E-035
  -8.5199999999999995E-010     6.8997357097348618E-035
  -8.4799999999999997E-010     8.0621193955368941E-035
  -8.4399999999999998E-010     8.7962202094002205E-035
  -8.3999999999999999E-010     8.7492761996516594E-035
  -8.3600000000000001E-010     7.4781351795808240E-035
  -8.3200000000000002E-010     4.4619070759373648E-035
  -8.2800000000000004E-010    -8.6775927116888746E-036
  -8.2400000000000005E-010    -9.0740311948559087E-035
  -8.2000000000000006E-010    -2.0635906643618435E-034
  -8.1599999999999997E-010    -3.5840643677354038E-034
  -8.1199999999999999E-010    -5.4648080337705425E-034
  -8.0800000000000000E-010    -7.6531418372174105E-034
  -8.0400000000000002E-010    -1.0030397786650575E-033
  -7.9999999999999993E-010    -1.2394774266925062E-033
  -7.9599999999999994E-010    -1.4446614349964750E-033
  -7.9199999999999995E-010    -1.5779029849782120E-033
  -7.8799999999999997E-010    -1.5877389339587175E-033
  -7.8399999999999998E-010    -1.4131580027234454E-033
  -7.7999999999999999E-010    -9.8650782815318440E-034
  -7.7600000000000001E-010    -2.3845217443004443E-034
  -7.7200000000000002E-010     8.9474387184670026E-034
  -7.6800000000000004E-010     2.4614724973234002E-033
  -7.6400000000000005E-010     4.4826885648012677E-033
  -7.6000000000000006E-010     6.9378609634172374E-033
  -7.5600000000000008E-010     9.7497360207642764E-033
  -7.5199999999999999E-010     1.2769092443187172E-032
  -7.4800000000000000E-010     1.5761095846750403E-032
  -7.4400000000000002E-010     1.8395293463602715E-032
  -7.3999999999999993E-010     2.0241639501703405E-032
  -7.3599999999999994E-010     2.0775190510069887E-032
  -7.3199999999999995E-010     1.9392164100977863E-032
  -7.2799999999999997E-010     1.5439903770331721E-032
  -7.2399999999999998E-010     8.2628061966351320E-033
  -7.2000000000000000E-010    -2.7344988763881312E-033
  -7.1600000000000001E-010    -1.8006660337541481E-032
  -7.1200000000000002E-010    -3.7771231334435415E-032
  -7.0800000000000004E-010    -6.1899775150247181E-032
  -7.0400000000000005E-010    -8.9801996725560228E-032
  -6.9999999999999996E-010    -1.2031091816612398E-031
  -6.9599999999999997E-010    -1.5157950283090663E-031
  -6.9199999999999999E-010    -1.8100169149907868E-031
  -6.8800000000000000E-010    -2.0517271180325741E-031
  -6.8400000000000002E-010    -2.1990537058120927E-031
  -6.8000000000000003E-010    -2.2031949724100396E-031
  -6.7600000000000004E-010    -2.0102157105276358E-031
  -6.7199999999999995E-010    -1.5638970799907599E-031
  -6.6799999999999997E-010    -8.0975762127580558E-032
  -6.6399999999999998E-010     2.9969443001933245E-032
  -6.6000000000000000E-010     1.7984907226832340E-031
  -6.5600000000000001E-010     3.6996333703429855E-031
  -6.5200000000000002E-010     5.9866671859412425E-031
  -6.4800000000000004E-010     8.6047879192056630E-031
  -6.4400000000000005E-010     1.1452045885484911E-030
  -6.3999999999999996E-010     1.4371387046147542E-030
  -6.3599999999999998E-010     1.7144462855330578E-030
  -6.3199999999999999E-010     1.9488310193695037E-030
  -6.2800000000000000E-010     2.1056150704584501E-030
  -6.2400000000000002E-010     2.1443651947135327E-030
  -6.2000000000000003E-010     2.0202030866904143E-030
  -6.1600000000000004E-010     1.6859242786838019E-030
  -6.1199999999999995E-010     1.0950338313785594E-030
  -6.0799999999999997E-010     2.0576017686002436E-031
  -6.0399999999999998E-010    -1.0139436231209828E-030
  -6.0000000000000000E-010    -2.5804869524844267E-030
  -5.9600000000000001E-010    -4.4879926686146144E-030
  -5.9200000000000002E-010    -6.7012077899699334E-030
  -5.8800000000000004E-010    -9.1484079770824187E-030
  -5.8400000000000005E-010    -1.1714872880633853E-029
  -5.7999999999999996E-010    -1.4237670331961844E-029
  -5.7599999999999998E-010    -1.6502588020685538E-029
  -5.7199999999999999E-010    -1.8244191423067225E-029
  -5.6800000000000000E-010    -1.9150016461223304E-029
  -5.6400000000000002E-010    -1.8869895969343257E-029
  -5.6000000000000003E-010    -1.7031323498894442E-029
  -5.5600000000000004E-010    -1.3261533804507940E-029
  -5.5199999999999995E-010    -7.2166588654608722E-030
  -5.4799999999999997E-010     1.3821469159736821E-030
  -5.4399999999999998E-010     1.2706336349789710E-029
  -5.4000000000000000E-010     2.6772770444836762E-029
  -5.3600000000000001E-010     4.3393937069418561E-029
  -5.3200000000000002E-010     6.2128700465140442E-029
  -5.2800000000000004E-010     8.2237569737199544E-029
  -5.2400000000000005E-010     1.0264729935922731E-028
  -5.1999999999999996E-010     1.2193026366729133E-028
  -5.1599999999999998E-010     1.3830444783209869E-028
  -5.1199999999999999E-010     1.4966014004431902E-028
  -5.0800000000000000E-010     1.5361875663732331E-028
  -5.0400000000000002E-010     1.4762864506485506E-028
  -5.0000000000000003E-010     1.2910109066629048E-028
  -4.9600000000000004E-010     9.5587827222200204E-029
  -4.9199999999999996E-010     4.4998453380211872E-029
  -4.8799999999999997E-010    -2.4146972604986895E-029
  -4.8399999999999998E-010    -1.1243864293705695E-028
  -4.8000000000000000E-010    -2.1928375938838145E-028
  -4.7600000000000001E-010    -3.4261614820343529E-028
  -4.7200000000000002E-010    -4.7862960607018815E-028
  -4.6800000000000004E-010    -6.2155999318395916E-028
  -4.6400000000000005E-010    -7.6354301535808608E-028
  -4.5999999999999996E-010    -8.9457760728085767E-028
  -4.5599999999999998E-010    -1.0026242993874232E-027
  -4.5199999999999999E-010    -1.0738657961812681E-027
  -4.4800000000000000E-010    -1.0931553327252674E-027
  -4.4400000000000002E-010    -1.0446685056313632E-027
  -4.4000000000000003E-010    -9.1276965264604784E-028
  -4.3600000000000005E-010    -6.8308916971300508E-028
  -4.3199999999999996E-010    -3.4379529881188638E-028
  -4.2799999999999997E-010     1.1297177645684980E-028
  -4.2399999999999998E-010     6.8955432394331859E-028
  -4.2000000000000000E-010     1.3811892300055587E-027
  -4.1600000000000001E-010     2.1744675444435143E-027
  -4.1200000000000002E-010     3.0459487257557997E-027
  -4.0800000000000004E-010     3.9610527980874393E-027
  -4.0400000000000005E-010     4.8733681238596062E-027
  -3.9999999999999996E-010     5.7245193812719344E-027
  -3.9599999999999998E-010     6.4447424543909184E-027
  -3.9199999999999999E-010     6.9543042287049155E-027
  -3.8800000000000000E-010     7.1658868923952972E-027
  -3.8400000000000002E-010     6.9880388176108023E-027
  -3.8000000000000003E-010     6.3297328514599124E-027
  -3.7600000000000005E-010     5.1060381796970726E-027
  -3.7200000000000006E-010     3.2448383555547029E-027
  -3.6799999999999997E-010     6.9443987858149430E-028
  -3.6399999999999998E-010    -2.5681590177343588E-027
  -3.6000000000000000E-010    -6.5286775628552251E-027
  -3.5600000000000001E-010    -1.1127081053740655E-026
  -3.5200000000000003E-010    -1.6249758112599266E-026
  -3.4800000000000004E-010    -2.1722995251051176E-026
  -3.4400000000000005E-010    -2.7308426282855397E-026
  -3.3999999999999996E-010    -3.2701251994269251E-026
  -3.3599999999999998E-010    -3.7531968088394469E-026
  -3.3199999999999999E-010    -4.1372404901482791E-026
  -3.2800000000000000E-010    -4.3746703662875019E-026
  -3.2400000000000002E-010    -4.4147802455324972E-026
  -3.2000000000000003E-010    -4.2059755431938996E-026
  -3.1600000000000005E-010    -3.6985962326928821E-026
  -3.1200000000000006E-010    -2.8483027844777840E-026
  -3.0799999999999997E-010    -1.6199554511552935E-026
  -3.0399999999999998E-010     8.1211061113903299E-029
  -3.0000000000000000E-010     2.0396573401984665E-026
  -2.9600000000000001E-010     4.4559507729164653E-026
  -2.9200000000000003E-010     7.2116338915503161E-026
  -2.8800000000000004E-010     1.0231005785557143E-025
  -2.8400000000000005E-010     1.3405273599792027E-025
  -2.7999999999999996E-010     1.6591061248433466E-025
  -2.7599999999999998E-010     1.9610570576801124E-025
  -2.7199999999999999E-010     2.2253748879952441E-025
  -2.6800000000000011E-010     2.4282790340223050E-025
  -2.6399999999999992E-010     2.5439225914612450E-025
  -2.5999999999999993E-010     2.5453753281220160E-025
  -2.5599999999999994E-010     2.4058891893798696E-025
  -2.5199999999999996E-010     2.1004318930789128E-025
  -2.4799999999999997E-010     1.6074611270117571E-025
  -2.4399999999999998E-010     9.1089429762200021E-026
  -2.4000000000000000E-010     2.2030469485190112E-028
  -2.3600000000000001E-010    -1.1174541360174200E-025
  -2.3200000000000003E-010    -2.4351717061816736E-025
  -2.2800000000000004E-010    -3.9244358316119034E-025
  -2.2400000000000005E-010    -5.5436046405332719E-025
  -2.2000000000000007E-010    -7.2348834713199259E-025
  -2.1600000000000008E-010    -8.9239485611913035E-025
  -2.1200000000000010E-010    -1.0520373277619986E-024
  -2.0800000000000011E-010    -1.1919001968901946E-024
  -2.0399999999999992E-010    -1.3002379162706565E-024
  -1.9999999999999993E-010    -1.3644333459776662E-024
  -1.9599999999999994E-010    -1.3714751128481216E-024
  -1.9199999999999996E-010    -1.3085530032497517E-024
  -1.8799999999999997E-010    -1.1637648810598083E-024
  -1.8399999999999998E-010    -9.2692024110464630E-025
  -1.8000000000000000E-010    -5.9041924672717306E-025
  -1.7600000000000001E-010    -1.5017600519474800E-025
  -1.7200000000000003E-010     3.9344977524579974E-025
  -1.6800000000000004E-010     1.0347601892539137E-024
  -1.6400000000000005E-010     1.7619164930761512E-024
  -1.6000000000000007E-010     2.5562862112135476E-024
  -1.5600000000000008E-010     3.3919985516717668E-024
  -1.5200000000000010E-010     4.2357756143792867E-024
  -1.4800000000000011E-010     5.0470965728632986E-024
  -1.4399999999999992E-010     5.7787548072640192E-024
  -1.3999999999999993E-010     6.3778567994559270E-024
  -1.3599999999999994E-010     6.7872976973709783E-024
  -1.3199999999999996E-010     6.9477354394139225E-024
  -1.2799999999999997E-010     6.8000598890956439E-024
  -1.2399999999999999E-010     6.2883380472228044E-024
  -1.2000000000000000E-010     5.3631761770758958E-024
  -1.1600000000000001E-010     3.9854195620547256E-024
  -1.1200000000000003E-010     2.1300753137448554E-024
  -1.0800000000000004E-010    -2.0969525234488224E-025
  -1.0400000000000005E-010    -3.0186884692919694E-024
  -1.0000000000000007E-010    -6.2560882301260116E-024
  -9.6000000000000082E-011    -9.8524435658779972E-024
  -9.2000000000000096E-011    -1.3707445882068417E-023
  -8.8000000000000110E-011    -1.7688766917290067E-023
  -8.3999999999999917E-011    -2.1632206851843003E-023
  -7.9999999999999931E-011    -2.5343401402733443E-023
  -7.5999999999999944E-011    -2.8601281767604059E-023
  -7.1999999999999958E-011    -3.1163464122438455E-023
  -6.7999999999999972E-011    -3.2773664914070238E-023
  -6.3999999999999986E-011    -3.3171149836105760E-023
  -6.0000000000000000E-011    -3.2102148646222662E-023
  -5.6000000000000013E-011    -2.9333063853166900E-023
  -5.2000000000000027E-011    -2.4665148262755280E-023
  -4.8000000000000041E-011    -1.7950249063821865E-023
  -4.4000000000000055E-011    -9.1070433745083266E-024
  -4.0000000000000069E-011     1.8628831947658411E-024
  -3.6000000000000082E-011     1.4859913288889329E-023
  -3.2000000000000096E-011     2.9673097613196986E-023
  -2.8000000000000110E-011     4.5969603918862488E-023
  -2.3999999999999917E-011     6.3287918599617147E-023
  -1.9999999999999931E-011     8.1035698623504987E-023
  -1.5999999999999945E-011     9.8493234632256671E-023
  -1.1999999999999959E-011     1.1482334956792821E-022
  -7.9999999999999724E-012     1.2908820141018217E-022
  -3.9999999999999862E-012     1.4027369368813884E-022
   0.0000000000000000          1.4732138963715785E-022
   3.9999999999999862E-012     1.4916789213522677E-022
   7.9999999999999724E-012     1.4479120348063922E-022
   1.1999999999999959E-011     1.3326299216013109E-022
   1.5999999999999945E-011     1.1380564326954620E-022
   1.9999999999999931E-011     8.5852148833760671E-023
   2.3999999999999917E-011     4.9106843785497656E-023
   2.7999999999999903E-011     3.6043555686222845E-024
   3.1999999999999889E-011    -5.0236031907005495E-023
   3.6000000000000082E-011    -1.1156367533335912E-022
   4.0000000000000069E-011    -1.7906086105992696E-022
   4.4000000000000055E-011    -2.5092117965528704E-022
   4.8000000000000041E-011    -3.2484542343596944E-022
   5.2000000000000027E-011    -3.9805757194383970E-022
   5.6000000000000013E-011    -4.6734386895989982E-022
   6.0000000000000000E-011    -5.2911639838236189E-022
   6.3999999999999986E-011    -5.7950267358193216E-022
   6.7999999999999972E-011    -6.1446140431737408E-022
   7.1999999999999958E-011    -6.2992398682746872E-022
   7.5999999999999944E-011    -6.2195904128318218E-022
   7.9999999999999931E-011    -5.8695780041127971E-022
   8.3999999999999917E-011    -5.2183474522151606E-022
   8.7999999999999903E-011    -4.2423859058890224E-022
   9.1999999999999889E-011    -2.9276564372957523E-022
   9.6000000000000082E-011    -1.2716807610155078E-022
   1.0000000000000007E-010     7.1453335788025697E-023
   1.0400000000000005E-010     3.0048120825361606E-022
   1.0800000000000004E-010     5.5564948880486819E-022
   1.1200000000000003E-010     8.3095775429787278E-022
   1.1600000000000001E-010     1.1186428308752371E-021
   1.2000000000000000E-010     1.4092166782221973E-021
   1.2399999999999999E-010     1.6915797078579317E-021
   1.2799999999999997E-010     1.9532153604109988E-021
   1.3199999999999996E-010     2.1804717226516141E-021
   1.3599999999999994E-010     2.3589288716162191E-021
   1.3999999999999993E-010     2.4738528545921045E-021
   1.4399999999999992E-010     2.5107286309232038E-021
   1.4799999999999990E-010     2.4558636957529935E-021
   1.5199999999999989E-010     2.2970474415235131E-021
   1.5600000000000008E-010     2.0242480818752479E-021
   1.6000000000000007E-010     1.6303274479796809E-021
   1.6400000000000005E-010     1.1117433650457527E-021
   1.6800000000000004E-010     4.6921512275773097E-022
   1.7200000000000003E-010    -2.9168267023533885E-022
   1.7600000000000001E-010    -1.1600289225873812E-021
   1.8000000000000000E-010    -2.1192013883923030E-021
   1.8399999999999998E-010    -3.1466915814829674E-021
   1.8799999999999997E-010    -4.2141188865750658E-021
   1.9199999999999996E-010    -5.2874697418935817E-021
   1.9599999999999994E-010    -6.3275815075193905E-021
   1.9999999999999993E-010    -7.2908910880774279E-021
   2.0399999999999992E-010    -8.1304462902825062E-021
   2.0799999999999990E-010    -8.7971805211879557E-021
   2.1199999999999989E-010    -9.2414387102335864E-021
   2.1600000000000008E-010    -9.4147249706277763E-021
   2.2000000000000007E-010    -9.2716413039081422E-021
   2.2400000000000005E-010    -8.7719603982343248E-021
   2.2800000000000004E-010    -7.8827856683860021E-021
   2.3200000000000003E-010    -6.5807181620062237E-021
   2.3600000000000001E-010    -4.8539596501529552E-021
   2.4000000000000000E-010    -2.7042680935762635E-021
   2.4399999999999998E-010    -1.4867159134075965E-022
   2.4799999999999997E-010     2.7791432870900844E-021
   2.5199999999999996E-010     6.0278614175106806E-021
   2.5599999999999994E-010     9.5280697171802817E-021
   2.5999999999999993E-010     1.3192363508516554E-020
   2.6399999999999992E-010     1.6916092327128035E-020
   2.6799999999999990E-010     2.0578794765137424E-020
   2.7199999999999989E-010     2.4046353664418188E-020
   2.7600000000000008E-010     2.7173875092867169E-020
   2.8000000000000007E-010     2.9809288680332454E-020
   2.8400000000000005E-010     3.1797601459536920E-020
   2.8800000000000004E-010     3.2985781785983989E-020
   2.9200000000000003E-010     3.3228119856067883E-020
   2.9600000000000001E-010     3.2391988890793091E-020
   3.0000000000000000E-010     3.0363851888738171E-020
   3.0399999999999998E-010     2.7055315231046458E-020
   3.0799999999999997E-010     2.2409049808271771E-020
   3.1199999999999996E-010     1.6404400338907293E-020
   3.1599999999999994E-010     9.0624058064041405E-021
   3.1999999999999993E-010     4.5006748696942309E-022
   3.2399999999999992E-010    -9.3163979142783698E-021
   3.2799999999999990E-010    -2.0069516464094717E-020
   3.3199999999999989E-010    -3.1589917733475022E-020
   3.3600000000000008E-010    -4.3607284914350638E-020
   3.4000000000000007E-010    -5.5802999990110930E-020
   3.4400000000000005E-010    -6.7814625374312692E-020
   3.4800000000000004E-010    -7.9242209547263732E-020
   3.5200000000000003E-010    -8.9656471620443170E-020
   3.5600000000000001E-010    -9.8608782433814630E-020
   3.6000000000000000E-010    -1.0564275800909905E-019
   3.6399999999999998E-010    -1.1030737811730189E-019
   3.6799999999999997E-010    -1.1217133915481064E-019
   3.7199999999999996E-010    -1.1083822127540780E-019
   3.7599999999999994E-010    -1.0596232114418301E-019
   3.7999999999999993E-010    -9.7264478229096714E-020
   3.8399999999999991E-010    -8.4547649060950818E-020
   3.8799999999999990E-010    -6.7711615538655698E-020
   3.9199999999999989E-010    -4.6766303829561990E-020
   3.9599999999999987E-010    -2.1843295427789580E-020
   4.0000000000000007E-010     6.7950560875758418E-021
   4.0400000000000005E-010     3.8749356574403276E-020
   4.0800000000000004E-010     7.3480179260144446E-020
   4.1200000000000002E-010     1.1030876105988850E-019
   4.1600000000000001E-010     1.4842162477115210E-019
   4.2000000000000000E-010     1.8687944864724445E-019
   4.2399999999999998E-010     2.2463017527127174E-019
   4.2799999999999997E-010     2.6052650513362293E-019
   4.3199999999999996E-010     2.9334768767123167E-019
   4.3599999999999994E-010     3.2182518971595961E-019
   4.3999999999999993E-010     3.4467215087922152E-019
   4.4399999999999991E-010     3.6061603133678698E-019
   4.4799999999999990E-010     3.6843402549875535E-019
   4.5199999999999989E-010     3.6699025928772647E-019
   4.5599999999999987E-010     3.5527448668183166E-019
   4.6000000000000007E-010     3.3244099305291789E-019
   4.6400000000000005E-010     2.9784705906503144E-019
   4.6800000000000004E-010     2.5108979606107071E-019
   4.7200000000000002E-010     1.9204064207926907E-019
   4.7600000000000001E-010     1.2087612263222414E-019
   4.8000000000000000E-010     3.8104220320097270E-020
   4.8399999999999998E-010    -5.5414935960549920E-020
   4.8799999999999997E-010    -1.5845487323702284E-019
   4.9199999999999996E-010    -2.6941595668278890E-019
   4.9599999999999994E-010    -3.8632684687707232E-019
   4.9999999999999993E-010    -5.0685486864307942E-019
   5.0399999999999991E-010    -6.2832587630739698E-019
   5.0799999999999990E-010    -7.4775410975022654E-019
   5.1199999999999989E-010    -8.6188208002054602E-019
   5.1599999999999987E-010    -9.6723097565468707E-019
   5.2000000000000007E-010    -1.0601606849695335E-018
   5.2400000000000005E-010    -1.1369403132097415E-018
   5.2800000000000004E-010    -1.1938273850913915E-018
   5.3200000000000002E-010    -1.2271551123566124E-018
   5.3600000000000001E-010    -1.2334275195440254E-018
   5.4000000000000000E-010    -1.2094199464331692E-018
   5.4399999999999998E-010    -1.1522833761992579E-018
   5.4799999999999997E-010    -1.0596520722903900E-018
   5.5199999999999995E-010    -9.2975028472656712E-019
   5.5599999999999994E-010    -7.6149704354354740E-019
   5.5999999999999993E-010    -5.5460660953848203E-019
   5.6399999999999991E-010    -3.0968075660700334E-019
   5.6799999999999990E-010    -2.8290940504854552E-020
   5.7199999999999989E-010     2.8695288360255493E-019
   5.7599999999999987E-010     6.3234959299958461E-019
   5.8000000000000007E-010     1.0030735387772223E-018
   5.8400000000000005E-010     1.3931630234656452E-018
   5.8800000000000004E-010     1.7955328315280304E-018
   5.9200000000000002E-010     2.2020145544154166E-018
   5.9600000000000001E-010     2.6034246261720871E-018
   6.0000000000000000E-010     2.9896631715187694E-018
   6.0399999999999998E-010     3.3498440800039594E-018
   6.0799999999999997E-010     3.6724569266088285E-018
   6.1199999999999995E-010     3.9455617727814800E-018
   6.1599999999999994E-010     4.1570118848168791E-018
   6.1999999999999993E-010     4.2947085054855188E-018
   6.2399999999999991E-010     4.3468825090319948E-018
   6.2799999999999990E-010     4.3023971492791992E-018
   6.3199999999999989E-010     4.1510723144284421E-018
   6.3599999999999987E-010     3.8840232575202912E-018
   6.4000000000000006E-010     3.4940051171597010E-018
   6.4400000000000005E-010     2.9757646760715003E-018
   6.4800000000000004E-010     2.3263805391273049E-018
   6.5200000000000002E-010     1.5455927648196201E-018
   6.5600000000000001E-010     6.3610861189575528E-019
   6.6000000000000000E-010    -3.9612312102214369E-019
   6.6399999999999978E-010    -1.5416805107149740E-018
   6.6800000000000017E-010    -2.7874886492822337E-018
   6.7200000000000016E-010    -4.1167004784350261E-018
   6.7600000000000015E-010    -5.5086510619178217E-018
   6.8000000000000013E-010    -6.9388901815944719E-018
   6.8400000000000012E-010    -8.3793032092152180E-018
   6.8800000000000011E-010    -9.7983315500499370E-018
   6.9200000000000009E-010    -1.1161290280243362E-017
   6.9600000000000008E-010    -1.2430794972011158E-017
   7.0000000000000006E-010    -1.3567293984364102E-017
   7.0400000000000005E-010    -1.4529710355263424E-017
   7.0800000000000004E-010    -1.5276187918533328E-017
   7.1200000000000002E-010    -1.5764939163988860E-017
   7.1600000000000001E-010    -1.5955182433069931E-017
   7.2000000000000000E-010    -1.5808161005355981E-017
   7.2399999999999998E-010    -1.5288231668252100E-017
   7.2799999999999997E-010    -1.4363989682622100E-017
   7.3199999999999995E-010    -1.3009443379258340E-017
   7.3599999999999994E-010    -1.1205173866100525E-017
   7.3999999999999993E-010    -8.9394930810932798E-018
   7.4399999999999991E-010    -6.2095406336783971E-018
   7.4799999999999990E-010    -3.0223169533799127E-018
   7.5199999999999988E-010     6.0439771253534584E-019
   7.5599999999999987E-010     4.6412566502952223E-018
   7.5999999999999986E-010     9.0467262941628167E-018
   7.6399999999999984E-010     1.3766668500227146E-017
   7.6799999999999983E-010     1.8734146986139806E-017
   7.7199999999999982E-010     2.3869479443493564E-017
   7.7599999999999980E-010     2.9080579990595955E-017
   7.7999999999999979E-010     3.4263587829734820E-017
   7.8399999999999977E-010     3.9303814368979681E-017
   7.8800000000000017E-010     4.4077020389047525E-017
   7.9200000000000016E-010     4.8451012501885026E-017
   7.9600000000000015E-010     5.2287568827134574E-017
   8.0000000000000013E-010     5.5444698849567767E-017
   8.0400000000000012E-010     5.7779214296429225E-017
   8.0800000000000010E-010     5.9149554786409072E-017
   8.1200000000000009E-010     5.9418931115970641E-017
   8.1600000000000008E-010     5.8458600894576178E-017
   8.2000000000000006E-010     5.6151422112598373E-017
   8.2400000000000005E-010     5.2395439796456390E-017
   8.2800000000000004E-010     4.7107585160315204E-017
   8.3200000000000002E-010     4.0227354905450236E-017
   8.3600000000000001E-010     3.1720407801550735E-017
   8.3999999999999999E-010     2.1582014029874123E-017
   8.4399999999999998E-010     9.8402489275910617E-018
   8.4799999999999997E-010    -3.4411358683083743E-018
   8.5199999999999995E-010    -1.8160257348956641E-017
   8.5599999999999994E-010    -3.4175152296085550E-017
   8.5999999999999993E-010    -5.1302433113530871E-017
   8.6399999999999991E-010    -6.9316610366310647E-017
   8.6799999999999990E-010    -8.7950197005382382E-017
   8.7199999999999988E-010    -1.0689462488376174E-016
   8.7599999999999987E-010    -1.2580207448003753E-016
   8.7999999999999986E-010    -1.4428822444672782E-016
   8.8399999999999984E-010    -1.6193605002365276E-016
   8.8799999999999983E-010    -1.7830060745059763E-016
   8.9199999999999981E-010    -1.9291481099671090E-016
   8.9599999999999980E-010    -2.0529623569386183E-016
   8.9999999999999979E-010    -2.1495492592162301E-016
   9.0399999999999977E-010    -2.2140211719964912E-016
   9.0799999999999976E-010    -2.2415980501300291E-016
   9.1200000000000016E-010    -2.2277098861686107E-016
   9.1600000000000015E-010    -2.1681070893460818E-016
   9.2000000000000013E-010    -2.0589745703284497E-016
   9.2400000000000012E-010    -1.8970487376397232E-016
   9.2800000000000010E-010    -1.6797367440190181E-016
   9.3200000000000009E-010    -1.4052348063353767E-016
   9.3600000000000008E-010    -1.0726428197334434E-016
   9.4000000000000006E-010    -6.8207420721881141E-017
   9.4400000000000005E-010    -2.3475776213504050E-017
   9.4800000000000004E-010     2.6687101455310492E-017
   9.5200000000000002E-010     8.1909197730234114E-017
   9.5600000000000001E-010     1.4168380989215766E-016
   9.5999999999999999E-010     2.0536517623483445E-016
   9.6399999999999998E-010     2.7216624433158763E-016
   9.6799999999999997E-010     3.4115877195134490E-016
   9.7199999999999995E-010     4.1127600050637828E-016
   9.7599999999999994E-010     4.8131821370602044E-016
   9.7999999999999992E-010     5.4996102259768009E-016
   9.8399999999999991E-010     6.1576711814898509E-016