  -1.2000000000000000E-009     0.0000000000000000
  -1.1960000000000000E-009     0.0000000000000000
  -1.1920000000000000E-009     0.0000000000000000
  -1.1880000000000000E-009     0.0000000000000000
  -1.1840000000000000E-009     0.0000000000000000
  -1.1800000000000001E-009     0.0000000000000000
  -1.1760000000000001E-009     0.0000000000000000
  -1.1720000000000001E-009     0.0000000000000000
  -1.1679999999999999E-009     0.0000000000000000
  -1.1639999999999999E-009     0.0000000000000000
  -1.1599999999999999E-009     0.0000000000000000
  -1.1559999999999999E-009     0.0000000000000000
  -1.1520000000000000E-009     0.0000000000000000
  -1.1480000000000000E-009     0.0000000000000000
  -1.1440000000000000E-009     0.0000000000000000
  -1.1400000000000000E-009     0.0000000000000000
  -1.1360000000000000E-009     0.0000000000000000
  -1.1320000000000000E-009     0.0000000000000000
  -1.1280000000000000E-009     0.0000000000000000
  -1.1240000000000000E-009     0.0000000000000000
  -1.1200000000000001E-009     0.0000000000000000
  -1.1160000000000001E-009     0.0000000000000000
  -1.1120000000000001E-009     0.0000000000000000
  -1.1079999999999999E-009     0.0000000000000000
  -1.1039999999999999E-009     0.0000000000000000
  -1.0999999999999999E-009     0.0000000000000000
  -1.0959999999999999E-009     0.0000000000000000
  -1.0920000000000000E-009     0.0000000000000000
  -1.0880000000000000E-009     0.0000000000000000
  -1.0840000000000000E-009     0.0000000000000000
  -1.0800000000000000E-009     0.0000000000000000
  -1.0760000000000000E-009     0.0000000000000000
  -1.0720000000000000E-009     0.0000000000000000
  -1.0680000000000000E-009     0.0000000000000000
  -1.0640000000000000E-009     0.0000000000000000
  -1.0600000000000001E-009     0.0000000000000000
  -1.0560000000000001E-009     0.0000000000000000
  -1.0520000000000001E-009     0.0000000000000000
  -1.0480000000000001E-009     0.0000000000000000
  -1.0439999999999999E-009     0.0000000000000000
  -1.0399999999999999E-009     0.0000000000000000
  -1.0359999999999999E-009     0.0000000000000000
  -1.0320000000000000E-009     0.0000000000000000
  -1.0280000000000000E-009     0.0000000000000000
  -1.0240000000000000E-009     0.0000000000000000
  -1.0200000000000000E-009     0.0000000000000000
  -1.0160000000000000E-009     0.0000000000000000
  -1.0120000000000000E-009     0.0000000000000000
  -1.0080000000000000E-009     0.0000000000000000
  -1.0040000000000000E-009     0.0000000000000000
  -1.0000000000000001E-009     0.0000000000000000
  -9.9600000000000008E-010     0.0000000000000000
  -9.9199999999999988E-010     0.0000000000000000
  -9.8799999999999990E-010     0.0000000000000000
  -9.8399999999999991E-010     0.0000000000000000
  -9.7999999999999992E-010     0.0000000000000000
  -9.7599999999999994E-010     0.0000000000000000
  -9.7199999999999995E-010     0.0000000000000000
  -9.6799999999999997E-010     0.0000000000000000
  -9.6399999999999998E-010     0.0000000000000000
  -9.5999999999999999E-010     0.0000000000000000
  -9.5600000000000001E-010     0.0000000000000000
  -9.5200000000000002E-010     0.0000000000000000
  -9.4800000000000004E-010     0.0000000000000000
  -9.4400000000000005E-010     0.0000000000000000
  -9.4000000000000006E-010     0.0000000000000000
  -9.3600000000000008E-010     0.0000000000000000
  -9.3200000000000009E-010     0.0000000000000000
  -9.2800000000000000E-010     0.0000000000000000
  -9.2400000000000001E-010     0.0000000000000000
  -9.1999999999999992E-010     0.0000000000000000
  -9.1599999999999994E-010     0.0000000000000000
  -9.1199999999999995E-010     0.0000000000000000
  -9.0799999999999997E-010     0.0000000000000000
  -9.0399999999999998E-010     0.0000000000000000
  -8.9999999999999999E-010     0.0000000000000000
  -8.9600000000000001E-010     0.0000000000000000
  -8.9200000000000002E-010     0.0000000000000000
  -8.8800000000000004E-010     0.0000000000000000
  -8.8400000000000005E-010     0.0000000000000000
  -8.8000000000000006E-010     0.0000000000000000
  -8.7599999999999997E-010     0.0000000000000000
  -8.7199999999999999E-010     0.0000000000000000
  -8.6800000000000000E-010     0.0000000000000000
  -8.6400000000000001E-010     0.0000000000000000
  -8.5999999999999993E-010     0.0000000000000000
  -8.5599999999999994E-010     0.0000000000000000
  -8.5199999999999995E-010     0.0000000000000000
  -8.4799999999999997E-010     0.0000000000000000
  -8.4399999999999998E-010     0.0000000000000000
  -8.3999999999999999E-010     0.0000000000000000
  -8.3600000000000001E-010     0.0000000000000000
  -8.3200000000000002E-010     0.0000000000000000
  -8.2800000000000004E-010     0.0000000000000000
  -8.2400000000000005E-010     0.0000000000000000
  -8.2000000000000006E-010     0.0000000000000000
  -8.1599999999999997E-010     0.0000000000000000
  -8.1199999999999999E-010     0.0000000000000000
  -8.0800000000000000E-010     0.0000000000000000
  -8.0400000000000002E-010     0.0000000000000000
  -7.9999999999999993E-010     0.0000000000000000
  -7.9599999999999994E-010     0.0000000000000000
  -7.9199999999999995E-010     0.0000000000000000
  -7.8799999999999997E-010     0.0000000000000000
  -7.8399999999999998E-010     0.0000000000000000
  -7.7999999999999999E-010     0.0000000000000000
  -7.7600000000000001E-010     0.0000000000000000
  -7.7200000000000002E-010     0.0000000000000000
  -7.6800000000000004E-010     0.0000000000000000
  -7.6400000000000005E-010     0.0000000000000000
  -7.6000000000000006E-010     0.0000000000000000
  -7.5600000000000008E-010     0.0000000000000000
  -7.5199999999999999E-010     0.0000000000000000
  -7.4800000000000000E-010     0.0000000000000000
  -7.4400000000000002E-010     0.0000000000000000
  -7.3999999999999993E-010     0.0000000000000000
  -7.3599999999999994E-010     0.0000000000000000
  -7.3199999999999995E-010     0.0000000000000000
  -7.2799999999999997E-010     0.0000000000000000
  -7.2399999999999998E-010     0.0000000000000000
  -7.2000000000000000E-010     0.0000000000000000
  -7.1600000000000001E-010     0.0000000000000000
  -7.1200000000000002E-010     0.0000000000000000
  -7.0800000000000004E-010     0.0000000000000000
  -7.0400000000000005E-010     0.0000000000000000
  -6.9999999999999996E-010     0.0000000000000000
  -6.9599999999999997E-010     0.0000000000000000
  -6.9199999999999999E-010     0.0000000000000000
  -6.8800000000000000E-010     0.0000000000000000
  -6.8400000000000002E-010     0.0000000000000000
  -6.8000000000000003E-010     0.0000000000000000
  -6.7600000000000004E-010     0.0000000000000000
  -6.7199999999999995E-010     0.0000000000000000
  -6.6799999999999997E-010     0.0000000000000000
  -6.6399999999999998E-010     0.0000000000000000
  -6.6000000000000000E-010     0.0000000000000000
  -6.5600000000000001E-010     0.0000000000000000
  -6.5200000000000002E-010     0.0000000000000000
  -6.4800000000000004E-010     0.0000000000000000
  -6.4400000000000005E-010     0.0000000000000000
  -6.3999999999999996E-010     0.0000000000000000
  -6.3599999999999998E-010     0.0000000000000000
  -6.3199999999999999E-010     0.0000000000000000
  -6.2800000000000000E-010     0.0000000000000000
  -6.2400000000000002E-010     0.0000000000000000
  -6.2000000000000003E-010     0.0000000000000000
  -6.1600000000000004E-010     0.0000000000000000
  -6.1199999999999995E-010     0.0000000000000000
  -6.0799999999999997E-010     0.0000000000000000
  -6.0399999999999998E-010     0.0000000000000000
  -6.0000000000000000E-010     0.0000000000000000
  -5.9600000000000001E-010     0.0000000000000000
  -5.9200000000000002E-010     0.0000000000000000
  -5.8800000000000004E-010     0.0000000000000000
  -5.8400000000000005E-010     0.0000000000000000
  -5.7999999999999996E-010     0.0000000000000000
  -5.7599999999999998E-010     0.0000000000000000
  -5.7199999999999999E-010     0.0000000000000000
  -5.6800000000000000E-010     0.0000000000000000
  -5.6400000000000002E-010     0.0000000000000000
  -5.6000000000000003E-010     0.0000000000000000
  -5.5600000000000004E-010     0.0000000000000000
  -5.5199999999999995E-010     0.0000000000000000
  -5.4799999999999997E-010     0.0000000000000000
  -5.4399999999999998E-010     0.0000000000000000
  -5.4000000000000000E-010     0.0000000000000000
  -5.3600000000000001E-010     0.0000000000000000
  -5.3200000000000002E-010     0.0000000000000000
  -5.2800000000000004E-010     0.0000000000000000
  -5.2400000000000005E-010     0.0000000000000000
  -5.1999999999999996E-010     0.0000000000000000
  -5.1599999999999998E-010     0.0000000000000000
  -5.1199999999999999E-010     0.0000000000000000
  -5.0800000000000000E-010     0.0000000000000000
  -5.0400000000000002E-010     0.0000000000000000
  -5.0000000000000003E-010     0.0000000000000000
  -4.9600000000000004E-010     0.0000000000000000
  -4.9199999999999996E-010     0.0000000000000000
  -4.8799999999999997E-010     0.0000000000000000
  -4.8399999999999998E-010     0.0000000000000000
  -4.8000000000000000E-010     0.0000000000000000
  -4.7600000000000001E-010     0.0000000000000000
  -4.7200000000000002E-010     0.0000000000000000
  -4.6800000000000004E-010     0.0000000000000000
  -4.6400000000000005E-010     0.0000000000000000
  -4.5999999999999996E-010     0.0000000000000000
  -4.5599999999999998E-010     0.0000000000000000
  -4.5199999999999999E-010     0.0000000000000000
  -4.4800000000000000E-010     0.0000000000000000
  -4.4400000000000002E-010     0.0000000000000000
  -4.4000000000000003E-010     0.0000000000000000
  -4.3600000000000005E-010     0.0000000000000000
  -4.3199999999999996E-010     0.0000000000000000
  -4.2799999999999997E-010     0.0000000000000000
  -4.2399999999999998E-010     0.0000000000000000
  -4.2000000000000000E-010     0.0000000000000000
  -4.1600000000000001E-010     0.0000000000000000
  -4.1200000000000002E-010     0.0000000000000000
  -4.0800000000000004E-010     0.0000000000000000
  -4.0400000000000005E-010     0.0000000000000000
  -3.9999999999999996E-010     0.0000000000000000
  -3.9599999999999998E-010     0.0000000000000000
  -3.9199999999999999E-010     0.0000000000000000
  -3.8800000000000000E-010     0.0000000000000000
  -3.8400000000000002E-010     0.0000000000000000
  -3.8000000000000003E-010     0.0000000000000000
  -3.7600000000000005E-010     0.0000000000000000
  -3.7200000000000006E-010     0.0000000000000000
  -3.6799999999999997E-010     0.0000000000000000
  -3.6399999999999998E-010     0.0000000000000000
  -3.6000000000000000E-010     0.0000000000000000
  -3.5600000000000001E-010     0.0000000000000000
  -3.5200000000000003E-010     0.0000000000000000
  -3.4800000000000004E-010     0.0000000000000000
  -3.4400000000000005E-010     0.0000000000000000
  -3.3999999999999996E-010     0.0000000000000000
  -3.3599999999999998E-010     0.0000000000000000
  -3.3199999999999999E-010     0.0000000000000000
  -3.2800000000000000E-010     0.0000000000000000
  -3.2400000000000002E-010     0.0000000000000000
  -3.2000000000000003E-010     0.0000000000000000
  -3.1600000000000005E-010     0.0000000000000000
  -3.1200000000000006E-010     0.0000000000000000
  -3.0799999999999997E-010     0.0000000000000000
  -3.0399999999999998E-010     0.0000000000000000
  -3.0000000000000000E-010     0.0000000000000000
  -2.9600000000000001E-010     0.0000000000000000
  -2.9200000000000003E-010     0.0000000000000000
  -2.8800000000000004E-010     0.0000000000000000
  -2.8400000000000005E-010     0.0000000000000000
  -2.7999999999999996E-010     0.0000000000000000
  -2.7599999999999998E-010     0.0000000000000000
  -2.7199999999999999E-010     0.0000000000000000
  -2.6800000000000011E-010     0.0000000000000000
  -2.6399999999999992E-010     0.0000000000000000
  -2.5999999999999993E-010     0.0000000000000000
  -2.5599999999999994E-010     0.0000000000000000
  -2.5199999999999996E-010     0.0000000000000000
  -2.4799999999999997E-010     0.0000000000000000
  -2.4399999999999998E-010     0.0000000000000000
  -2.4000000000000000E-010     0.0000000000000000
  -2.3600000000000001E-010     0.0000000000000000
  -2.3200000000000003E-010     0.0000000000000000
  -2.2800000000000004E-010     0.0000000000000000
  -2.2400000000000005E-010     0.0000000000000000
  -2.2000000000000007E-010     0.0000000000000000
  -2.1600000000000008E-010    -1.4012984643248171E-045
  -2.1200000000000010E-010    -1.4012984643248171E-045
  -2.0800000000000011E-010     1.4012984643248171E-045
  -2.0399999999999992E-010     4.2038953929744512E-045
  -1.9999999999999993E-010     7.0064923216240854E-045
  -1.9599999999999994E-010     7.0064923216240854E-045
  -1.9199999999999996E-010     4.2038953929744512E-045
  -1.8799999999999997E-010    -4.2038953929744512E-045
  -1.8399999999999998E-010    -1.5414283107572988E-044
  -1.8000000000000000E-010    -2.6624670822171524E-044
  -1.7600000000000001E-010    -3.2229864679470793E-044
  -1.7200000000000003E-010    -2.8025969286496341E-044
  -1.6800000000000004E-010    -9.8090892502737195E-045
  -1.6400000000000005E-010     1.9618178500547439E-044
  -1.6000000000000007E-010     5.8854535501642317E-044
  -1.5600000000000008E-010     9.6689594038412378E-044
  -1.5200000000000010E-010     1.2191296639625909E-043
  -1.4800000000000011E-010     1.1911036946760945E-043
  -1.4399999999999992E-010     7.5670117073540122E-044
  -1.3999999999999993E-010    -1.5414283107572988E-044
  -1.3599999999999994E-010    -1.4853763721843061E-043
  -1.3199999999999996E-010    -3.0127916982983567E-043
  -1.2799999999999997E-010    -4.3720512086934293E-043
  -1.2399999999999999E-010    -5.0026355176395969E-043
  -1.2000000000000000E-010    -4.2879733008339402E-043
  -1.1600000000000001E-010    -1.7376100957627732E-043
  -1.1200000000000003E-010     2.8025969286496341E-043
  -1.0800000000000004E-010     8.9402842023923329E-043
  -1.0400000000000005E-010     1.5484348030789229E-042
  -1.0000000000000007E-010     2.0515009517715322E-042
  -9.6000000000000082E-011     2.1509931427385942E-042
  -9.2000000000000096E-011     1.5974802493302915E-042
  -8.8000000000000110E-011     2.1439866504169701E-043
  -8.3999999999999917E-011    -1.9926464162698899E-042
  -7.9999999999999931E-011    -4.7546056894541043E-042
  -7.5999999999999944E-011    -7.4773286056372239E-042
  -7.1999999999999958E-011    -9.2639841476513657E-042
  -6.7999999999999972E-011    -9.0495854826096686E-042
  -6.3999999999999986E-011    -5.8378094023771879E-042
  -6.0000000000000000E-011     9.4587646341925152E-043
  -5.6000000000000013E-011     1.1056244883522807E-041
  -5.2000000000000027E-011     2.3089194796680011E-041
  -4.8000000000000041E-011     3.4317799391314770E-041
  -4.4000000000000055E-011     4.0846448936604093E-041
  -4.0000000000000069E-011     3.8197994839030189E-041
  -3.6000000000000082E-011     2.2389946862981927E-041
  -3.2000000000000096E-011    -8.6235907494549243E-042
  -2.8000000000000110E-011    -5.3341827342988487E-041
  -2.3999999999999917E-011    -1.0536082893565435E-040
  -1.9999999999999931E-011    -1.5280318974383535E-040
  -1.5999999999999945E-011    -1.7906632556221107E-040
  -1.1999999999999959E-011    -1.6535602138725706E-040
  -7.9999999999999724E-012    -9.5118738459904258E-041
  -3.9999999999999862E-012     3.9967834799472432E-041
   0.0000000000000000          2.3341848909797775E-040
   3.9999999999999862E-012     4.5838434585914821E-040
   7.9999999999999724E-012     6.6522861087967013E-040
   1.1999999999999959E-011     7.8446089331367584E-040
   1.5999999999999945E-011     7.3679992994506017E-040
   1.9999999999999931E-011     4.5099950295215643E-040
   2.3999999999999917E-011    -1.1183622913929933E-040
   2.7999999999999903E-011    -9.3112499448530417E-040
   3.1999999999999889E-011    -1.9031300690703562E-039
   3.6000000000000082E-011    -2.8290128060006213E-039
   4.0000000000000069E-011    -3.4236145729798563E-039
   4.4000000000000055E-011    -3.3525505239585518E-039
   4.8000000000000041E-011    -2.3010035446430302E-039
   5.2000000000000027E-011    -7.0605824423470233E-041
   5.6000000000000013E-011     3.3086660599512916E-039
   6.0000000000000000E-011     7.4748511099522976E-039
   6.3999999999999986E-011     1.1670760502978562E-038
   6.7999999999999972E-011     1.4757507129030125E-038
   7.1999999999999958E-011     1.5337843677642533E-038
   7.5999999999999944E-011     1.2008493051059343E-038
   7.9999999999999931E-011     3.7354020799936638E-039
   8.3999999999999917E-011    -9.6896481743685294E-039
   8.7999999999999903E-011    -2.7193578380508900E-038
   9.1999999999999889E-011    -4.6088574769587587E-038
   9.6000000000000082E-011    -6.2006072563490402E-038
   1.0000000000000007E-010    -6.9241576290542164E-038
   1.0400000000000005E-010    -6.1613815492162742E-038
   1.0800000000000004E-010    -3.3856550791394542E-038
   1.1200000000000003E-010     1.6567441041133631E-038
   1.1600000000000001E-010     8.7500551332633103E-038
   1.2000000000000000E-010     1.7040690641362029E-037
   1.2399999999999999E-010     2.4953432947911803E-037
   1.2799999999999997E-010     3.0252962131707285E-037
   1.3199999999999996E-010     3.0302729526927474E-037
   1.3599999999999994E-010     2.2547410210898721E-037
   1.3999999999999993E-010     5.2010201438309899E-038
   1.4399999999999992E-010    -2.1936910432582028E-037
   1.4799999999999990E-010    -5.6681975815018378E-037
   1.5199999999999989E-010    -9.3889499268300642E-037
   1.5600000000000008E-010    -1.2534914753360731E-036
   1.6000000000000007E-010    -1.4039201704373039E-036
   1.6400000000000005E-010    -1.2738804800958764E-036
   1.6800000000000004E-010    -7.6174539679146198E-037
   1.7200000000000003E-010     1.8751300518314192E-037
   1.7600000000000001E-010     1.5470451634178212E-036
   1.8000000000000000E-010     3.1765220116800181E-036
   1.8399999999999998E-010     4.8035273730251038E-036
   1.8799999999999997E-010     6.0283424075379287E-036
   1.9199999999999996E-010     6.3616062484471414E-036
   1.9599999999999994E-010     5.3007627748595961E-036
   1.9999999999999993E-010     2.4446635982187776E-036
   2.0399999999999992E-010    -2.3636119569436198E-036
   2.0799999999999990E-010    -8.8867337048924249E-036
   2.1199999999999989E-010    -1.6367983973201520E-035
   2.1600000000000008E-010    -2.3471561481025691E-035
   2.2000000000000007E-010    -2.8331695392924804E-035
   2.2400000000000005E-010    -2.8747959868275684E-035
   2.2800000000000004E-010    -2.2546996144018095E-035
   2.3200000000000003E-010    -8.1014813806268738E-036
   2.3600000000000001E-010     1.5042925472378552E-035
   2.4000000000000000E-010     4.5528305308241369E-035
   2.4399999999999998E-010     7.9673468854174001E-035
   2.4799999999999997E-010     1.1126460402603450E-034
   2.5199999999999996E-010     1.3182889046208673E-034
   2.5599999999999994E-010     1.3154338538396855E-034
   2.5999999999999993E-010     1.0085552119344401E-034
   2.6399999999999992E-010     3.2766253571120394E-035
   2.6799999999999990E-010    -7.4441945021163834E-035
   2.7199999999999989E-010    -2.1444378138157907E-034
   2.7600000000000008E-010    -3.7067391418582100E-034
   2.8000000000000007E-010    -5.1542727319970262E-034
   2.8400000000000005E-010    -6.1102338700761550E-034
   2.8800000000000004E-010    -6.1368271338761053E-034
   2.9200000000000003E-010    -4.8045337752686251E-034
   2.9600000000000001E-010    -1.7901186765108800E-034
   3.0000000000000000E-010     3.0053567897998315E-034
   3.0399999999999998E-010     9.3353004263605090E-034
   3.0799999999999997E-010     1.6507823490322476E-033
   3.1199999999999996E-010     2.3338147291790614E-033
   3.1599999999999994E-010     2.8185900688261113E-033
   3.1999999999999993E-010     2.9106127257252725E-033
   3.2399999999999992E-010     2.4130985170641630E-033
   3.2799999999999990E-010     1.1679046062423103E-033
   3.3199999999999989E-010    -8.9390458724731238E-034
   3.3600000000000008E-010    -3.6983109391983104E-033
   3.4000000000000007E-010    -6.9812727044770737E-033
   3.4400000000000005E-010    -1.0260981289139936E-032
   3.4800000000000004E-010    -1.2843449807716375E-032
   3.5200000000000003E-010    -1.3874509698285189E-032
   3.5600000000000001E-010    -1.2447311150225141E-032
   3.6000000000000000E-010    -7.7669268434766271E-033
   3.6399999999999998E-010     6.3726372699583064E-034
   3.6799999999999997E-010     1.2674306456208617E-032
   3.7199999999999996E-010     2.7467012424336358E-032
   3.7599999999999994E-010     4.3190551226577989E-032
   3.7999999999999993E-010     5.7033469514184829E-032
   3.8399999999999991E-010     6.5340476502462787E-032
   3.8799999999999990E-010     6.3985143270908198E-032
   3.9199999999999989E-010     4.8995068862541518E-032
   3.9599999999999987E-010     1.7411802890675801E-032
   4.0000000000000007E-010    -3.1685561898378088E-032
   4.0400000000000005E-010    -9.6125597973167494E-032
   4.0800000000000004E-010    -1.6975172860902555E-031
   4.1200000000000002E-010    -2.4193291220149408E-031
   4.1600000000000001E-010    -2.9774070551102002E-031
   4.2000000000000000E-010    -3.1903560852221134E-031
   4.2399999999999998E-010    -2.8663096734207648E-031
   4.2799999999999997E-010    -1.8356632629898521E-031
   4.3199999999999996E-010     6.7580593678963758E-034
   4.3599999999999994E-010     2.6542251018544464E-031
   4.3999999999999993E-010     5.9421192414292601E-031
   4.4399999999999991E-010     9.5127359941988752E-031
   4.4799999999999990E-010     1.2801929995426828E-030
   4.5199999999999989E-010     1.5059059704937906E-030
   4.5599999999999987E-010     1.5410183629110446E-030
   4.6000000000000007E-010     1.2970468613865805E-030
   4.6400000000000005E-010     7.0051211338665563E-031
   4.6800000000000004E-010    -2.8709777965867503E-031
   4.7200000000000002E-010    -1.6475820979882286E-030
   4.7600000000000001E-010    -3.2857451948421884E-030
   4.8000000000000000E-010    -5.0148669160882000E-030
   4.8399999999999998E-010    -6.5528893670769649E-030
   4.8799999999999997E-010    -7.5343470283186230E-030
   4.9199999999999996E-010    -7.5422644059493774E-030
   4.9599999999999994E-010    -6.1623656934513039E-030
   4.9999999999999993E-010    -3.0589353466024413E-030
   5.0399999999999991E-010     1.9324446281190410E-030
   5.0799999999999990E-010     8.7048693201555764E-030
   5.1199999999999989E-010     1.6787503777200556E-029
   5.1599999999999987E-010     2.5279593949687800E-029
   5.2000000000000007E-010     3.2833262719710211E-029
   5.2400000000000005E-010     3.7707559695507871E-029
   5.2800000000000004E-010     3.7912794614472174E-029
   5.3200000000000002E-010     3.1456270957721947E-029
   5.3600000000000001E-010     1.6687483313877789E-029
   5.4000000000000000E-010    -7.2767275671833718E-030
   5.4399999999999998E-010    -4.0087726235809913E-029
   5.4799999999999997E-010    -7.9724483938079402E-029
   5.5199999999999995E-010    -1.2216055674039143E-028
   5.5599999999999994E-010    -1.6123703734771437E-028
   5.5999999999999993E-010    -1.8884375050479850E-028
   5.6399999999999991E-010    -1.9549983661497370E-028
   5.6799999999999990E-010    -1.7139395854017516E-028
   5.7199999999999989E-010    -1.0789294271169267E-028
   5.7599999999999987E-010     5.4607237419144119E-031
   5.8000000000000007E-010     1.5421472362155178E-028
   5.8400000000000005E-010     3.4599892378012995E-028
   5.8800000000000004E-010     5.5958207497787101E-028
   5.9200000000000002E-010     7.6843535889931576E-028
   5.9600000000000001E-010     9.3606213828295873E-028
   6.0000000000000000E-010     1.0179445906125376E-027
   6.0399999999999998E-010     9.6554071090124142E-028
   6.0799999999999997E-010     7.3248946537953212E-028
   6.1199999999999995E-010     2.8290098101488340E-028
   6.1599999999999994E-010    -3.9876945240458882E-028
   6.1999999999999993E-010    -1.2971959584569315E-027
   6.2399999999999991E-010    -2.3563893462463771E-027
   6.2799999999999990E-010    -3.4724358971046423E-027
   6.3199999999999989E-010    -4.4908526294430464E-027
   6.3599999999999987E-010    -5.2107267240561074E-027
   6.4000000000000006E-010    -5.3976012473039564E-027
   6.4400000000000005E-010    -4.8064755694731821E-027
   6.4800000000000004E-010    -3.2153017161485970E-027
   6.5200000000000002E-010    -4.6792495040154363E-028
   6.5600000000000001E-010     3.4763717275389920E-027
   6.6000000000000000E-010     8.4915907547785402E-027
   6.6399999999999978E-010     1.4238942420727174E-026
   6.6800000000000017E-010     2.0134717803769955E-026
   6.7200000000000016E-010     2.5342057972611852E-026
   6.7600000000000015E-010     2.8796828084708608E-026
   6.8000000000000013E-010     2.9276618833942267E-026
   6.8400000000000012E-010     2.5519107942027392E-026
   6.8800000000000011E-010     1.6391235385569997E-026
   6.9200000000000009E-010     1.1040598517738907E-027
   6.9600000000000008E-010    -2.0540192309053555E-026
   7.0000000000000006E-010    -4.7891791778286292E-026
   7.0400000000000005E-010    -7.9220444286398449E-026
   7.0800000000000004E-010    -1.1154668228338453E-025
   7.1200000000000002E-010    -1.4058507128692587E-025
   7.1600000000000001E-010    -1.6084833181816005E-025
   7.2000000000000000E-010    -1.6595770994556668E-025
   7.2399999999999998E-010    -1.4919296124732618E-025
   7.2799999999999997E-010    -1.0429573168757751E-025
   7.3199999999999995E-010    -2.6510832440894556E-026
   7.3599999999999994E-010     8.6187084481583153E-026
   7.3999999999999993E-010     2.3177734262666826E-025
   7.4399999999999991E-010     4.0292931952861434E-025
   7.4799999999999990E-010     5.8597648071658148E-025
   7.5199999999999988E-010     7.6035014090354688E-025
   7.5599999999999987E-010     8.9871313893188489E-025
   7.5999999999999986E-010     9.6803064249649465E-025
   7.6399999999999984E-010     9.3178149782545764E-025
   7.6799999999999983E-010     7.5343755000632146E-025
   7.7199999999999982E-010     4.0123060617683404E-025
   7.7599999999999980E-010    -1.4593075023330113E-025
   7.7999999999999979E-010    -8.9172136612129791E-025
   7.8399999999999977E-010    -1.8153775966229791E-024
   7.8800000000000017E-010    -2.8651575989046878E-024
   7.9200000000000016E-010    -3.9532561252270545E-024
   7.9600000000000015E-010    -4.9533088998415725E-024
   8.0000000000000013E-010    -5.7017047904988199E-024
   8.0400000000000012E-010    -6.0038988650577168E-024
   8.0800000000000010E-010    -5.6467338071793989E-024
   8.1200000000000009E-010    -4.4174455476862544E-024
   8.1600000000000008E-010    -2.1294607910996882E-024
   8.2000000000000006E-010     1.3456142802227138E-024
   8.2400000000000005E-010     6.0413393869108639E-024
   8.2800000000000004E-010     1.1857665666938297E-023
   8.3200000000000002E-010     1.8523689410766933E-023
   8.3600000000000001E-010     2.5566614329031160E-023
   8.3999999999999999E-010     3.2292491316321630E-023
   8.4399999999999998E-010     3.7784859638276023E-023
   8.4799999999999997E-010     4.0927489002615661E-023
   8.5199999999999995E-010     4.0456920850876843E-023
   8.5599999999999994E-010     3.5049149972398351E-023
   8.5999999999999993E-010     2.3442688383257728E-023
   8.6399999999999991E-010     4.5971662056964210E-024
   8.6799999999999990E-010    -2.2117305821455992E-023
   8.7199999999999988E-010    -5.6709437117023602E-023
   8.7599999999999987E-010    -9.8349289605159182E-023
   8.7999999999999986E-010    -1.4516383612871665E-022
   8.8399999999999984E-010    -1.9407023351364127E-022
   8.8799999999999983E-010    -2.4067558043602137E-022
   8.9199999999999981E-010    -2.7927430471477029E-022
   8.9599999999999980E-010    -3.0297403395766343E-022
   8.9999999999999979E-010    -3.0397887866784671E-022
   9.0399999999999977E-010    -2.7405174259961959E-022
   9.0799999999999976E-010    -2.0516790348474150E-022
   9.1200000000000016E-010    -9.0357282976379936E-023
   9.1600000000000015E-010     7.5285287588565559E-023
   9.2000000000000013E-010     2.9346347639722097E-022
   9.2400000000000012E-010     5.6148281858727721E-022
   9.2800000000000010E-010     8.7108439486495169E-022
   9.3200000000000009E-010     1.2074228779794926E-021
   9.3600000000000008E-010     1.5483230723407753E-021
   9.4000000000000006E-010     1.8639636628378425E-021
   9.4400000000000005E-010     2.1171398992094560E-021
   9.4800000000000004E-010     2.2642520324474513E-021
   9.5200000000000002E-010     2.2571450646454576E-021
   9.5600000000000001E-010     2.0458850345142967E-021
   9.5999999999999999E-010     1.5825070785584177E-021
   9.6399999999999998E-010     8.2569341410918157E-022
   9.6799999999999997E-010    -2.5374598327180037E-022
   9.7199999999999995E-010    -1.6668163921664089E-021
   9.7599999999999994E-010    -3.4000443207489587E-021
   9.7999999999999992E-010    -5.4093892171592222E-021
   9.8399999999999991E-010    -7.6149116280638003E-021
   9.8799999999999990E-010    -9.8968242493170072E-021
   9.9199999999999988E-010    -1.2093611584485411E-020
   9.9599999999999987E-010    -1.4002931846365331E-020
   9.9999999999999986E-010    -1.5385955212334118E-020
   1.0039999999999998E-009    -1.5975718833213088E-020
   1.0079999999999998E-009    -1.5489913397638708E-020
   1.0119999999999998E-009    -1.3648263618449015E-020
   1.0159999999999998E-009    -1.0194412975999329E-020
   1.0199999999999998E-009    -4.9217860370016026E-021
   1.0239999999999998E-009     2.2974438662164920E-021
   1.0279999999999998E-009     1.1481665144464529E-020
   1.0320000000000002E-009     2.2509212979398847E-020
   1.0360000000000001E-009     3.5090067872007803E-020
   1.0400000000000001E-009     4.8742502936436529E-020
   1.0440000000000001E-009     6.2777541345913708E-020
   1.0480000000000001E-009     7.6294247704049846E-020
   1.0520000000000001E-009     8.8188814106878283E-020
   1.0560000000000001E-009     9.7180092881919234E-020
   1.0600000000000001E-009     1.0185378612746602E-019
   1.0640000000000000E-009     1.0072660390884620E-019