  -1.2000000000000000E-009     0.0000000000000000
  -1.1960000000000000E-009     0.0000000000000000
  -1.1920000000000000E-009     0.0000000000000000
  -1.1880000000000000E-009     0.0000000000000000
  -1.1840000000000000E-009     0.0000000000000000
  -1.1800000000000001E-009     0.0000000000000000
  -1.1760000000000001E-009     0.0000000000000000
  -1.1720000000000001E-009     0.0000000000000000
  -1.1679999999999999E-009     0.0000000000000000
  -1.1639999999999999E-009     0.0000000000000000
  -1.1599999999999999E-009     0.0000000000000000
  -1.1559999999999999E-009     0.0000000000000000
  -1.1520000000000000E-009     0.0000000000000000
  -1.1480000000000000E-009     0.0000000000000000
  -1.1440000000000000E-009     0.0000000000000000
  -1.1400000000000000E-009     0.0000000000000000
  -1.1360000000000000E-009     0.0000000000000000
  -1.1320000000000000E-009     0.0000000000000000
  -1.1280000000000000E-009     0.0000000000000000
  -1.1240000000000000E-009     0.0000000000000000
  -1.1200000000000001E-009     0.0000000000000000
  -1.1160000000000001E-009     0.0000000000000000
  -1.1120000000000001E-009     0.0000000000000000
  -1.1079999999999999E-009     0.0000000000000000
  -1.1039999999999999E-009     0.0000000000000000
  -1.0999999999999999E-009     0.0000000000000000
  -1.0959999999999999E-009     0.0000000000000000
  -1.0920000000000000E-009     0.0000000000000000
  -1.0880000000000000E-009     0.0000000000000000
  -1.0840000000000000E-009     0.0000000000000000
  -1.0800000000000000E-009     0.0000000000000000
  -1.0760000000000000E-009     0.0000000000000000
  -1.0720000000000000E-009     0.0000000000000000
  -1.0680000000000000E-009     0.0000000000000000
  -1.0640000000000000E-009     0.0000000000000000
  -1.0600000000000001E-009     0.0000000000000000
  -1.0560000000000001E-009     0.0000000000000000
  -1.0520000000000001E-009     0.0000000000000000
  -1.0480000000000001E-009     0.0000000000000000
  -1.0439999999999999E-009     0.0000000000000000
  -1.0399999999999999E-009     0.0000000000000000
  -1.0359999999999999E-009     0.0000000000000000
  -1.0320000000000000E-009     0.0000000000000000
  -1.0280000000000000E-009     0.0000000000000000
  -1.0240000000000000E-009     0.0000000000000000
  -1.0200000000000000E-009     0.0000000000000000
  -1.0160000000000000E-009     0.0000000000000000
  -1.0120000000000000E-009     0.0000000000000000
  -1.0080000000000000E-009     0.0000000000000000
  -1.0040000000000000E-009     0.0000000000000000
  -1.0000000000000001E-009     0.0000000000000000
  -9.9600000000000008E-010     0.0000000000000000
  -9.9199999999999988E-010     0.0000000000000000
  -9.8799999999999990E-010     0.0000000000000000
  -9.8399999999999991E-010     0.0000000000000000
  -9.7999999999999992E-010     0.0000000000000000
  -9.7599999999999994E-010     0.0000000000000000
  -9.7199999999999995E-010     0.0000000000000000
  -9.6799999999999997E-010     0.0000000000000000
  -9.6399999999999998E-010     0.0000000000000000
  -9.5999999999999999E-010     0.0000000000000000
  -9.5600000000000001E-010     0.0000000000000000
  -9.5200000000000002E-010     0.0000000000000000
  -9.4800000000000004E-010     0.0000000000000000
  -9.4400000000000005E-010     0.0000000000000000
  -9.4000000000000006E-010     0.0000000000000000
  -9.3600000000000008E-010     0.0000000000000000
  -9.3200000000000009E-010     0.0000000000000000
  -9.2800000000000000E-010     0.0000000000000000
  -9.2400000000000001E-010     0.0000000000000000
  -9.1999999999999992E-010     0.0000000000000000
  -9.1599999999999994E-010     0.0000000000000000
  -9.1199999999999995E-010     0.0000000000000000
  -9.0799999999999997E-010     0.0000000000000000
  -9.0399999999999998E-010     0.0000000000000000
  -8.9999999999999999E-010     0.0000000000000000
  -8.9600000000000001E-010     0.0000000000000000
  -8.9200000000000002E-010     0.0000000000000000
  -8.8800000000000004E-010     0.0000000000000000
  -8.8400000000000005E-010     0.0000000000000000
  -8.8000000000000006E-010     0.0000000000000000
  -8.7599999999999997E-010     0.0000000000000000
  -8.7199999999999999E-010     0.0000000000000000
  -8.6800000000000000E-010     0.0000000000000000
  -8.6400000000000001E-010     0.0000000000000000
  -8.5999999999999993E-010     0.0000000000000000
  -8.5599999999999994E-010     0.0000000000000000
  -8.5199999999999995E-010     0.0000000000000000
  -8.4799999999999997E-010     0.0000000000000000
  -8.4399999999999998E-010     0.0000000000000000
  -8.3999999999999999E-010     0.0000000000000000
  -8.3600000000000001E-010     0.0000000000000000
  -8.3200000000000002E-010     0.0000000000000000
  -8.2800000000000004E-010     0.0000000000000000
  -8.2400000000000005E-010     0.0000000000000000
  -8.2000000000000006E-010     0.0000000000000000
  -8.1599999999999997E-010     0.0000000000000000
  -8.1199999999999999E-010     0.0000000000000000
  -8.0800000000000000E-010     0.0000000000000000
  -8.0400000000000002E-010     0.0000000000000000
  -7.9999999999999993E-010     0.0000000000000000
  -7.9599999999999994E-010     0.0000000000000000
  -7.9199999999999995E-010     0.0000000000000000
  -7.8799999999999997E-010     0.0000000000000000
  -7.8399999999999998E-010     0.0000000000000000
  -7.7999999999999999E-010     0.0000000000000000
  -7.7600000000000001E-010     0.0000000000000000
  -7.7200000000000002E-010     0.0000000000000000
  -7.6800000000000004E-010     0.0000000000000000
  -7.6400000000000005E-010     0.0000000000000000
  -7.6000000000000006E-010     0.0000000000000000
  -7.5600000000000008E-010     0.0000000000000000
  -7.5199999999999999E-010     0.0000000000000000
  -7.4800000000000000E-010     0.0000000000000000
  -7.4400000000000002E-010     0.0000000000000000
  -7.3999999999999993E-010     0.0000000000000000
  -7.3599999999999994E-010     0.0000000000000000
  -7.3199999999999995E-010     0.0000000000000000
  -7.2799999999999997E-010     0.0000000000000000
  -7.2399999999999998E-010     0.0000000000000000
  -7.2000000000000000E-010     0.0000000000000000
  -7.1600000000000001E-010     0.0000000000000000
  -7.1200000000000002E-010     0.0000000000000000
  -7.0800000000000004E-010     0.0000000000000000
  -7.0400000000000005E-010     0.0000000000000000
  -6.9999999999999996E-010     0.0000000000000000
  -6.9599999999999997E-010     0.0000000000000000
  -6.9199999999999999E-010     0.0000000000000000
  -6.8800000000000000E-010     0.0000000000000000
  -6.8400000000000002E-010     0.0000000000000000
  -6.8000000000000003E-010     0.0000000000000000
  -6.7600000000000004E-010     0.0000000000000000
  -6.7199999999999995E-010     0.0000000000000000
  -6.6799999999999997E-010     0.0000000000000000
  -6.6399999999999998E-010     0.0000000000000000
  -6.6000000000000000E-010     0.0000000000000000
  -6.5600000000000001E-010     0.0000000000000000
  -6.5200000000000002E-010     0.0000000000000000
  -6.4800000000000004E-010     0.0000000000000000
  -6.4400000000000005E-010     0.0000000000000000
  -6.3999999999999996E-010     0.0000000000000000
  -6.3599999999999998E-010     0.0000000000000000
  -6.3199999999999999E-010     0.0000000000000000
  -6.2800000000000000E-010     0.0000000000000000
  -6.2400000000000002E-010     0.0000000000000000
  -6.2000000000000003E-010     0.0000000000000000
  -6.1600000000000004E-010     0.0000000000000000
  -6.1199999999999995E-010     0.0000000000000000
  -6.0799999999999997E-010     0.0000000000000000
  -6.0399999999999998E-010     0.0000000000000000
  -6.0000000000000000E-010     0.0000000000000000
  -5.9600000000000001E-010     0.0000000000000000
  -5.9200000000000002E-010     0.0000000000000000
  -5.8800000000000004E-010     0.0000000000000000
  -5.8400000000000005E-010     0.0000000000000000
  -5.7999999999999996E-010     0.0000000000000000
  -5.7599999999999998E-010     0.0000000000000000
  -5.7199999999999999E-010     0.0000000000000000
  -5.6800000000000000E-010     0.0000000000000000
  -5.6400000000000002E-010     0.0000000000000000
  -5.6000000000000003E-010     0.0000000000000000
  -5.5600000000000004E-010     0.0000000000000000
  -5.5199999999999995E-010     0.0000000000000000
  -5.4799999999999997E-010     0.0000000000000000
  -5.4399999999999998E-010     0.0000000000000000
  -5.4000000000000000E-010     0.0000000000000000
  -5.3600000000000001E-010     0.0000000000000000
  -5.3200000000000002E-010     0.0000000000000000
  -5.2800000000000004E-010     0.0000000000000000
  -5.2400000000000005E-010     0.0000000000000000
  -5.1999999999999996E-010     0.0000000000000000
  -5.1599999999999998E-010     0.0000000000000000
  -5.1199999999999999E-010     0.0000000000000000
  -5.0800000000000000E-010     0.0000000000000000
  -5.0400000000000002E-010     0.0000000000000000
  -5.0000000000000003E-010     0.0000000000000000
  -4.9600000000000004E-010     0.0000000000000000
  -4.9199999999999996E-010     0.0000000000000000
  -4.8799999999999997E-010     0.0000000000000000
  -4.8399999999999998E-010     0.0000000000000000
  -4.8000000000000000E-010     0.0000000000000000
  -4.7600000000000001E-010     0.0000000000000000
  -4.7200000000000002E-010     0.0000000000000000
  -4.6800000000000004E-010     0.0000000000000000
  -4.6400000000000005E-010     0.0000000000000000
  -4.5999999999999996E-010     0.0000000000000000
  -4.5599999999999998E-010     0.0000000000000000
  -4.5199999999999999E-010     0.0000000000000000
  -4.4800000000000000E-010     0.0000000000000000
  -4.4400000000000002E-010     0.0000000000000000
  -4.4000000000000003E-010     0.0000000000000000
  -4.3600000000000005E-010     0.0000000000000000
  -4.3199999999999996E-010     0.0000000000000000
  -4.2799999999999997E-010     0.0000000000000000
  -4.2399999999999998E-010     0.0000000000000000
  -4.2000000000000000E-010     0.0000000000000000
  -4.1600000000000001E-010     0.0000000000000000
  -4.1200000000000002E-010     0.0000000000000000
  -4.0800000000000004E-010     0.0000000000000000
  -4.0400000000000005E-010    -1.4012984643248171E-045
  -3.9999999999999996E-010    -2.8025969286496341E-045
  -3.9599999999999998E-010    -2.8025969286496341E-045
  -3.9199999999999999E-010     0.0000000000000000
  -3.8800000000000000E-010     4.2038953929744512E-045
  -3.8400000000000002E-010     8.4077907859489024E-045
  -3.8000000000000003E-010     1.2611686178923354E-044
  -3.7600000000000005E-010     1.6815581571897805E-044
  -3.7200000000000006E-010     1.8216880036222622E-044
  -3.6799999999999997E-010     1.4012984643248171E-044
  -3.6399999999999998E-010     2.8025969286496341E-045
  -3.6000000000000000E-010    -1.6815581571897805E-044
  -3.5600000000000001E-010    -4.0637655465419695E-044
  -3.5200000000000003E-010    -6.5861027823266402E-044
  -3.4800000000000004E-010    -8.8281803252463475E-044
  -3.4400000000000005E-010    -1.0089348943138683E-043
  -3.3999999999999996E-010    -9.6689594038412378E-044
  -3.3599999999999998E-010    -6.5861027823266402E-044
  -3.3199999999999999E-010    -4.2038953929744512E-045
  -3.2800000000000000E-010     9.1084400181113110E-044
  -3.2400000000000002E-010     2.1720126197034665E-043
  -3.2000000000000003E-010     3.6013370533147799E-043
  -3.1600000000000005E-010     4.9185576097801079E-043
  -3.1200000000000006E-010     5.7593366883749982E-043
  -3.0799999999999997E-010     5.6472328112290128E-043
  -3.0399999999999998E-010     4.1058045004717140E-043
  -3.0000000000000000E-010     7.8472714002189756E-044
  -2.9600000000000001E-010    -4.4701421011961665E-043
  -2.9200000000000003E-010    -1.1406569499604011E-042
  -2.8800000000000004E-010    -1.9239827915179738E-042
  -2.8400000000000005E-010    -2.6582631868241780E-042
  -2.7999999999999996E-010    -3.1487176493378640E-042
  -2.7599999999999998E-010    -3.1627306339811121E-042
  -2.7199999999999999E-010    -2.4620814018187036E-042
  -2.6800000000000011E-010    -8.5058816784516396E-043
  -2.6399999999999992E-010     1.7586295727276454E-042
  -2.5999999999999993E-010     5.2702835243256370E-042
  -2.5599999999999994E-010     9.3424568616535554E-042
  -2.5199999999999996E-010     1.3344565275765233E-041
  -2.4799999999999997E-010     1.6355955675599265E-041
  -2.4399999999999998E-010     1.7234569812730925E-041
  -2.4000000000000000E-010     1.4757074127804649E-041
  -2.3600000000000001E-010     7.8486726986833004E-042
  -2.3200000000000003E-010    -4.1100083958646885E-042
  -2.2800000000000004E-010    -2.0943806847798716E-041
  -2.2400000000000005E-010    -4.1342508592975078E-041
  -2.2000000000000007E-010    -6.2624028370676075E-041
  -2.1600000000000008E-010    -8.0664344800393770E-041
  -2.1200000000000010E-010    -9.0124510733050610E-041
  -2.0800000000000011E-010    -8.5005567442872053E-041
  -2.0399999999999992E-010    -5.9612637970842043E-041
  -1.9999999999999993E-010    -9.8763515765613107E-042
  -1.9599999999999994E-010     6.5080504578637479E-041
  -1.9199999999999996E-010     1.6132588700385889E-040
  -1.8799999999999997E-010     2.6878586103907181E-040
  -1.8399999999999998E-010     3.7056777369684058E-040
  -1.8000000000000000E-010     4.4336943281390780E-040
  -1.7600000000000001E-010     4.5936385348571126E-040
  -1.7200000000000003E-010     3.8980339771662734E-040
  -1.6800000000000004E-010     2.1035732027058424E-040
  -1.6400000000000005E-010    -9.2122762343177799E-041
  -1.6000000000000007E-010    -5.1215777312914874E-040
  -1.5600000000000008E-010    -1.0186753199393901E-039
  -1.5200000000000010E-010    -1.5500883352668261E-039
  -1.4800000000000011E-010    -2.0132384972031431E-039
  -1.4399999999999992E-010    -2.2879980935956316E-039
  -1.3999999999999993E-010    -2.2390016927905143E-039
  -1.3599999999999994E-010    -1.7351984611056702E-039
  -1.3199999999999996E-010    -6.7673887646563418E-040
  -1.2799999999999997E-010     9.7292432637764914E-040
  -1.2399999999999999E-010     3.1536039770829646E-039
  -1.2000000000000000E-010     5.6793701902098382E-039
  -1.1600000000000001E-010     8.2211504421870157E-039
  -1.1200000000000003E-010     1.0308862347575166E-038
  -1.0800000000000004E-010     1.1360528437260155E-038
  -1.0400000000000005E-010     1.0743842206483161E-038
  -1.0000000000000007E-010     7.8718627869694118E-039
  -9.6000000000000082E-011     2.3290014879602400E-039
  -9.2000000000000096E-011    -5.9835150153992181E-039
  -8.8000000000000110E-011    -1.6701249630193543E-038
  -8.3999999999999917E-011    -2.8875097301341679E-038
  -7.9999999999999931E-011    -4.0906292788821548E-038
  -7.5999999999999944E-011    -5.0571449068630609E-038
  -7.1999999999999958E-011    -5.5168318997746454E-038
  -6.7999999999999972E-011    -5.1803543545985133E-038
  -6.3999999999999986E-011    -3.7826928203080048E-038
  -6.0000000000000000E-011    -1.1393023147349383E-038
  -5.6000000000000013E-011     2.7898375456125710E-038
  -5.2000000000000027E-011     7.8363278197319845E-038
  -4.8000000000000041E-011     1.3570656375193256E-037
  -4.4000000000000055E-011     1.9273985966546120E-037
  -4.0000000000000069E-011     2.3948567424338334E-037
  -3.6000000000000082E-011     2.6379613988807943E-037
  -3.2000000000000096E-011     2.5257653723477950E-037
  -2.8000000000000110E-011     1.9363606290091707E-037
  -2.3999999999999917E-011     7.8091415084853116E-038
  -1.9999999999999931E-011    -9.6869442288517682E-038
  -1.5999999999999945E-011    -3.2518783275806512E-037
  -1.1999999999999959E-011    -5.8954751883655742E-037
  -7.9999999999999724E-012    -8.5994659950931082E-037
  -3.9999999999999862E-012    -1.0938177976943672E-036
   0.0000000000000000         -1.2382475901217620E-036
   3.9999999999999862E-012    -1.2347125513013914E-036
   7.9999999999999724E-012    -1.0264893749608107E-036
   1.1999999999999959E-011    -5.6852947680131263E-037
   1.5999999999999945E-011     1.6088127181671020E-037
   1.9999999999999931E-011     1.1478866635221983E-036
   2.3999999999999917E-011     2.3319807269681086E-036
   2.7999999999999903E-011     3.5982589498976563E-036
   3.1999999999999889E-011     4.7754267873979790E-036
   3.6000000000000082E-011     5.6419621353411171E-036
   4.0000000000000069E-011     5.9424051896136472E-036
   4.4000000000000055E-011     5.4148945663016015E-036
   4.8000000000000041E-011     3.8297181210620396E-036
   5.2000000000000027E-011     1.0368748575058182E-036
   5.6000000000000013E-011    -2.9814418938960328E-036
   6.0000000000000000E-011    -8.0597120141008900E-036
   6.3999999999999986E-011    -1.3807591686231568E-035
   6.7999999999999972E-011    -1.9587783821178399E-035
   7.1999999999999958E-011    -2.4523461038245224E-035
   7.5999999999999944E-011    -2.7544619273102740E-035
   7.9999999999999931E-011    -2.7480093357614732E-035
   8.3999999999999917E-011    -2.3197604716549383E-035
   8.7999999999999903E-011    -1.3787847054557600E-035
   9.1999999999999889E-011     1.2192831117496283E-036
   9.6000000000000082E-011     2.1626978098999946E-035
   1.0000000000000007E-010     4.6361887497289691E-035
   1.0400000000000005E-010     7.3319571765150435E-035
   1.0800000000000004E-010     9.9306853303983725E-035
   1.1200000000000003E-010     1.2012305598543434E-034
   1.1600000000000001E-010     1.3081650743187805E-034
   1.2000000000000000E-010     1.2613985366665447E-034
   1.2399999999999999E-010     1.0120723966429210E-034
   1.2799999999999997E-010     5.2328766846629443E-035
   1.3199999999999996E-010    -2.2036261641713191E-035
   1.3599999999999994E-010    -1.2030221555900156E-034
   1.3999999999999993E-010    -2.3688633330280260E-034
   1.4399999999999992E-010    -3.6160407987313952E-034
   1.4799999999999990E-010    -4.7950636989048131E-034
   1.5199999999999989E-010    -5.7133199373263554E-034
   1.5600000000000008E-010    -6.1472146468465356E-034
   1.6000000000000007E-010    -5.8628148089246221E-034
   1.6400000000000005E-010    -4.6450109266673865E-034
   1.6800000000000004E-010    -2.3340466597246084E-034
   1.7200000000000003E-010     1.1331289145290532E-034
   1.7600000000000001E-010     5.6807527745013277E-034
   1.8000000000000000E-010     1.1056881698116829E-033
   1.8399999999999998E-010     1.6807462510476847E-033
   1.8799999999999997E-010     2.2269198646900905E-033
   1.9199999999999996E-010     2.6588455293371473E-033
   1.9599999999999994E-010     2.8772347473046660E-033
   1.9999999999999993E-010     2.7775884585274453E-033
   2.0399999999999992E-010     2.2625467107406139E-033
   2.0799999999999990E-010     1.2574320008753627E-033
   2.1199999999999989E-010    -2.7202291555708659E-034
   2.1600000000000008E-010    -2.3013909215635364E-033
   2.2000000000000007E-010    -4.7309489309331038E-033
   2.2400000000000005E-010    -7.3734903536243460E-033
   2.2800000000000004E-010    -9.9496192842300059E-033
   2.3200000000000003E-010    -1.2093585063595545E-032
   2.3600000000000001E-010    -1.3372369368340617E-032
   2.4000000000000000E-010    -1.3319883545576402E-032
   2.4399999999999998E-010    -1.1486775777917879E-032
   2.4799999999999997E-010    -7.5045315251181375E-033
   2.5199999999999996E-010    -1.1602758315764660E-033
   2.5599999999999994E-010     7.5238493054059633E-033
   2.5999999999999993E-010     1.8215362012690286E-032
   2.6399999999999992E-010     3.0211104069311168E-032
   2.6799999999999990E-010     4.2404401175899182E-032
   2.7199999999999989E-010     5.3292740861337096E-032
   2.7600000000000008E-010     6.1038102526263919E-032
   2.8000000000000007E-010     6.3589295548268792E-032
   2.8400000000000005E-010     5.8870919998785671E-032
   2.8800000000000004E-010     4.5036797347658859E-032
   2.9200000000000003E-010     2.0776925833605288E-032
   2.9600000000000001E-010    -1.4342951543927564E-032
   3.0000000000000000E-010    -5.9540734312299473E-032
   3.0399999999999998E-010    -1.1251788432779956E-031
   3.0799999999999997E-010    -1.6924975725639391E-031
   3.1199999999999996E-010    -2.2392067120452207E-031
   3.1599999999999994E-010    -2.6905763242581450E-031
   3.1999999999999993E-010    -2.9590921478277785E-031
   3.2399999999999992E-010    -2.9510183824285907E-031
   3.2799999999999990E-010    -2.5758081088099618E-031
   3.3199999999999989E-010    -1.7581348261251540E-031
   3.3600000000000008E-010    -4.5192112477497131E-032
   3.4000000000000007E-010     1.3446826649889639E-031
   3.4400000000000005E-010     3.5748652244523571E-031
   3.4800000000000004E-010     6.1111445145294774E-031
   3.5200000000000003E-010     8.7479706542996628E-031
   3.5600000000000001E-010     1.1201253695539235E-030
   3.6000000000000000E-010     1.3117025487944405E-030
   3.6399999999999998E-010     1.4091073020877576E-030
   3.6799999999999997E-010     1.3700651850359306E-030
   3.7199999999999996E-010     1.1548330157563024E-030
   3.7599999999999994E-010     7.3166351301960481E-031
   3.7999999999999993E-010     8.3049099063560908E-032
   3.8399999999999991E-010    -7.8773247766399644E-031
   3.8799999999999990E-010    -1.8504348071209291E-030
   3.9199999999999989E-010    -3.0428402898718864E-030
   3.9599999999999987E-010    -4.2678758030898052E-030
   4.0000000000000007E-010    -5.3938237253017697E-030
   4.0400000000000005E-010    -6.2585553617440630E-030
   4.0800000000000004E-010    -6.6785374880386189E-030
   4.1200000000000002E-010    -6.4630522583351457E-030
   4.1600000000000001E-010    -5.4336122342465948E-030
   4.2000000000000000E-010    -3.4479976456511600E-030
   4.2399999999999998E-010    -4.2760346742799925E-031
   4.2799999999999997E-010     3.6139330613205800E-030
   4.3199999999999996E-010     8.5436193309289860E-030
   4.3599999999999994E-010     1.4086981360141234E-029
   4.3999999999999993E-010     1.9814865533619007E-029
   4.4399999999999991E-010     2.5143316350529175E-029
   4.4799999999999990E-010     2.9350510314043091E-029
   4.5199999999999989E-010     3.1613968508980805E-029
   4.5599999999999987E-010     3.1070128022403383E-029
   4.6000000000000007E-010     2.6896487369639337E-029
   4.6400000000000005E-010     1.8414172796252627E-029
   4.6800000000000004E-010     5.2059308274753740E-030
   4.7200000000000002E-010    -1.2758521528118759E-029
   4.7600000000000001E-010    -3.5001083446581408E-029
   4.8000000000000000E-010    -6.0431938128542058E-029
   4.8399999999999998E-010    -8.7280749704261197E-029
   4.8799999999999997E-010    -1.1307984520085423E-028
   4.9199999999999996E-010    -1.3471672923519693E-028
   4.9599999999999994E-010    -1.4857068962302777E-028
   4.9999999999999993E-010    -1.5074399323170939E-028
   5.0399999999999991E-010    -1.3739146074196192E-028
   5.0799999999999990E-010    -1.0514249808398896E-028
   5.1199999999999989E-010    -5.1599111828440717E-029
   5.1599999999999987E-010     2.4120045696951931E-029
   5.2000000000000007E-010     1.2083206230181527E-028
   5.2400000000000005E-010     2.3479450101087140E-028
   5.2800000000000004E-010     3.5932869418534719E-028
   5.3200000000000002E-010     4.8463480008153338E-028
   5.3600000000000001E-010     5.9787351042867525E-028
   5.4000000000000000E-010     6.8358341148498345E-028
   5.4399999999999998E-010     7.2448871905631005E-028
   5.4799999999999997E-010     7.0272941809987723E-028
   5.5199999999999995E-010     6.0151038838740750E-028
   5.5599999999999994E-010     4.0712526798718298E-028
   5.5999999999999993E-010     1.1125970899572461E-028
   5.6399999999999991E-010    -2.8657709979623254E-028
   5.6799999999999990E-010    -7.7669702058175368E-028
   5.7199999999999989E-010    -1.3372112938009567E-027
   5.7599999999999987E-010    -1.9326373806045533E-027
   5.8000000000000007E-010    -2.5134533628500283E-027
   5.8400000000000005E-010    -3.0169124429492455E-027
   5.8800000000000004E-010    -3.3693986450799251E-027
   5.9200000000000002E-010    -3.4905315496761159E-027
   5.9600000000000001E-010    -3.2991133725034685E-027
   6.0000000000000000E-010    -2.7208688919197393E-027
   6.0399999999999998E-010    -1.6977284312067367E-027
   6.0799999999999997E-010    -1.9819941261802129E-028
   6.1199999999999995E-010     1.7718715340547954E-027
   6.1599999999999994E-010     4.1590642038317019E-027
   6.1999999999999993E-010     6.8538068930908562E-027
   6.2399999999999991E-010     9.6847436442972983E-027
   6.2799999999999990E-010     1.2417403271929571E-026
   6.3199999999999989E-010     1.4758504393684407E-026
   6.3599999999999987E-010     1.6367056490676182E-026
   6.4000000000000006E-010     1.6873126168815016E-026
   6.4400000000000005E-010     1.5904629925821118E-026
   6.4800000000000004E-010     1.3121881482567200E-026
   6.5200000000000002E-010     8.2588267135597876E-027
   6.5600000000000001E-010     1.1689911354014480E-027
   6.6000000000000000E-010    -8.1268157714517089E-027
   6.6399999999999978E-010    -1.9394966571386862E-026
   6.6800000000000017E-010    -3.2150414459759125E-026
   6.7200000000000016E-010    -4.5630503504542796E-026
   6.7600000000000015E-010    -5.8786999340814479E-026
   6.8000000000000013E-010    -7.0302020463253054E-026
   6.8400000000000012E-010    -7.8633057223775719E-026
   6.8800000000000011E-010    -8.2090881090392295E-026
   6.9200000000000009E-010    -7.8952324023260635E-026
   6.9600000000000008E-010    -6.7607339403752120E-026
   7.0000000000000006E-010    -4.6736403293489057E-026
   7.0400000000000005E-010    -1.5510755681778551E-026
   7.0800000000000004E-010     2.6196221769643190E-026
   7.1200000000000002E-010     7.7602139280168297E-026
   7.1600000000000001E-010     1.3683289136909706E-025
   7.2000000000000000E-010     2.0078659683841478E-025
   7.2399999999999998E-010     2.6506870263738567E-025
   7.2799999999999997E-010     3.2402326096484975E-025
   7.3199999999999995E-010     3.7088310250107843E-025
   7.3599999999999994E-010     3.9805800483126144E-025
   7.3999999999999993E-010     3.9757280607074394E-025
   7.4399999999999991E-010     3.6165742351832527E-025
   7.4799999999999990E-010     2.8347862075346459E-025
   7.5199999999999988E-010     1.5798893290386348E-025
   7.5599999999999987E-010    -1.7149648108742224E-026
   7.5999999999999986E-010    -2.4062498467249754E-025
   7.6399999999999984E-010    -5.0659311200135160E-025
   7.6799999999999983E-010    -8.0394540484303484E-025
   7.7199999999999982E-010    -1.1158255080266880E-024
   7.7599999999999980E-010    -1.4195024438721741E-024
   7.7999999999999979E-010    -1.6867037333592116E-024
   7.8399999999999977E-010    -1.8845023223038755E-024
   7.8800000000000017E-010    -1.9768256722702851E-024
   7.9200000000000016E-010    -1.9266302556558458E-024
   7.9600000000000015E-010    -1.6987285373527218E-024
   8.0000000000000013E-010    -1.2632116450003636E-024
   8.0400000000000012E-010    -5.9933820672921497E-025
   8.0800000000000010E-010     3.0030561550750769E-025
   8.1200000000000009E-010     1.4256410636137645E-024
   8.1600000000000008E-010     2.7452659268835195E-024
   8.2000000000000006E-010     4.2033514590224401E-024
   8.2400000000000005E-010     5.7177032840871546E-024
   8.2800000000000004E-010     7.1794396644954381E-024
   8.3200000000000002E-010     8.4547319253983563E-024
   8.3600000000000001E-010     9.3889854174779371E-024
   8.3999999999999999E-010     9.8137657156950110E-024
   8.4399999999999998E-010     9.5566088935065395E-024
   8.4799999999999997E-010     8.4536858958380332E-024
   8.5199999999999995E-010     6.3650464872160430E-024
   8.5599999999999994E-010     3.1919132521780935E-024
   8.5999999999999993E-010    -1.1048114320679922E-024
   8.6399999999999991E-010    -6.4859449429674996E-024
   8.6799999999999990E-010    -1.2816748556009709E-023
   8.7199999999999988E-010    -1.9852631312973027E-023
   8.7599999999999987E-010    -2.7229676689921803E-023
   8.7999999999999986E-010    -3.4461912448220967E-023
   8.8399999999999984E-010    -4.0947223147020669E-023
   8.8799999999999983E-010    -4.5983601466764730E-023
   8.9199999999999981E-010    -4.8797051797130123E-023
   8.9599999999999980E-010    -4.8582002003479633E-023
   8.9999999999999979E-010    -4.4554198128278740E-023
   9.0399999999999977E-010    -3.6015299477458733E-023
   9.0799999999999976E-010    -2.2427203517184824E-023
   9.1200000000000016E-010    -3.4930161348898435E-024
   9.1600000000000015E-010     2.0759680936736062E-023
   9.2000000000000013E-010     4.9898774937361788E-023
   9.2400000000000012E-010     8.3017462367826729E-023
   9.2800000000000010E-010     1.1868143475253623E-022
   9.3200000000000009E-010     1.5490147203389241E-022
   9.3600000000000008E-010     1.8913956255519683E-022
   9.4000000000000006E-010     2.1835611796354983E-022
   9.4400000000000005E-010     2.3910497730638806E-022
   9.4800000000000004E-010     2.4768064003083499E-022
   9.5200000000000002E-010     2.4031992407462429E-022
   9.5600000000000001E-010     2.1345697619776525E-022
   9.5999999999999999E-010     1.6402584116046210E-022
   9.6399999999999998E-010     8.9801356919252584E-023
   9.6799999999999997E-010    -1.0236866529044869E-023
   9.7199999999999995E-010    -1.3553683007688910E-022
   9.7599999999999994E-010    -2.8362763046478883E-022
   9.7999999999999992E-010    -4.4982287697993216E-022
   9.8399999999999991E-010    -6.2700593354107103E-022
   9.8799999999999990E-010    -8.0553118960078913E-022
   9.9199999999999988E-010    -9.7327421907729954E-022
   9.9599999999999987E-010    -1.1158627083403955E-021
   9.9999999999999986E-010    -1.2171144822731269E-021
   1.0039999999999998E-009    -1.2597005513289697E-021
   1.0079999999999998E-009    -1.2260414089814506E-021
   1.0119999999999998E-009    -1.0994290569886355E-021
   1.0159999999999998E-009    -8.6535410924942626E-022
   1.0199999999999998E-009    -5.1299627190877294E-022
   1.0239999999999998E-009    -3.6816719048290864E-023
   1.0279999999999998E-009     5.6182602987903353E-022
   1.0320000000000002E-009     1.2731394090054721E-021
   1.0360000000000001E-009     2.0775541774096435E-021
   1.0400000000000001E-009     2.9447068390358758E-021
   1.0440000000000001E-009     3.8328855594161536E-021
   1.0480000000000001E-009     4.6890784818228417E-021