  -1.2000000000000000E-009     0.0000000000000000
  -1.1960000000000000E-009     0.0000000000000000
  -1.1920000000000000E-009     0.0000000000000000
  -1.1880000000000000E-009     0.0000000000000000
  -1.1840000000000000E-009     0.0000000000000000
  -1.1800000000000001E-009     0.0000000000000000
  -1.1760000000000001E-009     0.0000000000000000
  -1.1720000000000001E-009     0.0000000000000000
  -1.1679999999999999E-009     0.0000000000000000
  -1.1639999999999999E-009     0.0000000000000000
  -1.1599999999999999E-009     0.0000000000000000
  -1.1559999999999999E-009     0.0000000000000000
  -1.1520000000000000E-009     0.0000000000000000
  -1.1480000000000000E-009     0.0000000000000000
  -1.1440000000000000E-009     0.0000000000000000
  -1.1400000000000000E-009     0.0000000000000000
  -1.1360000000000000E-009     0.0000000000000000
  -1.1320000000000000E-009     0.0000000000000000
  -1.1280000000000000E-009     0.0000000000000000
  -1.1240000000000000E-009     0.0000000000000000
  -1.1200000000000001E-009     0.0000000000000000
  -1.1160000000000001E-009     0.0000000000000000
  -1.1120000000000001E-009     0.0000000000000000
  -1.1079999999999999E-009     0.0000000000000000
  -1.1039999999999999E-009     0.0000000000000000
  -1.0999999999999999E-009     0.0000000000000000
  -1.0959999999999999E-009     0.0000000000000000
  -1.0920000000000000E-009     0.0000000000000000
  -1.0880000000000000E-009     0.0000000000000000
  -1.0840000000000000E-009     0.0000000000000000
  -1.0800000000000000E-009     0.0000000000000000
  -1.0760000000000000E-009     0.0000000000000000
  -1.0720000000000000E-009     0.0000000000000000
  -1.0680000000000000E-009     0.0000000000000000
  -1.0640000000000000E-009     0.0000000000000000
  -1.0600000000000001E-009     0.0000000000000000
  -1.0560000000000001E-009     0.0000000000000000
  -1.0520000000000001E-009     0.0000000000000000
  -1.0480000000000001E-009     0.0000000000000000
  -1.0439999999999999E-009     0.0000000000000000
  -1.0399999999999999E-009     0.0000000000000000
  -1.0359999999999999E-009     0.0000000000000000
  -1.0320000000000000E-009     0.0000000000000000
  -1.0280000000000000E-009     0.0000000000000000
  -1.0240000000000000E-009     0.0000000000000000
  -1.0200000000000000E-009     0.0000000000000000
  -1.0160000000000000E-009     0.0000000000000000
  -1.0120000000000000E-009     0.0000000000000000
  -1.0080000000000000E-009     0.0000000000000000
  -1.0040000000000000E-009     0.0000000000000000
  -1.0000000000000001E-009     0.0000000000000000
  -9.9600000000000008E-010     0.0000000000000000
  -9.9199999999999988E-010     0.0000000000000000
  -9.8799999999999990E-010     0.0000000000000000
  -9.8399999999999991E-010     0.0000000000000000
  -9.7999999999999992E-010     0.0000000000000000
  -9.7599999999999994E-010     0.0000000000000000
  -9.7199999999999995E-010     0.0000000000000000
  -9.6799999999999997E-010     0.0000000000000000
  -9.6399999999999998E-010     0.0000000000000000
  -9.5999999999999999E-010     0.0000000000000000
  -9.5600000000000001E-010     0.0000000000000000
  -9.5200000000000002E-010     0.0000000000000000
  -9.4800000000000004E-010     0.0000000000000000
  -9.4400000000000005E-010     0.0000000000000000
  -9.4000000000000006E-010     0.0000000000000000
  -9.3600000000000008E-010     0.0000000000000000
  -9.3200000000000009E-010     0.0000000000000000
  -9.2800000000000000E-010     0.0000000000000000
  -9.2400000000000001E-010     0.0000000000000000
  -9.1999999999999992E-010     0.0000000000000000
  -9.1599999999999994E-010     0.0000000000000000
  -9.1199999999999995E-010     0.0000000000000000
  -9.0799999999999997E-010     0.0000000000000000
  -9.0399999999999998E-010     0.0000000000000000
  -8.9999999999999999E-010     0.0000000000000000
  -8.9600000000000001E-010     0.0000000000000000
  -8.9200000000000002E-010     0.0000000000000000
  -8.8800000000000004E-010     0.0000000000000000
  -8.8400000000000005E-010     1.4012984643248171E-045
  -8.8000000000000006E-010     2.8025969286496341E-045
  -8.7599999999999997E-010     5.6051938572992683E-045
  -8.7199999999999999E-010     9.8090892502737195E-045
  -8.6800000000000000E-010     9.8090892502737195E-045
  -8.6400000000000001E-010     2.8025969286496341E-045
  -8.5999999999999993E-010    -1.5414283107572988E-044
  -8.5599999999999994E-010    -4.4841550858394146E-044
  -8.5199999999999995E-010    -8.1275310930839390E-044
  -8.4799999999999997E-010    -1.0369608636003646E-043
  -8.4399999999999998E-010    -8.4077907859489024E-044
  -8.3999999999999999E-010     1.2611686178923354E-044
  -8.3600000000000001E-010     2.1019476964872256E-043
  -8.3200000000000002E-010     4.9045446251368597E-043
  -8.2800000000000004E-010     7.6791155844999975E-043
  -8.2400000000000005E-010     8.6600245095273695E-043
  -8.2000000000000006E-010     5.3809861030072976E-043
  -8.1599999999999997E-010    -4.5542200090556555E-043
  -8.1199999999999999E-010    -2.2014398874542876E-042
  -8.0800000000000000E-010    -4.4323070426593964E-042
  -8.0400000000000002E-010    -6.3310664618195235E-042
  -7.9999999999999993E-010    -6.4852092928952534E-042
  -7.9599999999999994E-010    -3.1094812923367691E-042
  -7.9199999999999995E-010     5.2997107920764582E-042
  -7.8799999999999997E-010     1.8872687717526636E-041
  -7.8399999999999998E-010     3.5049277189692325E-041
  -7.7999999999999999E-010     4.7513827029861572E-041
  -7.7600000000000001E-010     4.6200810368789219E-041
  -7.7200000000000002E-010     1.9265051287537585E-041
  -7.6800000000000004E-010    -4.2340233099574348E-041
  -7.6400000000000005E-010    -1.3779248059398791E-040
  -7.6000000000000006E-010    -2.4836333722000193E-040
  -7.5600000000000008E-010    -3.3161868288093228E-040
  -7.5199999999999999E-010    -3.2252565714592855E-040
  -7.4800000000000000E-010    -1.4648473496819475E-040
  -7.4400000000000002E-010     2.5245933263122337E-040
  -7.3999999999999993E-010     8.6968366201851824E-040
  -7.3599999999999994E-010     1.5933001760112105E-039
  -7.3199999999999995E-010     2.1707444445932525E-039
  -7.2799999999999997E-010     2.2141286450487488E-039
  -7.2399999999999998E-010     1.2713798798018703E-039
  -7.2000000000000000E-010    -1.0193171146360509E-039
  -7.1600000000000001E-010    -4.6982748924867110E-039
  -7.1200000000000002E-010    -9.2210525665998462E-039
  -7.0800000000000004E-010    -1.3254068019640672E-038
  -7.0400000000000005E-010    -1.4659567576761535E-038
  -6.9999999999999996E-010    -1.0812518442921256E-038
  -6.9599999999999997E-010     6.4695007371101722E-040
  -6.9199999999999999E-010     2.0630248099526002E-038
  -6.8800000000000000E-010     4.7170492090520420E-038
  -6.8400000000000002E-010     7.4156406446407168E-038
  -6.8000000000000003E-010     9.0852967331939080E-038
  -6.7600000000000004E-010     8.2939061387144531E-038
  -6.7199999999999995E-010     3.5685133183461282E-038
  -6.6799999999999997E-010    -6.0524636642587778E-038
  -6.6399999999999998E-010    -2.0288770441169466E-037
  -6.6000000000000000E-010    -3.6870451757557258E-037
  -6.5600000000000001E-010    -5.1044392905534092E-037
  -6.5200000000000002E-010    -5.5687529225786857E-037
  -6.4800000000000004E-010    -4.2380574800804102E-037
  -6.4400000000000005E-010    -3.6698782045809139E-038
  -6.3999999999999996E-010     6.3541298166725214E-037
  -6.3599999999999998E-010     1.5397318652052240E-036
  -6.3199999999999999E-010     2.5035904183004036E-036
  -6.2800000000000000E-010     3.2178171339641236E-036
  -6.2400000000000002E-010     3.2576532915495003E-036
  -6.2000000000000003E-010     2.1574288918008926E-036
  -6.1600000000000004E-010    -4.5332148813870579E-037
  -6.1199999999999995E-010    -4.6608020976289382E-036
  -6.0799999999999997E-010    -1.0056403676356817E-035
  -6.0399999999999998E-010    -1.5562144713570677E-035
  -6.0000000000000000E-010    -1.9372057935914395E-035
  -5.9600000000000001E-010    -1.9098987957947863E-035
  -5.9200000000000002E-010    -1.2202508103537728E-035
  -5.8800000000000004E-010     3.2723433836107103E-036
  -5.8400000000000005E-010     2.7697559812516855E-035
  -5.7999999999999996E-010     5.8770171684054555E-035
  -5.7599999999999998E-010     9.0614876140244291E-035
  -5.7199999999999999E-010     1.1347662266311800E-034
  -5.6800000000000000E-010     1.1444332901342509E-034
  -5.6400000000000002E-010     7.9575474640054914E-035
  -5.6000000000000003E-010    -2.3938303193346848E-036
  -5.5600000000000004E-010    -1.3500401090625311E-034
  -5.5199999999999995E-010    -3.0839975914585829E-034
  -5.4799999999999997E-010    -4.9439111302551660E-034
  -5.4399999999999998E-010    -6.4411529785768989E-034
  -5.4000000000000000E-010    -6.9045907080336242E-034
  -5.3600000000000001E-010    -5.5722022996876205E-034
  -5.3200000000000002E-010    -1.7614412061256240E-034
  -5.2800000000000004E-010     4.8864423134694183E-034
  -5.2400000000000005E-010     1.4116433598853116E-033
  -5.1999999999999996E-010     2.4780649674272415E-033
  -5.1599999999999998E-010     3.4654249371492759E-033
  -5.1199999999999999E-010     4.0449778149092344E-033
  -5.0800000000000000E-010     3.8134748554323392E-033
  -5.0400000000000002E-010     2.3631043749817065E-033
  -5.0000000000000003E-010    -6.0861504703862025E-034
  -4.9600000000000004E-010    -5.1569752669779636E-033
  -4.9199999999999996E-010    -1.0936965478627617E-032
  -4.8799999999999997E-010    -1.7073536758811426E-032
  -4.8399999999999998E-010    -2.2102019472984974E-032
  -4.8000000000000000E-010    -2.4031806508210846E-032
  -4.7600000000000001E-010    -2.0582428538318233E-032
  -4.7200000000000002E-010    -9.6226915300632806E-033
  -4.6800000000000004E-010     1.0192179604786308E-032
  -4.6400000000000005E-010     3.8642966190061715E-032
  -4.5999999999999996E-010     7.3151013451670952E-032
  -4.5599999999999998E-010     1.0815509581944018E-031
  -4.5199999999999999E-010     1.3490610287974717E-031
  -4.4800000000000000E-010     1.4194832496631438E-031
  -4.4400000000000002E-010     1.1652656691791723E-031
  -4.4000000000000003E-010     4.7056675739299689E-032
  -4.3600000000000005E-010    -7.3388222334195135E-032
  -4.3199999999999996E-010    -2.4288938844487116E-031
  -4.2799999999999997E-010    -4.4642994985189884E-031
  -4.2399999999999998E-010    -6.5255335446632729E-031
  -4.2000000000000000E-010    -8.1218478201138344E-031
  -4.1600000000000001E-010    -8.6099713790950489E-031
  -4.1200000000000002E-010    -7.2657855955681776E-031
  -4.0800000000000004E-010    -3.4119398266374267E-031
  -4.0400000000000005E-010     3.3993973019141529E-031
  -3.9999999999999996E-010     1.3162197384857804E-030
  -3.9599999999999998E-010     2.5180151641506542E-030
  -3.9199999999999999E-010     3.7864914942811769E-030
  -3.8800000000000000E-010     4.8631119119507156E-030
  -3.8400000000000002E-010     5.3959640654157469E-030
  -3.8000000000000003E-010     4.9699280491749082E-030
  -3.7600000000000005E-010     3.1660132899284490E-030
  -3.7200000000000006E-010    -3.4842087491282406E-031
  -3.6799999999999997E-010    -5.7025126795678173E-030
  -3.6399999999999998E-010    -1.2689315943906188E-029
  -3.6000000000000000E-010    -2.0638000468686266E-029
  -3.5600000000000001E-010    -2.8319806774586729E-029
  -3.5200000000000003E-010    -3.3923597865069664E-029
  -3.4800000000000004E-010    -3.5139976097492646E-029
  -3.4400000000000005E-010    -2.9389525441744623E-029
  -3.3999999999999996E-010    -1.4218964737376983E-029
  -3.3599999999999998E-010     1.2132926820034868E-029
  -3.3199999999999999E-010     5.0030122906590274E-029
  -3.2800000000000000E-010     9.7666657948578558E-029
  -3.2400000000000002E-010     1.5034472388011361E-028
  -3.2000000000000003E-010     1.9996686260210976E-028
  -3.1600000000000005E-010     2.3494113650201219E-028
  -3.1200000000000006E-010     2.4071182446850397E-028
  -3.0799999999999997E-010     2.0110999832060080E-028
  -3.0399999999999998E-010     1.0065594196351060E-028
  -3.0000000000000000E-010    -7.2168145949524691E-029
  -2.9600000000000001E-010    -3.2082441940156385E-028
  -2.9200000000000003E-010    -6.3616793107089329E-028
  -2.8800000000000004E-010    -9.9204670694685963E-028
  -2.8400000000000005E-010    -1.3419072887843561E-027
  -2.7999999999999996E-010    -1.6174662637393708E-027
  -2.7599999999999998E-010    -1.7306217739129151E-027
  -2.7199999999999999E-010    -1.5797383553902943E-027
  -2.6800000000000011E-010    -1.0611988586405361E-027
  -2.6399999999999992E-010    -8.6617134430736118E-029
  -2.5999999999999993E-010     1.3946697766512972E-027
  -2.5599999999999994E-010     3.3692472669862963E-027
  -2.5199999999999996E-010     5.7320755748157433E-027
  -2.4799999999999997E-010     8.2617510455873452E-027
  -2.4399999999999998E-010     1.0603853650913263E-026
  -2.4000000000000000E-010     1.2268598220706435E-026
  -2.3600000000000001E-010     1.2649389237450791E-026
  -2.3200000000000003E-010     1.1068381790523643E-026
  -2.2800000000000004E-010     6.8535172332272204E-027
  -2.2400000000000005E-010    -5.5148845068308087E-028
  -2.2000000000000007E-010    -1.1447139025246725E-026
  -2.1600000000000008E-010    -2.5716822369374231E-026
  -2.1200000000000010E-010    -4.2659628683577177E-026
  -2.0800000000000011E-010    -6.0840009846652162E-026
  -2.0399999999999992E-010    -7.7983775394972250E-026
  -1.9999999999999993E-010    -9.0955033748448813E-026
  -1.9599999999999994E-010    -9.5851098956703023E-026
  -1.9199999999999996E-010    -8.8250294712406311E-026
  -1.8799999999999997E-010    -6.3639714177136465E-026
  -1.8399999999999998E-010    -1.8035588209111997E-026
  -1.8000000000000000E-010     5.1213007122831548E-026
  -1.7600000000000001E-010     1.4447553605624960E-025
  -1.7200000000000003E-010     2.5881969167287085E-025
  -1.6800000000000004E-010     3.8703091266762952E-025
  -1.6400000000000005E-010     5.1682163040986697E-025
  -1.6000000000000007E-010     6.3041242386200216E-025
  -1.5600000000000008E-010     7.0468772100069967E-025
  -1.5200000000000010E-010     7.1213284231275586E-025
  -1.4800000000000011E-010     6.2273434206387290E-025
  -1.4399999999999992E-010     4.0697200980074243E-025
  -1.3999999999999993E-010     3.9940687069752786E-026
  -1.3599999999999994E-010    -4.9348968863137141E-025
  -1.3199999999999996E-010    -1.1927290924863556E-024
  -1.2799999999999997E-010    -2.0351846159624040E-024
  -1.2399999999999999E-010    -2.9702892889587183E-024
  -1.2000000000000000E-010    -3.9146977874712092E-024
  -1.1600000000000001E-010    -4.7496723457678205E-024
  -1.1200000000000003E-010    -5.3217897729748332E-024
  -1.0800000000000004E-010    -5.4481293968200517E-024
  -1.0400000000000005E-010    -4.9269751451034847E-024
  -1.0000000000000007E-010    -3.5548174703571206E-024
  -9.6000000000000082E-011    -1.1499801283867500E-024
  -9.2000000000000096E-011     2.4174279564481505E-024
  -8.8000000000000110E-011     7.1903543439800760E-024
  -8.3999999999999917E-011     1.3086527152681717E-023
  -7.9999999999999931E-011     1.9860204377663149E-023
  -7.5999999999999944E-011     2.7068184240848578E-023
  -7.1999999999999958E-011     3.4045277138850301E-023
  -6.7999999999999972E-011     3.9895223487366895E-023
  -6.3999999999999986E-011     4.3503391226313660E-023
  -6.0000000000000000E-011     4.3577414778215979E-023
  -5.6000000000000013E-011     3.8721187045675430E-023
  -5.2000000000000027E-011     2.7545792187305587E-023
  -4.8000000000000041E-011     8.8186082174278420E-024
  -4.4000000000000055E-011    -1.8351825018511863E-023
  -4.0000000000000069E-011    -5.4301789458078381E-023
  -3.6000000000000082E-011    -9.8580911788706555E-023
  -3.2000000000000096E-011    -1.4972032196082219E-022
  -2.8000000000000110E-011    -2.0502294240479809E-022
  -2.3999999999999917E-011    -2.6040359065863121E-022
  -1.9999999999999931E-011    -3.1030991026169053E-022
  -1.5999999999999945E-011    -3.4775798309142236E-022
  -1.1999999999999959E-011    -3.6451538295868504E-022
  -7.9999999999999724E-012    -3.5146141367328361E-022
  -3.9999999999999862E-012    -2.9914660706327591E-022
   0.0000000000000000         -1.9856265121846837E-022
   3.9999999999999862E-012    -4.2117962150128310E-023
   7.9999999999999724E-012     1.7520559053102877E-022
   1.1999999999999959E-011     4.5456215135010827E-022
   1.5999999999999945E-011     7.9189068645513777E-022
   1.9999999999999931E-011     1.1766027261230063E-021
   2.3999999999999917E-011     1.5904339568308619E-021
   2.7999999999999903E-011     2.0066058703731403E-021
   3.1999999999999889E-011     2.3894604392209138E-021
   3.6000000000000082E-011     2.6947341100023796E-021
   4.0000000000000069E-011     2.8706358040179498E-021
   4.4000000000000055E-011     2.8598685216157306E-021
   4.8000000000000041E-011     2.6026975441071758E-021
   5.2000000000000027E-011     2.0411127920691696E-021
   5.6000000000000013E-011     1.1240584808964369E-021
   6.0000000000000000E-011    -1.8639223139046344E-022
   6.3999999999999986E-011    -1.9081412871689613E-021
   6.7999999999999972E-011    -4.0317934161667467E-021
   7.1999999999999958E-011    -6.5134665202804585E-021
   7.5999999999999944E-011    -9.2682647267983066E-021
   7.9999999999999931E-011    -1.2165085967082388E-020
   8.3999999999999917E-011    -1.5023511163542378E-020
   8.7999999999999903E-011    -1.7613568757810761E-020
   9.1999999999999889E-011    -1.9659118557994775E-020
   9.6000000000000082E-011    -2.0845586362079917E-020
   1.0000000000000007E-010    -2.0832566345367876E-020
   1.0400000000000005E-010    -1.9271645833324769E-020
   1.0800000000000004E-010    -1.5829488810550198E-020
   1.1200000000000003E-010    -1.0215844547123982E-020
   1.1600000000000001E-010    -2.2157512988944275E-021
   1.2000000000000000E-010     8.2753176041657924E-021
   1.2399999999999999E-010     2.1215071139601162E-020
   1.2799999999999997E-010     3.6379002674472952E-020
   1.3199999999999996E-010     5.3328683058114615E-020
   1.3599999999999994E-010     7.1386720839091980E-020
   1.3999999999999993E-010     8.9621794658201299E-020
   1.4399999999999992E-010     1.0684701665870262E-019
   1.4799999999999990E-010     1.2163504791954448E-019
   1.5199999999999989E-010     1.3235271079412041E-019
   1.5600000000000008E-010     1.3721750214821255E-019
   1.6000000000000007E-010     1.3437726119273809E-019
   1.6400000000000005E-010     1.2201325040524020E-019
   1.6800000000000004E-010     9.8465234285794002E-020
   1.7200000000000003E-010     6.2375557417607079E-020
   1.7600000000000001E-010     1.2847466351586021E-020
   1.8000000000000000E-010    -5.0389293520233163E-020
   1.8399999999999998E-010    -1.2681420668049798E-019
   1.8799999999999997E-010    -2.1496352291312685E-019
   1.9199999999999996E-010    -3.1230170422727175E-019
   1.9599999999999994E-010    -4.1512956014950431E-019
   1.9999999999999993E-010    -5.1854262050572400E-019
   2.0399999999999992E-010    -6.1645319787905852E-019
   2.0799999999999990E-010    -7.0168738746138274E-019
   2.1199999999999989E-010    -7.6616823586021091E-019
   2.1600000000000008E-010    -8.0119111469449439E-019
   2.2000000000000007E-010    -7.9779455600298681E-019
   2.2400000000000005E-010    -7.4722435226667461E-019
   2.2800000000000004E-010    -6.4148347641976000E-019
   2.3200000000000003E-010    -4.7395319109211162E-019
   2.3600000000000001E-010    -2.4006378868846856E-019
   2.4000000000000000E-010     6.2012173097103412E-020
   2.4399999999999998E-010     4.3067972848488868E-019
   2.4799999999999997E-010     8.6029446193111533E-019
   2.5199999999999996E-010     1.3406339526412309E-018
   2.5599999999999994E-010     1.8565154814175835E-018
   2.5999999999999993E-010     2.3876101024297051E-018
   2.6399999999999992E-010     2.9084983486586881E-018
   2.6799999999999990E-010     3.3890129431647235E-018
   2.7199999999999989E-010     3.7949007503722967E-018
   2.7600000000000008E-010     4.0888294548756644E-018
   2.8000000000000007E-010     4.2317513754738016E-018
   2.8400000000000005E-010     4.1846107659547109E-018
   2.8800000000000004E-010     3.9103768182459244E-018
   2.9200000000000003E-010     3.3763463264446990E-018
   2.9600000000000001E-010     2.5566537663868076E-018
   3.0000000000000000E-010     1.4348869441410091E-018
   3.0399999999999998E-010     6.7024974850879990E-021
   3.0799999999999997E-010    -1.7176979276213578E-018
   3.1199999999999996E-010    -3.7113761880197547E-018
   3.1599999999999994E-010    -5.9289121662442695E-018
   3.1999999999999993E-010    -8.3052614454049840E-018
   3.2399999999999992E-010    -1.0755384481857465E-017
   3.2799999999999990E-010    -1.3174784375998502E-017
   3.3199999999999989E-010    -1.5441083064923324E-017
   3.3600000000000008E-010    -1.7416736129196001E-017
   3.4000000000000007E-010    -1.8952921368909056E-017
   3.4400000000000005E-010    -1.9894636717798626E-017
   3.4800000000000004E-010    -2.0086928086076378E-017
   3.5200000000000003E-010    -1.9382153660568948E-017
   3.5600000000000001E-010    -1.7648098546527083E-017
   3.6000000000000000E-010    -1.4776693251281957E-017
   3.6399999999999998E-010    -1.0693032434463831E-017
   3.6799999999999997E-010    -5.3643150760625251E-018
   3.7199999999999996E-010     1.1917104231087152E-018
   3.7599999999999994E-010     8.8992557073762504E-018
   3.7999999999999993E-010     1.7618439158483382E-017
   3.8399999999999991E-010     2.7141159091514325E-017
   3.8799999999999990E-010     3.7189358743559381E-017
   3.9199999999999989E-010     4.7416103676462782E-017
   3.9599999999999987E-010     5.7409848374422246E-017
   4.0000000000000007E-010     6.6702143912936743E-017
   4.0400000000000005E-010     7.4778960407031119E-017
   4.0800000000000004E-010     8.1095602732061657E-017
   4.1200000000000002E-010     8.5095133490318853E-017
   4.1600000000000001E-010     8.6229972351182404E-017
   4.2000000000000000E-010     8.3986188691350663E-017
   4.2399999999999998E-010     7.7909819173209628E-017
   4.2799999999999997E-010     6.7634402933063607E-017
   4.3199999999999996E-010     5.2908738453770045E-017
   4.3599999999999994E-010     3.3623740464867901E-017
   4.3999999999999993E-010     9.8371800875184899E-018
   4.4399999999999991E-010    -1.8204971424148807E-017
   4.4799999999999990E-010    -5.0051894846028303E-017
   4.5199999999999989E-010    -8.5037244082329942E-017
   4.5599999999999987E-010    -1.2227557191815246E-016
   4.6000000000000007E-010    -1.6066692997086980E-016
   4.6400000000000005E-010    -1.9891038813006265E-016
   4.6800000000000004E-010    -2.3552711951405363E-016
   4.7200000000000002E-010    -2.6889307079538060E-016
   4.7600000000000001E-010    -2.9728159178084529E-016
   4.8000000000000000E-010    -3.1891470737460171E-016
   4.8399999999999998E-010    -3.3202304515917444E-016
   4.8799999999999997E-010    -3.3491222160269966E-016
   4.9199999999999996E-010    -3.2603468104076415E-016
   4.9599999999999994E-010    -3.0406439339444131E-016
   4.9999999999999993E-010    -2.6797229304215597E-016
   5.0399999999999991E-010    -2.1709941482072389E-016
   5.0799999999999990E-010    -1.5122523899628332E-016
   5.1199999999999989E-010    -7.0627982804782815E-017
   5.1599999999999987E-010     2.3866058224480045E-017
   5.2000000000000007E-010     1.3084700271388415E-016
   5.2400000000000005E-010     2.4830225571300019E-016
   5.2800000000000004E-010     3.7361628039674164E-016
   5.3200000000000002E-010     5.0359078623539466E-016
   5.3600000000000001E-010     6.3448670510198274E-016
   5.4000000000000000E-010     7.6208893635317247E-016
   5.4399999999999998E-010     8.8179300888768949E-016
   5.4799999999999997E-010     9.8871350136356699E-016
   5.5199999999999995E-010     1.0778120500522996E-015
   5.5599999999999994E-010     1.1440428267475342E-015
   5.5999999999999993E-010     1.1825116750800355E-015
   5.6399999999999991E-010     1.1886459935631696E-015
   5.6799999999999990E-010     1.1583693302591566E-015
   5.7199999999999989E-010     1.0882767185991528E-015
   5.7599999999999987E-010     9.7580535452212189E-016
   5.8000000000000007E-010     8.1939389160847810E-016
   5.8400000000000005E-010     6.1862596022508676E-016
   5.8800000000000004E-010     3.7435158440429718E-016
   5.9200000000000002E-010     8.8781242205757257E-017
   5.9600000000000001E-010    -2.3445138767104066E-016
   6.0000000000000000E-010    -5.9026269140936209E-016
   6.0399999999999998E-010    -9.7213124323428796E-016
   6.0799999999999997E-010    -1.3721509170254854E-015
   6.1199999999999995E-010    -1.7811258466515290E-015
   6.1599999999999994E-010    -2.1887087835078785E-015
   6.1999999999999993E-010    -2.5835775440677042E-015
   6.2399999999999991E-010    -2.9536536502613965E-015
   6.2799999999999990E-010    -3.2863520983168878E-015
   6.3199999999999989E-010    -3.5688640560057987E-015
   6.3599999999999987E-010    -3.7884624297791596E-015
   6.4000000000000006E-010    -3.9328286077268144E-015
   6.4400000000000005E-010    -3.9903857670421650E-015
   6.4800000000000004E-010    -3.9506412870910987E-015
   6.5200000000000002E-010    -3.8045221744591011E-015
   6.5600000000000001E-010    -3.5447005353612384E-015
   6.6000000000000000E-010    -3.1658987192614060E-015
   6.6399999999999978E-010    -2.6651686279866851E-015
   6.6800000000000017E-010    -2.0421384140732312E-015
   6.7200000000000016E-010    -1.2992187332889300E-015
   6.7600000000000015E-010    -4.4176421028896797E-016
   6.8000000000000013E-010     5.2181427657909730E-016
   6.8400000000000012E-010     1.5799913088206542E-015
   6.8800000000000011E-010     2.7181242808160767E-015
   6.9200000000000009E-010     3.9185099392699541E-015
   6.9600000000000008E-010     5.1605012208182522E-015
   7.0000000000000006E-010     6.4206825349088364E-015
   7.0400000000000005E-010     7.6731062977519922E-015
   7.0800000000000004E-010     8.8895887585772534E-015
   7.1200000000000002E-010     1.0040064482921829E-014
   7.1600000000000001E-010     1.1092994198994705E-014
   7.2000000000000000E-010     1.2015827277665845E-014
   7.2399999999999998E-010     1.2775518422564018E-014
   7.2799999999999997E-010     1.3339087558854931E-014
   7.3199999999999995E-010     1.3674225461798514E-014
   7.3599999999999994E-010     1.3749938348821787E-014
   7.3999999999999993E-010     1.3537228894008446E-014
   7.4399999999999991E-010     1.3009806041708663E-014
   7.4799999999999990E-010     1.2144813454873730E-014
   7.5199999999999988E-010     1.0923579139214372E-014
   7.5599999999999987E-010     9.3323650673590719E-015
   7.5999999999999986E-010     7.3631117208147051E-015
   7.6399999999999984E-010     5.0141699264329674E-015
   7.6799999999999983E-010     2.2909971174930183E-015
   7.7199999999999982E-010    -7.9318928625883101E-016
   7.7599999999999980E-010    -4.2168239318646043E-015
   7.7999999999999979E-010    -7.9494855251445451E-015
   7.8399999999999977E-010    -1.1951491737190092E-014
   7.8800000000000017E-010    -1.6173609624975036E-014
   7.9200000000000016E-010    -2.0556922117787209E-014
   7.9600000000000015E-010    -2.5032845804920378E-014
   8.0000000000000013E-010    -2.9523333376548638E-014
   8.0400000000000012E-010    -3.3941287822837618E-014
   8.0800000000000010E-010    -3.8191194320523134E-014
   8.1200000000000009E-010    -4.2169982512451493E-014
   8.1600000000000008E-010    -4.5768131038542714E-014
   8.2000000000000006E-010    -4.8871053281692237E-014
   8.2400000000000005E-010    -5.1360693177843544E-014
   8.2800000000000004E-010    -5.3117405629131073E-014
   8.3200000000000002E-010    -5.4022063921852978E-014
   8.3600000000000001E-010    -5.3958383984878400E-014
   8.3999999999999999E-010    -5.2815455324093860E-014
   8.4399999999999998E-010    -5.0490444751570898E-014
   8.4799999999999997E-010    -4.6891391594292009E-014
   8.5199999999999995E-010    -4.1940135040016355E-014
   8.5599999999999994E-010    -3.5575244871277265E-014
   8.5999999999999993E-010    -2.7754916623995950E-014
   8.6399999999999991E-010    -1.8459802371591227E-014
   8.6799999999999990E-010    -7.6956712554668467E-015
   8.7199999999999988E-010     4.5041514836168927E-015
   8.7599999999999987E-010     1.8076624995044116E-014
   8.7999999999999986E-010     3.2927213202121192E-014
   8.8399999999999984E-010     4.8928502444306812E-014
   8.8799999999999983E-010     6.5919329456792797E-014
   8.9199999999999981E-010     8.3704473474027763E-014
   8.9599999999999980E-010     1.0205486629388805E-013
   8.9999999999999979E-010     1.2070856467150115E-013
   9.0399999999999977E-010     1.3937225126162828E-013
   9.0799999999999976E-010     1.5772357920586233E-013
   9.1200000000000016E-010     1.7541414013607509E-013
   9.1600000000000015E-010     1.9207313690927652E-013
   9.2000000000000013E-010     2.0731176107388616E-013
   9.2400000000000012E-010     2.2072830217247097E-013
   9.2800000000000010E-010     2.3191385335567805E-013
   9.3200000000000009E-010     2.4045855909725355E-013
   9.3600000000000008E-010     2.4595841856267509E-013
   9.4000000000000006E-010     2.4802265818392455E-013
   9.4400000000000005E-010     2.4628129396964127E-013
   9.4800000000000004E-010     2.4039312749614405E-013
   9.5200000000000002E-010     2.3005382321361623E-013
   9.5600000000000001E-010     2.1500422969777944E-013
   9.5999999999999999E-010     1.9503840274597006E-013
   9.6399999999999998E-010     1.7001177755101432E-013
   9.6799999999999997E-010     1.3984889364170722E-013
   9.7199999999999995E-010     1.0455078778637619E-013
   9.7599999999999994E-010     6.4201871900412821E-014
   9.7999999999999992E-010     1.8976196007884812E-014
   9.8399999999999991E-010    -3.0857074843427049E-014
   9.8799999999999990E-010    -8.4929052722795828E-014
   9.9199999999999988E-010    -1.4276752523245673E-013
   9.9599999999999987E-010    -2.0379447370107162E-013
   9.9999999999999986E-010    -2.6732484498595555E-013
   1.0039999999999998E-009    -3.3256665650516215E-013