 -0.12000000000000000          0.0000000000000000
 -0.11889999999999999          0.0000000000000000
 -0.11780000000000000          0.0000000000000000
 -0.11670000000000000          0.0000000000000000
 -0.11559999999999999          0.0000000000000000
 -0.11449999999999999          0.0000000000000000
 -0.11340000000000000          0.0000000000000000
 -0.11230000000000000         -7.9607089359801764E-027
 -0.11119999999999999         -7.0051527253339510E-019
 -0.11009999999999999         -4.9563297456166706E-018
 -0.10900000000000000         -1.0801446034267481E-017
 -0.10790000000000000          1.9451041261982364E-017
 -0.10679999999999999          1.7707818008903207E-016
 -0.10569999999999999          4.5634381783314182E-016
 -0.10460000000000000          3.3751044222884302E-016
 -0.10349999999999999         -1.3943564151333489E-015
 -0.10239999999999999         -5.3090974813044950E-015
 -0.10130000000000000         -7.9867168583411079E-015
 -0.10020000000000000         -8.8195188050485887E-017
  -9.9099999999999994E-002     2.6687666968916793E-014
  -9.7999999999999990E-002     6.0792320342225453E-014
  -9.6899999999999986E-002     5.5600171005882465E-014
  -9.5799999999999996E-002    -4.8361139447445148E-014
  -9.4699999999999993E-002    -2.4531684192710679E-013
  -9.3599999999999989E-002    -3.8010347365273478E-013
  -9.2499999999999999E-002    -1.8131913884830014E-013
  -9.1399999999999995E-002     4.9725880964940350E-013
  -9.0299999999999991E-002     1.3401430572906881E-012
  -8.9200000000000002E-002     1.5009229753157327E-012
  -8.8099999999999984E-002     1.4474093581670622E-013
  -8.6999999999999994E-002    -2.5503345095490015E-012
  -8.5899999999999990E-002    -4.7917715802203720E-012
  -8.4799999999999986E-002    -3.9843714265408448E-012
  -8.3699999999999997E-002     1.0214249151346833E-012
  -8.2599999999999993E-002     7.8916508744475422E-012
  -8.1499999999999989E-002     1.1359407338373817E-011
  -8.0399999999999999E-002     7.0989264813747788E-012
  -7.9299999999999995E-002    -3.7091016022450241E-012
  -7.8199999999999992E-002    -1.3751964844654907E-011
  -7.7100000000000002E-002    -1.5120408397573115E-011
  -7.5999999999999984E-002    -7.1552434116606278E-012
  -7.4899999999999994E-002     1.4806663924463170E-012
  -7.3799999999999991E-002     1.1140554624644583E-012
  -7.2699999999999987E-002    -6.1668552209237504E-012
  -7.1599999999999997E-002    -3.3749491916423846E-012
  -7.0499999999999993E-002     2.5861569830087916E-011
  -6.9399999999999989E-002     7.2509248605356902E-011
  -6.8300000000000000E-002     9.3549806789994250E-011
  -6.7199999999999996E-002     3.9113410427171758E-011
  -6.6099999999999992E-002    -9.6215521661058290E-011
  -6.5000000000000002E-002    -2.4150065280892363E-010
  -6.3899999999999985E-002    -2.7892949061580907E-010
  -6.2799999999999995E-002    -1.3036158263979303E-010
  -6.1699999999999991E-002     1.6145140779855183E-010
  -6.0599999999999994E-002     4.3348419298538943E-010
  -5.9499999999999990E-002     5.0459603162522626E-010
  -5.8399999999999994E-002     3.0942565176772518E-010
  -5.7299999999999990E-002    -4.7209403053471988E-011
  -5.6199999999999986E-002    -3.6953512472237549E-010
  -5.5099999999999996E-002    -5.2052845367356326E-010
  -5.3999999999999992E-002    -5.0784865202047058E-010
  -5.2899999999999989E-002    -4.2501666075445144E-010
  -5.1799999999999985E-002    -3.0872590595087956E-010
  -5.0699999999999995E-002    -7.0015736264306128E-011
  -4.9599999999999991E-002     4.0068071083254608E-010
  -4.8499999999999988E-002     1.0331850930356268E-009
  -4.7399999999999998E-002     1.4922180158194465E-009
  -4.6299999999999994E-002     1.3520526920274278E-009
  -4.5199999999999990E-002     4.4152853595491592E-010
  -4.4099999999999986E-002    -9.2596563749935967E-010
  -4.2999999999999997E-002    -2.0745958284607013E-009
  -4.1899999999999993E-002    -2.3926212122660218E-009
  -4.0799999999999989E-002    -1.7383696704342810E-009
  -3.9699999999999985E-002    -4.9712389760259157E-010
  -3.8599999999999995E-002     7.4299821850587477E-010
  -3.7499999999999992E-002     1.5953480758668093E-009
  -3.6399999999999988E-002     2.0066781569738623E-009
  -3.5299999999999984E-002     2.0511319309690634E-009
  -3.4199999999999994E-002     1.6686020343215091E-009
  -3.3099999999999991E-002     6.8443350986768792E-010
  -3.1999999999999987E-002    -8.6381157782255968E-010
  -3.0899999999999997E-002    -2.4397859288427526E-009
  -2.9799999999999993E-002    -3.1495150931704075E-009
  -2.8699999999999989E-002    -2.3232913370918595E-009
  -2.7599999999999986E-002    -1.0295636565516020E-010
  -2.6499999999999996E-002     2.4770412387908891E-009
  -2.5399999999999992E-002     4.0275338619721879E-009
  -2.4299999999999988E-002     3.5631202432995224E-009
  -2.3199999999999985E-002     9.4126761940316328E-010
  -2.2099999999999995E-002    -3.2121860726874729E-009
  -2.0999999999999991E-002    -7.8199553499302965E-009
  -1.9899999999999987E-002    -1.1530076449162152E-008
  -1.8799999999999983E-002    -1.2693360140758614E-008
  -1.7699999999999994E-002    -9.4386098936638518E-009
  -1.6599999999999990E-002    -8.4834805846867312E-011
  -1.5499999999999986E-002     1.6322417195624439E-008
  -1.4399999999999996E-002     3.9899038739577009E-008
  -1.3299999999999992E-002     7.0540394858653599E-008
  -1.2199999999999989E-002     1.0889102952660323E-007
  -1.1099999999999985E-002     1.5684459242493176E-007
  -9.9999999999999950E-003     2.1709759323584876E-007
  -8.8999999999999913E-003     2.9219751240816549E-007
  -7.7999999999999875E-003     3.8414304981415626E-007
  -6.6999999999999837E-003     4.9522316203365335E-007
  -5.5999999999999939E-003     6.2966068981040735E-007
  -4.4999999999999901E-003     7.9478434145130450E-007
  -3.3999999999999864E-003     1.0007493074226659E-006
  -2.2999999999999826E-003     1.2590732012540684E-006
  -1.1999999999999927E-003     1.5813245681783883E-006
  -9.9999999999988987E-005     1.9792028069787193E-006
   1.0000000000000148E-003     2.4660710096213734E-006
   2.1000000000000185E-003     3.0588466870540287E-006
   3.2000000000000084E-003     3.7790919122926425E-006
   4.3000000000000121E-003     4.6531017687811982E-006
   5.4000000000000159E-003     5.7117895266856067E-006
   6.5000000000000058E-003     6.9911852733639535E-006
   7.6000000000000234E-003     8.5335805124486797E-006
   8.7000000000000133E-003     1.0388612281531096E-005
   9.8000000000000032E-003     1.2613795661309268E-005
   1.0900000000000021E-002     1.5274830730049871E-005
   1.2000000000000011E-002     1.8446567992214113E-005
   1.3100000000000001E-002     2.2215002900338732E-005
   1.4200000000000018E-002     2.6679710572352633E-005
   1.5300000000000008E-002     3.1955645681591704E-005
   1.6400000000000026E-002     3.8173940993146971E-005
   1.7500000000000016E-002     4.5482400309992954E-005
   1.8600000000000005E-002     5.4046820878284052E-005
   1.9700000000000023E-002     6.4053339883685112E-005
   2.0800000000000013E-002     7.5710930104833096E-005
   2.1900000000000003E-002     8.9252906036563218E-005
   2.3000000000000020E-002     1.0493722948012874E-004
   2.4100000000000010E-002     1.2304700794629753E-004
   2.5200000000000000E-002     1.4389221905730665E-004
   2.6300000000000018E-002     1.6781270096544176E-004
   2.7400000000000008E-002     1.9518050248734653E-004
   2.8500000000000025E-002     2.2640012321062386E-004
   2.9600000000000015E-002     2.6190656353719532E-004
   3.0700000000000005E-002     3.0216274899430573E-004
   3.1800000000000023E-002     3.4765797317959368E-004
   3.2900000000000013E-002     3.9890813059173524E-004
   3.4000000000000002E-002     4.5645545469596982E-004
   3.5100000000000020E-002     5.2086624782532454E-004
   3.6200000000000010E-002     5.9272628277540207E-004
   3.7300000000000028E-002     6.7263410892337561E-004
   3.8400000000000017E-002     7.6119432924315333E-004
   3.9500000000000007E-002     8.5901108104735613E-004
   4.0600000000000025E-002     9.6667959587648511E-004
   4.1700000000000015E-002     1.0847770608961582E-003
   4.2800000000000005E-002     1.2138516176491976E-003
   4.3900000000000022E-002     1.3544111279770732E-003
   4.5000000000000012E-002     1.5069114742800593E-003
   4.6100000000000002E-002     1.6717443941161036E-003
   4.7200000000000020E-002     1.8492237431928515E-003
   4.8300000000000010E-002     2.0395682659000158E-003
   4.9400000000000027E-002     2.2428843658417463E-003
   5.0500000000000017E-002     2.4591516703367233E-003
   5.1600000000000007E-002     2.6882088277488947E-003
   5.2700000000000025E-002     2.9297405853867531E-003
   5.3800000000000014E-002     3.1832607928663492E-003
   5.4900000000000004E-002     3.4480977337807417E-003
   5.6000000000000022E-002     3.7233794573694468E-003
   5.7100000000000012E-002     4.0080235339701176E-003
   5.8200000000000002E-002     4.3007316999137402E-003
   5.9300000000000019E-002     4.5999842695891857E-003
   6.0400000000000009E-002     4.9040387384593487E-003
   6.1500000000000027E-002     5.2109262906014919E-003
   6.2600000000000017E-002     5.5184559896588326E-003
   6.3700000000000007E-002     5.8242245577275753E-003
   6.4800000000000024E-002     6.1256270855665207E-003
   6.5900000000000014E-002     6.4198742620646954E-003
   6.7000000000000004E-002     6.7040110006928444E-003
   6.8100000000000022E-002     6.9749359972774982E-003
   6.9200000000000012E-002     7.2294361889362335E-003
   7.0300000000000029E-002     7.4642207473516464E-003
   7.1400000000000019E-002     7.6759625226259232E-003
   7.2500000000000009E-002     7.8613385558128357E-003
   7.3600000000000027E-002     8.0170640721917152E-003
   7.4700000000000016E-002     8.1399427726864815E-003
   7.5800000000000006E-002     8.2269143313169479E-003
   7.6900000000000024E-002     8.2751074805855751E-003
   7.8000000000000014E-002     8.2818903028964996E-003
   7.9100000000000004E-002     8.2449121400713921E-003
   8.0200000000000021E-002     8.1621482968330383E-003
   8.1300000000000011E-002     8.0319466069340706E-003
   8.2400000000000029E-002     7.8530646860599518E-003
   8.3500000000000019E-002     7.6247085817158222E-003
   8.4600000000000009E-002     7.3465700261294842E-003
   8.5700000000000026E-002     7.0188422687351704E-003
   8.6800000000000016E-002     6.6422321833670139E-003
   8.7900000000000006E-002     6.2179681845009327E-003
   8.9000000000000024E-002     5.7478044182062149E-003
   9.0100000000000013E-002     5.2340147085487843E-003
   9.1200000000000003E-002     4.6793762594461441E-003
   9.2300000000000021E-002     4.0871375240385532E-003
   9.3400000000000011E-002     3.4609800204634666E-003
   9.4500000000000028E-002     2.8049764223396778E-003
   9.5600000000000018E-002     2.1235456224530935E-003
   9.6700000000000008E-002     1.4213961549103260E-003
   9.7800000000000026E-002     7.0346344728022814E-004
   9.8900000000000016E-002    -2.5165947590721771E-005
  0.10000000000000001         -7.5933325570076704E-004
  0.10110000000000002         -1.4938844833523035E-003
  0.10220000000000001         -2.2237417288124561E-003
  0.10330000000000003         -2.9439739882946014E-003
  0.10440000000000002         -3.6498731933534145E-003
  0.10550000000000001         -4.3370332568883896E-003
  0.10660000000000003         -5.0014271400868893E-003
  0.10770000000000002         -5.6394645944237709E-003
  0.10880000000000001         -6.2480387277901173E-003
  0.10990000000000003         -6.8245632573962212E-003
  0.11100000000000002         -7.3670144192874432E-003
  0.11210000000000001         -7.8739672899246216E-003
  0.11320000000000002         -8.3446269854903221E-003
  0.11430000000000001         -8.7788198143243790E-003
  0.11540000000000003         -9.1769834980368614E-003
  0.11650000000000002         -9.5401350408792496E-003
  0.11760000000000001         -9.8698381334543228E-003
  0.11870000000000003         -1.0168183594942093E-002
  0.11980000000000002         -1.0437738150358200E-002
  0.12090000000000001         -1.0681482963263988E-002
  0.12200000000000003         -1.0902734473347664E-002
  0.12310000000000001         -1.1105052195489407E-002
  0.12420000000000003         -1.1292157694697380E-002
  0.12530000000000002         -1.1467861942946911E-002
  0.12640000000000001         -1.1635989882051945E-002
  0.12750000000000003         -1.1800283566117287E-002
  0.12860000000000002         -1.1964283883571625E-002
  0.12970000000000001         -1.2131227180361748E-002
  0.13080000000000003         -1.2303967960178852E-002
  0.13190000000000002         -1.2484912760555744E-002
  0.13300000000000001         -1.2675961479544640E-002
  0.13410000000000000         -1.2878434732556343E-002
  0.13520000000000004         -1.3092989102005959E-002
  0.13630000000000003         -1.3319559395313263E-002
  0.13740000000000002         -1.3557333499193192E-002
  0.13850000000000001         -1.3804757967591286E-002
  0.13960000000000000         -1.4059543609619141E-002
  0.14070000000000005         -1.4318666420876980E-002
  0.14180000000000004         -1.4578357338905334E-002
  0.14290000000000003         -1.4834123663604259E-002
  0.14400000000000002         -1.5080822631716728E-002
  0.14510000000000001         -1.5312753617763519E-002
  0.14620000000000000         -1.5523751266300678E-002
  0.14730000000000004         -1.5707256272435188E-002
  0.14840000000000003         -1.5856390818953514E-002
  0.14950000000000002         -1.5964061021804810E-002
  0.15060000000000001         -1.6023097559809685E-002
  0.15170000000000000         -1.6026418656110764E-002
  0.15280000000000005         -1.5967162325978279E-002
  0.15390000000000004         -1.5838799998164177E-002
  0.15500000000000003         -1.5635248273611069E-002
  0.15610000000000002         -1.5350982546806335E-002
  0.15720000000000001         -1.4981193467974663E-002
  0.15830000000000000         -1.4521923847496510E-002
  0.15940000000000004         -1.3970172032713890E-002
  0.16050000000000003         -1.3323971070349216E-002
  0.16160000000000002         -1.2582443654537201E-002
  0.16270000000000001         -1.1745874769985676E-002
  0.16380000000000000         -1.0815771296620369E-002
  0.16490000000000005         -9.7949169576168060E-003
  0.16600000000000004         -8.6873639374971390E-003
  0.16710000000000003         -7.4984007515013218E-003
  0.16820000000000002         -6.2344921752810478E-003
  0.16930000000000001         -4.9032298848032951E-003
  0.17040000000000000         -3.5132837947458029E-003
  0.17150000000000004         -2.0743175409734249E-003
  0.17260000000000003         -5.9686513850465417E-004
  0.17370000000000002          9.0782169718295336E-004
  0.17480000000000001          2.4279297795146704E-003
  0.17590000000000000          3.9512268267571926E-003
  0.17700000000000005          5.4652029648423195E-003
  0.17810000000000004          6.9572338834404945E-003
  0.17920000000000003          8.4147686138749123E-003
  0.18030000000000002          9.8255276679992676E-003
  0.18140000000000001          1.1177679523825645E-002
  0.18250000000000000          1.2459989637136459E-002
  0.18360000000000004          1.3661943376064301E-002
  0.18470000000000003          1.4773884788155556E-002
  0.18580000000000002          1.5787161886692047E-002
  0.18690000000000001          1.6694249585270882E-002
  0.18800000000000000          1.7488859593868256E-002
  0.18910000000000005          1.8165979534387589E-002
  0.19020000000000004          1.8721910193562508E-002
  0.19130000000000003          1.9154295325279236E-002
  0.19240000000000002          1.9462151452898979E-002
  0.19350000000000001          1.9645867869257927E-002
  0.19460000000000005          1.9707160070538521E-002
  0.19570000000000004          1.9648997113108635E-002
  0.19680000000000003          1.9475508481264114E-002
  0.19790000000000002          1.9191926345229149E-002
  0.19900000000000001          1.8804479390382767E-002
  0.20010000000000000          1.8320305272936821E-002
  0.20120000000000005          1.7747301608324051E-002
  0.20230000000000004          1.7093969509005547E-002
  0.20340000000000003          1.6369286924600601E-002
  0.20450000000000002          1.5582582913339138E-002
  0.20560000000000000          1.4743425883352757E-002
  0.20670000000000005          1.3861475512385368E-002
  0.20780000000000004          1.2946338392794132E-002
  0.20890000000000003          1.2007427401840687E-002
