 -0.12000000000000000          0.0000000000000000
 -0.11889999999999999          0.0000000000000000
 -0.11780000000000000          0.0000000000000000
 -0.11670000000000000          0.0000000000000000
 -0.11559999999999999          0.0000000000000000
 -0.11449999999999999          0.0000000000000000
 -0.11340000000000000         -6.6682031140742725E-022
 -0.11230000000000000          1.6070426974382575E-021
 -0.11119999999999999         -6.0626949301458263E-020
 -0.11009999999999999         -4.1899515609772360E-019
 -0.10900000000000000         -6.5351828224815885E-019
 -0.10790000000000000          1.7326119940656889E-018
 -0.10679999999999999          6.7932811647764562E-018
 -0.10569999999999999         -2.2461378158550671E-018
 -0.10460000000000000         -5.2922439873436374E-017
 -0.10349999999999999         -1.0262320316688082E-016
 -0.10239999999999999          5.5758392207627477E-017
 -0.10130000000000000          6.0250607620589017E-016
 -0.10020000000000000          1.0230379233642714E-015
  -9.9099999999999994E-002    -2.7663598425468937E-016
  -9.7999999999999990E-002    -4.3372461824592746E-015
  -9.6899999999999986E-002    -7.7672675623664637E-015
  -9.5799999999999996E-002    -1.3464185854834918E-015
  -9.4699999999999993E-002     2.1124808581010276E-014
  -9.3599999999999989E-002     4.4602671301361210E-014
  -9.2499999999999999E-002     2.6409071056301275E-014
  -9.1399999999999995E-002    -6.8268253463482642E-014
  -9.0299999999999991E-002    -1.9365389012423323E-013
  -8.9200000000000002E-002    -1.8944336388233146E-013
  -8.8099999999999984E-002     1.0952545294318217E-013
  -8.6999999999999994E-002     6.2475442571055528E-013
  -8.5899999999999990E-002     8.7240728963849934E-013
  -8.4799999999999986E-002     2.1803904710383792E-013
  -8.3699999999999997E-002    -1.4029301808812789E-012
  -8.2599999999999993E-002    -2.8565750025827397E-012
  -8.1499999999999989E-002    -2.1933895671955028E-012
  -8.0399999999999999E-002     1.6121481320047204E-012
  -7.9299999999999995E-002     6.6886262153897924E-012
  -7.8199999999999992E-002     8.2993889538585108E-012
  -7.7100000000000002E-002     2.2328809808069838E-012
  -7.5999999999999984E-002    -1.0184308257832342E-011
  -7.4899999999999994E-002    -2.0120696775371982E-011
  -7.3799999999999991E-002    -1.6231571642322251E-011
  -7.2699999999999987E-002     5.0484763938762889E-012
  -7.1599999999999997E-002     3.2116902887180387E-011
  -7.0499999999999993E-002     4.2675304262607128E-011
  -6.9399999999999989E-002     2.0590357543981419E-011
  -6.8300000000000000E-002    -2.6731641206145795E-011
  -6.7199999999999996E-002    -6.7194756703248260E-011
  -6.6099999999999992E-002    -6.5427926965178074E-011
  -6.5000000000000002E-002    -1.3079421226636079E-011
  -6.3899999999999985E-002     5.7983201573463816E-011
  -6.2799999999999995E-002     9.5632342322904407E-011
  -6.1699999999999991E-002     6.8791819463065451E-011
  -6.0599999999999994E-002    -4.1202822403940687E-012
  -5.9499999999999990E-002    -6.7542971216028036E-011
  -5.8399999999999994E-002    -7.5477721295236222E-011
  -5.7299999999999990E-002    -3.2492758483826378E-011
  -5.6199999999999986E-002     1.0624496074584933E-011
  -5.5099999999999996E-002     6.8849908413382011E-012
  -5.3999999999999992E-002    -3.5977682638632658E-011
  -5.2899999999999989E-002    -5.5350665023601309E-011
  -5.1799999999999985E-002     7.4270312122592941E-012
  -5.0699999999999995E-002     1.3873746596004821E-010
  -4.9599999999999991E-002     2.4157650879708115E-010
  -4.8499999999999988E-002     2.0351437202137390E-010
  -4.7399999999999998E-002    -5.3823057122315277E-012
  -4.6299999999999994E-002    -2.8696356402235779E-010
  -4.5199999999999990E-002    -4.6664211383884435E-010
  -4.4099999999999986E-002    -4.0941328105503771E-010
  -4.2999999999999997E-002    -1.1566735069745704E-010
  -4.1899999999999993E-002     2.7150859338576083E-010
  -4.0799999999999989E-002     5.4976523333749583E-010
  -3.9699999999999985E-002     5.7429894173566254E-010
  -3.8599999999999995E-002     3.3806865640251260E-010
  -3.7499999999999992E-002    -2.5226910838060945E-011
  -3.6399999999999988E-002    -3.1571051328782573E-010
  -3.5299999999999984E-002    -3.8694875081901614E-010
  -3.4199999999999994E-002    -2.5118063184947914E-010
  -3.3099999999999991E-002    -9.5195587523910774E-011
  -3.1999999999999987E-002    -1.5822343435445418E-010
  -3.0899999999999997E-002    -5.1338988615867720E-010
  -2.9799999999999993E-002    -9.0639407090975510E-010
  -2.8699999999999989E-002    -8.3232698511181979E-010
  -2.7599999999999986E-002     1.0660711202703510E-010
  -2.6499999999999996E-002     1.7661305751204281E-009
  -2.5399999999999992E-002     3.3077989236574012E-009
  -2.4299999999999988E-002     3.5703902057093728E-009
  -2.3199999999999985E-002     1.8310617466710255E-009
  -2.2099999999999995E-002    -1.5384102880489081E-009
  -2.0999999999999991E-002    -5.0434301179791419E-009
  -1.9899999999999987E-002    -6.8013195075877775E-009
  -1.8799999999999983E-002    -5.6315294649778025E-009
  -1.7699999999999994E-002    -1.8125096978849342E-009
  -1.6599999999999990E-002     2.9821221048109692E-009
  -1.5499999999999986E-002     6.5301266616302200E-009
  -1.4399999999999996E-002     7.1955565950077016E-009
  -1.3299999999999992E-002     4.7584789442112196E-009
  -1.2199999999999989E-002     5.7804039332864932E-010
  -1.1099999999999985E-002    -2.9487674524375507E-009
  -9.9999999999999950E-003    -3.4390033043507628E-009
  -8.8999999999999913E-003     2.5179724971735595E-010
  -7.7999999999999875E-003     7.0966845733266837E-009
  -6.6999999999999837E-003     1.3756872085934901E-008
  -5.5999999999999939E-003     1.5491277594037456E-008
  -4.4999999999999901E-003     7.8055109042907134E-009
  -3.3999999999999864E-003    -1.2045219932588225E-008
  -2.2999999999999826E-003    -4.4654214548245363E-008
  -1.1999999999999927E-003    -8.9459362584420887E-008
  -9.9999999999988987E-005    -1.4645083012965188E-007
   1.0000000000000148E-003    -2.1738567568263534E-007
   2.1000000000000185E-003    -3.0574133802474535E-007
   3.2000000000000084E-003    -4.1571340148038871E-007
   4.3000000000000121E-003    -5.5136467835836811E-007
   5.4000000000000159E-003    -7.1686793035041774E-007
   6.5000000000000058E-003    -9.1782351319125155E-007
   7.6000000000000234E-003    -1.1627577123363153E-006
   8.7000000000000133E-003    -1.4638634411312523E-006
   9.8000000000000032E-003    -1.8367779830441577E-006
   1.0900000000000021E-002    -2.2999338398221880E-006
   1.2000000000000011E-002    -2.8741394544340437E-006
   1.3100000000000001E-002    -3.5826490147883305E-006
   1.4200000000000018E-002    -4.4516555135487579E-006
   1.5300000000000008E-002    -5.5112509471655358E-006
   1.6400000000000026E-002    -6.7971059252158739E-006
   1.7500000000000016E-002    -8.3528202594607137E-006
   1.8600000000000005E-002    -1.0232156455458608E-005
   1.9700000000000023E-002    -1.2499957847467158E-005
   2.0800000000000013E-002    -1.5231363249768037E-005
   2.1900000000000003E-002    -1.8510581867303699E-005
   2.3000000000000020E-002    -2.2431559045799077E-005
   2.4100000000000010E-002    -2.7101945306640118E-005
   2.5200000000000000E-002    -3.2649331842549145E-005
   2.6300000000000018E-002    -3.9226521039381623E-005
   2.7400000000000008E-002    -4.7012988943606615E-005
   2.8500000000000025E-002    -5.6212484196294099E-005
   2.9600000000000015E-002    -6.7049782956019044E-005
   3.0700000000000005E-002    -7.9770317825023085E-005
   3.1800000000000023E-002    -9.4644448836334050E-005
   3.2900000000000013E-002    -1.1197469575563446E-004
   3.4000000000000002E-002    -1.3210281031206250E-004
   3.5100000000000020E-002    -1.5541438187938184E-004
   3.6200000000000010E-002    -1.8234085291624069E-004
   3.7300000000000028E-002    -2.1336009376682341E-004
   3.8400000000000017E-002    -2.4899590061977506E-004
   3.9500000000000007E-002    -2.8981646755710244E-004
   4.0600000000000025E-002    -3.3643268398009241E-004
   4.1700000000000015E-002    -3.8949702866375446E-004
   4.2800000000000005E-002    -4.4970490853302181E-004
   4.3900000000000022E-002    -5.1779771456494927E-004
   4.5000000000000012E-002    -5.9456448070704937E-004
   4.6100000000000002E-002    -6.8083871155977249E-004
   4.7200000000000020E-002    -7.7748950570821762E-004
   4.8300000000000010E-002    -8.8540988508611917E-004
   4.9400000000000027E-002    -1.0055082384496927E-003
   5.0500000000000017E-002    -1.1387030826881528E-003
   5.1600000000000007E-002    -1.2859182897955179E-003
   5.2700000000000025E-002    -1.4480743557214737E-003
   5.3800000000000014E-002    -1.6260702395811677E-003
   5.4900000000000004E-002    -1.8207619432359934E-003
   5.6000000000000022E-002    -2.0329412072896957E-003
   5.7100000000000012E-002    -2.2633185144513845E-003
   5.8200000000000002E-002    -2.5125083047896624E-003
   5.9300000000000019E-002    -2.7810100000351667E-003
   6.0400000000000009E-002    -3.0691840220242739E-003
   6.1500000000000027E-002    -3.3772240858525038E-003
   6.2600000000000017E-002    -3.7051297258585691E-003
   6.3700000000000007E-002    -4.0526837110519409E-003
   6.4800000000000024E-002    -4.4194315560162067E-003
   6.5900000000000014E-002    -4.8046591691672802E-003
   6.7000000000000004E-002    -5.2073667757213116E-003
   6.8100000000000022E-002    -5.6262495927512646E-003
   6.9200000000000012E-002    -6.0596778057515621E-003
   7.0300000000000029E-002    -6.5056909807026386E-003
   7.1400000000000019E-002    -6.9619896821677685E-003
   7.2500000000000009E-002    -7.4259317480027676E-003
   7.3600000000000027E-002    -7.8945234417915344E-003
   7.4700000000000016E-002    -8.3644203841686249E-003
   7.5800000000000006E-002    -8.8319368660449982E-003
   7.6900000000000024E-002    -9.2930737882852554E-003
   7.8000000000000014E-002    -9.7435424104332924E-003
   7.9100000000000004E-002    -1.0178797878324986E-002
   8.0200000000000021E-002    -1.0594072751700878E-002
   8.1300000000000011E-002    -1.0984413325786591E-002
   8.2400000000000029E-002    -1.1344733648002148E-002
   8.3500000000000019E-002    -1.1669877916574478E-002
   8.4600000000000009E-002    -1.1954693123698235E-002
   8.5700000000000026E-002    -1.2194093316793442E-002
   8.6800000000000016E-002    -1.2383120134472847E-002
   8.7900000000000006E-002    -1.2517017312347889E-002
   8.9000000000000024E-002    -1.2591303326189518E-002
   9.0100000000000013E-002    -1.2601860798895359E-002
   9.1200000000000003E-002    -1.2545020319521427E-002
   9.2300000000000021E-002    -1.2417630292475224E-002
   9.3400000000000011E-002    -1.2217116542160511E-002
   9.4500000000000028E-002    -1.1941545642912388E-002
   9.5600000000000018E-002    -1.1589680798351765E-002
   9.6700000000000008E-002    -1.1161043308675289E-002
   9.7800000000000026E-002    -1.0655958205461502E-002
   9.8900000000000016E-002    -1.0075581260025501E-002
  0.10000000000000001         -9.4219036400318146E-003
  0.10110000000000002         -8.6977528408169746E-003
  0.10220000000000001         -7.9067917540669441E-003
  0.10330000000000003         -7.0534986443817616E-003
  0.10440000000000002         -6.1431401409208775E-003
  0.10550000000000001         -5.1817130297422409E-003
  0.10660000000000003         -4.1758683510124683E-003
  0.10770000000000002         -3.1328359618782997E-003
  0.10880000000000001         -2.0603467710316181E-003
  0.10990000000000003         -9.6654624212533236E-004
  0.11100000000000002          1.4011206803843379E-004
  0.11210000000000001          1.2509911321103573E-003
  0.11320000000000002          2.3574037477374077E-003
  0.11430000000000001          3.4507338423281908E-003
  0.11540000000000003          4.5225466601550579E-003
  0.11650000000000002          5.5646989494562149E-003
  0.11760000000000001          6.5694600343704224E-003
  0.11870000000000003          7.5296377763152122E-003
  0.11980000000000002          8.4386998787522316E-003
  0.12090000000000001          9.2908637598156929E-003
  0.12200000000000003          1.0081165470182896E-002
  0.12310000000000001          1.0805520229041576E-002
  0.12420000000000003          1.1460791341960430E-002
  0.12530000000000002          1.2044851668179035E-002
  0.12640000000000001          1.2556629255414009E-002
  0.12750000000000003          1.2996113859117031E-002
  0.12860000000000002          1.3364330865442753E-002
  0.12970000000000001          1.3663304969668388E-002
  0.13080000000000003          1.3896034099161625E-002
  0.13190000000000002          1.4066463336348534E-002
  0.13300000000000001          1.4179431833326817E-002
  0.13410000000000000          1.4240578748285770E-002
  0.13520000000000004          1.4256232418119907E-002
  0.13630000000000003          1.4233300462365150E-002
  0.13740000000000002          1.4179171063005924E-002
  0.13850000000000001          1.4101625420153141E-002
  0.13960000000000000          1.4008713886141777E-002
  0.14070000000000005          1.3908618129789829E-002
  0.14180000000000004          1.3809487223625183E-002
  0.14290000000000003          1.3719302602112293E-002
  0.14400000000000002          1.3645769096910954E-002
  0.14510000000000001          1.3596216216683388E-002
  0.14620000000000000          1.3577478006482124E-002
  0.14730000000000004          1.3595752418041229E-002
  0.14840000000000003          1.3656461611390114E-002
  0.14950000000000002          1.3764152303338051E-002
  0.15060000000000001          1.3922424055635929E-002
  0.15170000000000000          1.4133885502815247E-002
  0.15280000000000005          1.4400075189769268E-002
  0.15390000000000004          1.4721383340656757E-002
  0.15500000000000003          1.5096978284418583E-002
  0.15610000000000002          1.5524782240390778E-002
  0.15720000000000001          1.6001503914594650E-002
  0.15830000000000000          1.6522664576768875E-002
  0.15940000000000004          1.7082605510950089E-002
  0.16050000000000003          1.7674494534730911E-002
  0.16160000000000002          1.8290350213646889E-002
  0.16270000000000001          1.8921133130788803E-002
  0.16380000000000000          1.9556879997253418E-002
  0.16490000000000005          2.0186822861433029E-002
  0.16600000000000004          2.0799504593014717E-002
  0.16710000000000003          2.1382873877882957E-002
  0.16820000000000002          2.1924410015344620E-002
  0.16930000000000001          2.2411307319998741E-002
  0.17040000000000000          2.2830685600638390E-002
  0.17150000000000004          2.3169806227087975E-002
  0.17260000000000003          2.3416234180331230E-002
  0.17370000000000002          2.3557996377348900E-002
  0.17480000000000001          2.3583739995956421E-002
  0.17590000000000000          2.3482957854866982E-002
  0.17700000000000005          2.3246221244335175E-002
  0.17810000000000004          2.2865379229187965E-002
  0.17920000000000003          2.2333707660436630E-002
  0.18030000000000002          2.1646007895469666E-002
  0.18140000000000001          2.0798731595277786E-002
  0.18250000000000000          1.9790120422840118E-002
  0.18360000000000004          1.8620345741510391E-002
  0.18470000000000003          1.7291583120822906E-002
  0.18580000000000002          1.5808027237653732E-002
  0.18690000000000001          1.4175854623317719E-002
  0.18800000000000000          1.2403185479342937E-002
  0.18910000000000005          1.0500052012503147E-002
  0.19020000000000004          8.4783602505922318E-003
  0.19130000000000003          6.3517899252474308E-003
  0.19240000000000002          4.1356133297085762E-003
  0.19350000000000001          1.8464848399162292E-003
  0.19460000000000005         -4.9777014646679163E-004
  0.19570000000000004         -2.8783453162759542E-003
  0.19680000000000003         -5.2756564691662788E-003
  0.19790000000000002         -7.6695932075381279E-003
  0.19900000000000001         -1.0039812885224819E-002
  0.20010000000000000         -1.2366052716970444E-002
  0.20120000000000005         -1.4628401957452297E-002
  0.20230000000000004         -1.6807539388537407E-002
  0.20340000000000003         -1.8884958699345589E-002
  0.20450000000000002         -2.0843204110860825E-002
  0.20560000000000000         -2.2666150704026222E-002
  0.20670000000000005         -2.4339238181710243E-002
  0.20780000000000004         -2.5849651545286179E-002
  0.20890000000000003         -2.7186430990695953E-002
