 -0.12000000000000000          0.0000000000000000
 -0.11889999999999999          0.0000000000000000
 -0.11780000000000000          0.0000000000000000
 -0.11670000000000000          0.0000000000000000
 -0.11559999999999999          5.0858319292079734E-013
 -0.11449999999999999          1.7094474707296525E-012
 -0.11340000000000000          1.4868434174836187E-013
 -0.11230000000000000         -1.0690955933034818E-011
 -0.11119999999999999         -2.8100254761964649E-011
 -0.11009999999999999         -2.6439739286843178E-011
 -0.10900000000000000          2.8020533809902659E-011
 -0.10790000000000000          1.2394574255836233E-010
 -0.10679999999999999          1.6585589845963256E-010
 -0.10569999999999999          3.1352753726565652E-011
 -0.10460000000000000         -2.7475921537956083E-010
 -0.10349999999999999         -5.1763676678362458E-010
 -0.10239999999999999         -3.6503480793648180E-010
 -0.10130000000000000          2.6376248407622427E-010
 -0.10020000000000000          9.5316288195590460E-010
  -9.9099999999999994E-002     1.0160002839043614E-009
  -9.7999999999999990E-002     1.5046924817241347E-010
  -9.6899999999999986E-002    -1.0573012465542320E-009
  -9.5799999999999996E-002    -1.4461347674910030E-009
  -9.4699999999999993E-002    -3.7779324113529356E-010
  -9.3599999999999989E-002     1.3413328225908572E-009
  -9.2499999999999999E-002     1.8383673472399664E-009
  -9.1399999999999995E-002    -9.3234642228878783E-011
  -9.0299999999999991E-002    -3.3489528927788115E-009
  -8.9200000000000002E-002    -4.7865009733527586E-009
  -8.8099999999999984E-002    -1.7642236560533320E-009
  -8.6999999999999994E-002     4.9878803309866271E-009
  -8.5899999999999990E-002     1.0967029062669553E-008
  -8.4799999999999986E-002     1.0985427678633641E-008
  -8.3699999999999997E-002     3.5710967516422443E-009
  -8.2599999999999993E-002    -7.1651182764753685E-009
  -8.1499999999999989E-002    -1.4266708703303266E-008
  -8.0399999999999999E-002    -1.3328170567206143E-008
  -7.9299999999999995E-002    -5.9484550618549292E-009
  -7.8199999999999992E-002     1.9429917674784747E-009
  -7.7100000000000002E-002     5.5268367660232798E-009
  -7.5999999999999984E-002     5.3458668602957005E-009
  -7.4899999999999994E-002     6.2821752244701656E-009
  -7.3799999999999991E-002     1.1984928605102141E-008
  -7.2699999999999987E-002     1.9878207524470781E-008
  -7.1599999999999997E-002     2.1646888725967983E-008
  -7.0499999999999993E-002     9.2058174416820293E-009
  -6.9399999999999989E-002    -1.8982138527690040E-008
  -6.8300000000000000E-002    -5.6934268855002301E-008
  -6.7199999999999996E-002    -9.6537974059174303E-008
  -6.6099999999999992E-002    -1.3464163828302844E-007
  -6.5000000000000002E-002    -1.7574942035025742E-007
  -6.3899999999999985E-002    -2.2834245783087681E-007
  -6.2799999999999995E-002    -2.9866581030546513E-007
  -6.1699999999999991E-002    -3.8793501744294190E-007
  -6.0599999999999994E-002    -4.9545332103662076E-007
  -5.9499999999999990E-002    -6.2446082438327721E-007
  -5.8399999999999994E-002    -7.8502944234060124E-007
  -5.7299999999999990E-002    -9.9127157682232792E-007
  -5.6199999999999986E-002    -1.2556588444567751E-006
  -5.5099999999999996E-002    -1.5860715620874544E-006
  -5.3999999999999992E-002    -1.9886622339981841E-006
  -5.2899999999999989E-002    -2.4741491415625205E-006
  -5.1799999999999985E-002    -3.0619562494393904E-006
  -5.0699999999999995E-002    -3.7787347082485212E-006
  -4.9599999999999991E-002    -4.6532622945960611E-006
  -4.8499999999999988E-002    -5.7133643167617265E-006
  -4.7399999999999998E-002    -6.9887469180685002E-006
  -4.6299999999999994E-002    -8.5180117821437307E-006
  -4.5199999999999990E-002    -1.0353767720516771E-005
  -4.4099999999999986E-002    -1.2561097719299141E-005
  -4.2999999999999997E-002    -1.5210732271953020E-005
  -4.1899999999999993E-002    -1.8373742932453752E-005
  -4.0799999999999989E-002    -2.2124118913779967E-005
  -3.9699999999999985E-002    -2.6548947062110528E-005
  -3.8599999999999995E-002    -3.1758809200255200E-005
  -3.7499999999999992E-002    -3.7890062230871990E-005
  -3.6399999999999988E-002    -4.5097407564753667E-005
  -3.5299999999999984E-002    -5.3544150432571769E-005
  -3.4199999999999994E-002    -6.3400511862710118E-005
  -3.3099999999999991E-002    -7.4853902333416045E-005
  -3.1999999999999987E-002    -8.8124041212722659E-005
  -3.0899999999999997E-002    -1.0347060742788017E-004
  -2.9799999999999993E-002    -1.2118670565541834E-004
  -2.8699999999999989E-002    -1.4158402336761355E-004
  -2.7599999999999986E-002    -1.6498386685270816E-004
  -2.6499999999999996E-002    -1.9172378233633935E-004
  -2.5399999999999992E-002    -2.2217528021428734E-004
  -2.4299999999999988E-002    -2.5675733922980726E-004
  -2.3199999999999985E-002    -2.9593289946205914E-004
  -2.2099999999999995E-002    -3.4018998849205673E-004
  -2.0999999999999991E-002    -3.9002389530651271E-004
  -1.9899999999999987E-002    -4.4593520578928292E-004
  -1.8799999999999983E-002    -5.0844426732510328E-004
  -1.7699999999999994E-002    -5.7810504222288728E-004
  -1.6599999999999990E-002    -6.5550231374800205E-004
  -1.5499999999999986E-002    -7.4122811201959848E-004
  -1.4399999999999996E-002    -8.3585456013679504E-004
  -1.3299999999999992E-002    -9.3992153415456414E-004
  -1.2199999999999989E-002    -1.0539434151723981E-003
  -1.1099999999999985E-002    -1.1784208472818136E-003
  -9.9999999999999950E-003    -1.3138342183083296E-003
  -8.8999999999999913E-003    -1.4606153126806021E-003
  -7.7999999999999875E-003    -1.6191119793802500E-003
  -6.6999999999999837E-003    -1.7895658966153860E-003
  -5.5999999999999939E-003    -1.9721125718206167E-003
  -4.4999999999999901E-003    -2.1667871624231339E-003
  -3.3999999999999864E-003    -2.3735163267701864E-003
  -2.2999999999999826E-003    -2.5920846965163946E-003
  -1.1999999999999927E-003    -2.8220959939062595E-003
  -9.9999999999988987E-005    -3.0629478860646486E-003
   1.0000000000000148E-003    -3.3138315193355083E-003
   2.1000000000000185E-003    -3.5737394355237484E-003
   3.2000000000000084E-003    -3.8414630107581615E-003
   4.3000000000000121E-003    -4.1155638173222542E-003
   5.4000000000000159E-003    -4.3943417258560658E-003
   6.5000000000000058E-003    -4.6758167445659637E-003
   7.6000000000000234E-003    -4.9577415920794010E-003
   8.7000000000000133E-003    -5.2376277744770050E-003
   9.8000000000000032E-003    -5.5127586238086224E-003
   1.0900000000000021E-002    -5.7801809161901474E-003
   1.2000000000000011E-002    -6.0366904363036156E-003
   1.3100000000000001E-002    -6.2788398936390877E-003
   1.4200000000000018E-002    -6.5029747784137726E-003
   1.5300000000000008E-002    -6.7052841186523438E-003
   1.6400000000000026E-002    -6.8818451836705208E-003
   1.7500000000000016E-002    -7.0286435075104237E-003
   1.8600000000000005E-002    -7.1415891870856285E-003
   1.9700000000000023E-002    -7.2165546007454395E-003
   2.0800000000000013E-002    -7.2494344785809517E-003
   2.1900000000000003E-002    -7.2362269274890423E-003
   2.3000000000000020E-002    -7.1730986237525940E-003
   2.4100000000000010E-002    -7.0564304478466511E-003
   2.5200000000000000E-002    -6.8828565999865532E-003
   2.6300000000000018E-002    -6.6493158228695393E-003
   2.7400000000000008E-002    -6.3531226478517056E-003
   2.8500000000000025E-002    -5.9920544736087322E-003
   2.9600000000000015E-002    -5.5644200183451176E-003
   3.0700000000000005E-002    -5.0691030919551849E-003
   3.1800000000000023E-002    -4.5055933296680450E-003
   3.2900000000000013E-002    -3.8740241434425116E-003
   3.4000000000000002E-002    -3.1752265058457851E-003
   3.5100000000000020E-002    -2.4107843637466431E-003
   3.6200000000000010E-002    -1.5830716583877802E-003
   3.7300000000000028E-002    -6.9525639992207289E-004
   3.8400000000000017E-002     2.4870957713574171E-004
   3.9500000000000007E-002     1.2441024882718921E-003
   4.0600000000000025E-002     2.2854276467114687E-003
   4.1700000000000015E-002     3.3664242364466190E-003
   4.2800000000000005E-002     4.4800913892686367E-003
   4.3900000000000022E-002     5.6187394075095654E-003
   4.5000000000000012E-002     6.7740664817392826E-003
   4.6100000000000002E-002     7.9372357577085495E-003
   4.7200000000000020E-002     9.0989461168646812E-003
   4.8300000000000010E-002     1.0249504819512367E-002
   4.9400000000000027E-002     1.1378912255167961E-002
   5.0500000000000017E-002     1.2476965785026550E-002
   5.1600000000000007E-002     1.3533385470509529E-002
   5.2700000000000025E-002     1.4537943527102470E-002
   5.3800000000000014E-002     1.5480585396289825E-002
   5.4900000000000004E-002     1.6351534053683281E-002
   5.6000000000000022E-002     1.7141412943601608E-002
   5.7100000000000012E-002     1.7841352149844170E-002
   5.8200000000000002E-002     1.8443118780851364E-002
   5.9300000000000019E-002     1.8939241766929626E-002
   6.0400000000000009E-002     1.9323129206895828E-002
   6.1500000000000027E-002     1.9589159637689590E-002
   6.2600000000000017E-002     1.9732750952243805E-002
   6.3700000000000007E-002     1.9750444218516350E-002
   6.4800000000000024E-002     1.9639963284134865E-002
   6.5900000000000014E-002     1.9400274381041527E-002
   6.7000000000000004E-002     1.9031636416912079E-002
   6.8100000000000022E-002     1.8535615876317024E-002
   6.9200000000000012E-002     1.7915077507495880E-002
   7.0300000000000029E-002     1.7174156382679939E-002
   7.1400000000000019E-002     1.6318228095769882E-002
   7.2500000000000009E-002     1.5353869646787643E-002
   7.3600000000000027E-002     1.4288801699876785E-002
   7.4700000000000016E-002     1.3131813146173954E-002
   7.5800000000000006E-002     1.1892644688487053E-002
   7.6900000000000024E-002     1.0581865906715393E-002
   7.8000000000000014E-002     9.2107467353343964E-003
   7.9100000000000004E-002     7.7911387197673321E-003
   8.0200000000000021E-002     6.3353474251925945E-003
   8.1300000000000011E-002     4.8559922724962234E-003
   8.2400000000000029E-002     3.3658395987004042E-003
   8.3500000000000019E-002     1.8776269862428308E-003
   8.4600000000000009E-002     4.0390147478319705E-004
   8.5700000000000026E-002    -1.0431149275973439E-003
   8.6800000000000016E-002    -2.4516463745385408E-003
   8.7900000000000006E-002    -3.8104916457086802E-003
   8.9000000000000024E-002    -5.1091597415506840E-003
   9.0100000000000013E-002    -6.3380128704011440E-003
   9.1200000000000003E-002    -7.4883843772113323E-003
   9.2300000000000021E-002    -8.5526527836918831E-003
   9.3400000000000011E-002    -9.5242876559495926E-003
   9.4500000000000028E-002    -1.0397882200777531E-002
   9.5600000000000018E-002    -1.1169198900461197E-002
   9.6700000000000008E-002    -1.1835208162665367E-002
   9.7800000000000026E-002    -1.2394116260111332E-002
   9.8900000000000016E-002    -1.2845339253544807E-002
  0.10000000000000001         -1.3189443387091160E-002
  0.10110000000000002         -1.3428076170384884E-002
  0.10220000000000001         -1.3563910499215126E-002
  0.10330000000000003         -1.3600590638816357E-002
  0.10440000000000002         -1.3542667031288147E-002
  0.10550000000000001         -1.3395495712757111E-002
  0.10660000000000003         -1.3165109790861607E-002
  0.10770000000000002         -1.2858092784881592E-002
  0.10880000000000001         -1.2481478974223137E-002
  0.10990000000000003         -1.2042655609548092E-002
  0.11100000000000002         -1.1549267917871475E-002
  0.11210000000000001         -1.1009102687239647E-002
  0.11320000000000002         -1.0429954156279564E-002
  0.11430000000000001         -9.8195169121026993E-003
  0.11540000000000003         -9.1853076592087746E-003
  0.11650000000000002         -8.5345953702926636E-003
  0.11760000000000001         -7.8743463382124901E-003
  0.11870000000000003         -7.2111370973289013E-003
  0.11980000000000002         -6.5510794520378113E-003
  0.12090000000000001         -5.8997650630772114E-003
  0.12200000000000003         -5.2622449584305286E-003
  0.12310000000000001         -4.6430327929556370E-003
  0.12420000000000003         -4.0460973978042603E-003
  0.12530000000000002         -3.4748429898172617E-003
  0.12640000000000001         -2.9320875182747841E-003
  0.12750000000000003         -2.4200652260333300E-003
  0.12860000000000002         -1.9404646009206772E-003
  0.12970000000000001         -1.4944800641387701E-003
  0.13080000000000003         -1.0828536469489336E-003
  0.13190000000000002         -7.0589320966973901E-004
  0.13300000000000001         -3.6348629510030150E-004
  0.13410000000000000         -5.5131757108028978E-005
  0.13520000000000004          2.2000278113409877E-004
  0.13630000000000003          4.6301443944685161E-004
  0.13740000000000002          6.7521398887038231E-004
  0.13850000000000001          8.5809914162382483E-004
  0.13960000000000000          1.0133344912901521E-003
  0.14070000000000005          1.1427181307226419E-003
  0.14180000000000004          1.2481331359595060E-003
  0.14290000000000003          1.3314947718754411E-003
  0.14400000000000002          1.3947191182523966E-003
  0.14510000000000001          1.4397094491869211E-003
  0.14620000000000000          1.4683471526950598E-003
  0.14730000000000004          1.4824712416157126E-003
  0.14840000000000003          1.4838469214737415E-003
  0.14950000000000002          1.4741407940164208E-003
  0.15060000000000001          1.4549144543707371E-003
  0.15170000000000000          1.4276319416239858E-003
  0.15280000000000005          1.3936627656221390E-003
  0.15390000000000004          1.3542717788368464E-003
  0.15500000000000003          1.3106026453897357E-003
  0.15610000000000002          1.2636721367016435E-003
  0.15720000000000001          1.2143809581175447E-003
  0.15830000000000000          1.1635337723419070E-003
  0.15940000000000004          1.1118488619104028E-003
  0.16050000000000003          1.0599516099318862E-003
  0.16160000000000002          1.0083648376166821E-003
  0.16270000000000001          9.5751346088945866E-004
  0.16380000000000000          9.0774474665522575E-004
  0.16490000000000005          8.5934996604919434E-004
  0.16600000000000004          8.1257219426333904E-004
  0.16710000000000003          7.6759862713515759E-004
  0.16820000000000002          7.2455260669812560E-004
  0.16930000000000001          6.8350171204656363E-004
  0.17040000000000000          6.4447935437783599E-004
  0.17150000000000004          6.0750311240553856E-004
  0.17260000000000003          5.7257554726675153E-004
  0.17370000000000002          5.3967197891324759E-004
  0.17480000000000001          5.0873449072241783E-004
  0.17590000000000000          4.7968275612220168E-004
  0.17700000000000005          4.5243446948006749E-004
  0.17810000000000004          4.2691687121987343E-004
  0.17920000000000003          4.0305926813744009E-004
  0.18030000000000002          3.8077699718996882E-004
  0.18140000000000001          3.5996714723296463E-004
  0.18250000000000000          3.4052343107759953E-004
  0.18360000000000004          3.2235615071840584E-004
  0.18470000000000003          3.0539694125764072E-004
  0.18580000000000002          2.8958285111002624E-004
  0.18690000000000001          2.7483681333251297E-004
  0.18800000000000000          2.6106572477146983E-004
  0.18910000000000005          2.4818067322485149E-004
  0.19020000000000004          2.3611795040778816E-004
  0.19130000000000003          2.2483854263555259E-004
  0.19240000000000002          2.1430465858429670E-004
  0.19350000000000001          2.0445733389351517E-004
  0.19460000000000005          1.9521906506270170E-004
  0.19570000000000004          1.8652064318303019E-004
  0.19680000000000003          1.7832478624768555E-004
  0.19790000000000002          1.7062140977941453E-004
  0.19900000000000001          1.6339747526217252E-004
  0.20010000000000000          1.5661072393413633E-004
  0.20120000000000005          1.5019458078313619E-004
  0.20230000000000004          1.4409005234483629E-004
  0.20340000000000003          1.3827321527060121E-004
  0.20450000000000002          1.3275015226099640E-004
  0.20560000000000000          1.2752364273183048E-004
  0.20670000000000005          1.2256429181434214E-004
  0.20780000000000004          1.1781575449276716E-004
  0.20890000000000003          1.1322881618980318E-004
