 -0.12000000000000000          0.0000000000000000     
 -0.11889999999999999          0.0000000000000000     
 -0.11780000000000000          0.0000000000000000     
 -0.11670000000000000          0.0000000000000000     
 -0.11559999999999999          0.0000000000000000     
 -0.11449999999999999          0.0000000000000000     
 -0.11340000000000000         -1.0526557657447194E-019
 -0.11230000000000000          1.7105656661871959E-018
 -0.11119999999999999         -4.8422164578022239E-018
 -0.11009999999999999         -3.7895608859279606E-018
 -0.10900000000000000         -1.0105495144354153E-017
 -0.10790000000000000          6.0632974174847369E-017
 -0.10679999999999999         -6.7369969007662042E-018
 -0.10569999999999999          1.4821393098967588E-016
 -0.10460000000000000          2.1558390082451853E-016
 -0.10349999999999999         -3.7727183636907479E-016
 -0.10239999999999999         -2.1827869644153869E-015
 -0.10130000000000000         -1.5090873454762991E-015
 -0.10020000000000000          3.4493424131922966E-015
  -9.9099999999999994E-002     4.3116780694299299E-015
  -9.7999999999999990E-002     1.0348027027818653E-014
  -9.6899999999999986E-002     5.1740135139093264E-015
  -9.5799999999999996E-002    -5.1740135139093264E-015
  -9.4699999999999993E-002    -5.2602470583572661E-014
  -9.3599999999999989E-002    -4.1392108111274611E-014
  -9.2499999999999999E-002    -3.7942766333357025E-014
  -9.1399999999999995E-002     4.3116779000233404E-014
  -9.0299999999999991E-002     1.1037895722215349E-013
  -8.9200000000000002E-002     4.4151582888861396E-013
  -8.8099999999999984E-002     1.9316318022096629E-013
  -8.6999999999999994E-002    -2.7594739644351551E-013
  -8.5899999999999990E-002    -8.8303165777722792E-013
  -8.4799999999999986E-002    -1.1037895857740621E-012
  -8.3699999999999997E-002    -4.4151582888861396E-013
  -8.2599999999999993E-002     2.2075791444430698E-013
  -8.1499999999999989E-002     2.2075791715481241E-012
  -8.0399999999999999E-002     3.5321266311089117E-012
  -7.9299999999999995E-002     3.0906108835354607E-012
  -7.8199999999999992E-002    -8.8303165777722792E-013
  -7.7100000000000002E-002    -9.0510741262983530E-012
  -7.5999999999999984E-002    -7.9472851910455944E-012
  -7.4899999999999994E-002    -2.6490949191215751E-012
  -7.3799999999999991E-002     3.5321266311089117E-012
  -7.2699999999999987E-002     9.7133481813393985E-012
  -7.1599999999999997E-002     1.1479411171633203E-011
  -7.0499999999999993E-002     1.7660633372384993E-011
  -6.9399999999999989E-002     4.3047791893624510E-012
  -6.8300000000000000E-002    -1.2362443534141843E-011
  -6.7199999999999996E-002    -3.0023077773888573E-011
  -6.6099999999999992E-002    -1.8654043587584823E-011
  -6.5000000000000002E-002    -1.7660633155544558E-012
  -6.3899999999999985E-002     0.0000000000000000     
  -6.2799999999999995E-002    -1.5894570382091189E-011
  -6.1699999999999991E-002    -3.8853392725357594E-011
  -6.0599999999999994E-002     6.3578281528364755E-011
  -5.9499999999999990E-002     1.0596380023430996E-010
  -5.8399999999999994E-002     1.7086662640330985E-010
  -5.7299999999999990E-002     7.7706785450715188E-011
  -5.6199999999999986E-002    -9.1835289373065621E-011
  -5.5099999999999996E-002    -3.3201991156417421E-010
  -5.3999999999999992E-002    -4.1679093509827680E-010
  -5.2899999999999989E-002    -3.3908414964756162E-010
  -5.1799999999999985E-002     7.0642532622178233E-012
  -5.0699999999999995E-002     5.4041537911331261E-010
  -4.9599999999999991E-002     9.3954566349196966E-010
  -4.8499999999999988E-002     1.0031239172647588E-009
  -4.7399999999999998E-002     4.9802983959068570E-010
  -4.6299999999999994E-002    -7.2761807690113756E-010
  -4.5199999999999990E-002    -1.9779908821959680E-009
  -4.4099999999999986E-002    -2.4159745315444070E-009
  -4.2999999999999997E-002    -1.3563365985902465E-009
  -4.1899999999999993E-002     9.7486696493120917E-010
  -4.0799999999999989E-002     3.1930424970738613E-009
  -3.9699999999999985E-002     3.8146965586349779E-009
  -3.8599999999999995E-002     2.1757899926200253E-009
  -3.7499999999999992E-002    -7.2055383881775015E-010
  -3.6399999999999988E-002    -2.9246007837713250E-009
  -3.5299999999999984E-002    -3.0658859895282831E-009
  -3.4199999999999994E-002    -2.0839547865136865E-009
  -3.3099999999999991E-002    -1.7660632956051359E-009
  -3.1999999999999987E-002    -2.1757899926200253E-009
  -3.0899999999999997E-002    -1.1020234724767874E-009
  -2.9799999999999993E-002     3.1647855447403117E-009
  -2.8699999999999989E-002     9.9747259341143035E-009
  -2.7599999999999986E-002     1.2178772657023273E-008
  -2.6499999999999996E-002     4.5776360479976574E-009
  -2.5399999999999992E-002    -1.1867945737265018E-008
  -2.4299999999999988E-002    -2.4866171344228860E-008
  -2.3199999999999985E-002    -2.0571105707745119E-008
  -2.2099999999999995E-002     6.9512253730863449E-009
  -2.0999999999999991E-002     3.5801637210397530E-008
  -1.9899999999999987E-002     3.4925669467611442E-008
  -1.8799999999999983E-002    -9.0422442866611163E-009
  -1.7699999999999994E-002    -7.2564006359243649E-008
  -1.6599999999999990E-002    -8.3075619272676704E-008
  -1.5499999999999986E-002    -6.7816829929512323E-010
  -1.4399999999999996E-002     1.2591324605182308E-007
  -1.3299999999999992E-002     1.8830473891284782E-007
  -1.2199999999999989E-002     7.6859073772084230E-008
  -1.1099999999999985E-002    -1.7474137337103457E-007
  -9.9999999999999950E-003    -3.7434890032272961E-007
  -8.8999999999999913E-003    -2.8166590482214815E-007
  -7.7999999999999875E-003     1.1754917750295135E-007
  -6.6999999999999837E-003     5.9136277741345111E-007
  -5.5999999999999939E-003     6.9986970174795715E-007
  -4.4999999999999901E-003     2.4956594302238955E-007
  -3.3999999999999864E-003    -4.7923896318025072E-007
  -2.2999999999999826E-003    -1.0687932672226452E-006
  -1.1999999999999927E-003    -1.0344327847633394E-006
  -9.9999999999988987E-005    -3.3275458122261625E-007
   1.0000000000000148E-003     5.3530084187514149E-007
   2.1000000000000185E-003     1.0452833976160036E-006
   3.2000000000000084E-003     1.3237845450930763E-006
   4.3000000000000121E-003     8.5358783508127090E-007
   5.4000000000000159E-003     4.1956013774324674E-007
   6.5000000000000058E-003    -4.9189810624739039E-007
   7.6000000000000234E-003    -1.4612267023039749E-006
   8.7000000000000133E-003    -1.7505784626337118E-006
   9.8000000000000032E-003    -1.4467590858657786E-007
   1.0900000000000021E-002     7.2337951451117988E-007
   1.2000000000000011E-002     2.1122682483110111E-006
   1.3100000000000001E-002     2.6331015305913752E-006
   1.4200000000000018E-002     7.8124992342054611E-007
   1.5300000000000008E-002    -2.9513885237975046E-006
   1.6400000000000026E-002    -7.0601840889139567E-006
   1.7500000000000016E-002    -6.5972212723863777E-006
   1.8600000000000005E-002    -3.4722216923910310E-007
   1.9700000000000023E-002     6.8287026806501672E-006
   2.0800000000000013E-002     1.1921294571948238E-005
   2.1900000000000003E-002     1.0995368938893080E-005
   2.3000000000000020E-002     2.4305552415171405E-006
   2.4100000000000010E-002    -7.5231473601888865E-006
   2.5200000000000000E-002    -1.5972220353432931E-005
   2.6300000000000018E-002    -9.4907391030574217E-006
   2.7400000000000008E-002     5.7870361160894390E-006
   2.8500000000000025E-002     1.3888887224311475E-005
   2.9600000000000015E-002     6.7129622038919479E-006
   3.0700000000000005E-002    -1.8055552573059686E-005
   3.1800000000000023E-002    -2.1296293198247440E-005
   3.2900000000000013E-002    -2.7777773539128248E-006
   3.4000000000000002E-002     1.7592590666026808E-005
   3.5100000000000020E-002     2.9629625714733265E-005
   3.6200000000000010E-002     1.4351850040839054E-005
   3.7300000000000028E-002    -1.0185183782596141E-005
   3.8400000000000017E-002    -3.8888883864274248E-005
   3.9500000000000007E-002    -3.6111105146119371E-005
   4.0600000000000025E-002    -3.6111105146119371E-005
   4.1700000000000015E-002     1.2037035048706457E-005
   4.2800000000000005E-002     4.2592586396494880E-005
   4.3900000000000022E-002     4.6296288928715512E-005
   4.5000000000000012E-002     5.5555548897245899E-005
   4.6100000000000002E-002    -1.6666665032971650E-005
   4.7200000000000020E-002    -2.2222218831302598E-005
   4.8300000000000010E-002    -4.6296288928715512E-005
   4.9400000000000027E-002    -4.8148140194825828E-005
   5.0500000000000017E-002    -6.2962957599665970E-005
   5.1600000000000007E-002     3.7037032598163933E-005
   5.2700000000000025E-002     1.1296294542262331E-004
   5.3800000000000014E-002     1.1851850285893306E-004
   5.4900000000000004E-002     7.0370362664107233E-005
   5.6000000000000022E-002     7.4074064286833163E-006
   5.7100000000000012E-002    -9.2592577857431024E-005
   5.8200000000000002E-002    -1.2592591519933194E-004
   5.9300000000000019E-002    -1.0740739526227117E-004
   6.0400000000000009E-002    -2.0740738546010107E-004
   6.1500000000000027E-002    -9.2592577857431024E-005
   6.2600000000000017E-002     5.5555548897245899E-005
   6.3700000000000007E-002     1.3333332026377320E-004
   6.4800000000000024E-002     3.2592588104307652E-004
   6.5900000000000014E-002     9.9999990197829902E-005
   6.7000000000000004E-002    -5.1851846365025267E-005
   6.8100000000000022E-002    -1.1111109415651299E-005
   6.9200000000000012E-002    -7.0370362664107233E-005
   7.0300000000000029E-002     6.2962957599665970E-005
   7.1400000000000019E-002    -4.8148140194825828E-005
   7.2500000000000009E-002     2.5925923182512634E-005
   7.3600000000000027E-002    -5.5555548897245899E-005
   7.4700000000000016E-002    -3.3333330065943301E-005
   7.5800000000000006E-002     5.5555548897245899E-005
   7.6900000000000024E-002     0.0000000000000000     
   7.8000000000000014E-002     1.2222220539115369E-004
   7.9100000000000004E-002    -1.7407405539415777E-004
   8.0200000000000021E-002    -4.0740735130384564E-005
   8.1300000000000011E-002     8.5185172792989761E-005
   8.2400000000000029E-002     1.1111109415651299E-005
   8.3500000000000019E-002    -1.1111109415651299E-005
   8.4600000000000009E-002    -2.8518514591269195E-004
   8.5700000000000026E-002    -2.3888885334599763E-004
   8.6800000000000016E-002    -1.9444442295935005E-004
   8.7900000000000006E-002    -1.0925924289040267E-004
   8.9000000000000024E-002     5.3287029732018709E-004
   9.0100000000000013E-002     7.1336794644594193E-004
   9.1200000000000003E-002     5.7592586381360888E-004
   9.2300000000000021E-002     3.5185181332053617E-005
   9.3400000000000011E-002    -3.6296292091719806E-004
   9.4500000000000028E-002    -6.2592583708465099E-004
   9.5600000000000018E-002    -4.7407401143573225E-004
   9.6700000000000008E-002    -4.2962958104908466E-004
   9.7800000000000026E-002    -1.3333332026377320E-004
   9.8900000000000016E-002     2.9629625714733265E-005
  0.10000000000000001          3.9999996079131961E-004
  0.10110000000000002          6.4444437157362700E-004
  0.10220000000000001          7.3333323234692216E-004
  0.10330000000000003          9.6296280389651656E-005
  0.10440000000000002         -6.2222214182838798E-004
  0.10550000000000001         -9.3333318363875151E-004
  0.10660000000000003         -9.1851840261369944E-004
  0.10770000000000002          2.6666664052754641E-004
  0.10880000000000001          1.4666664646938443E-003
  0.10990000000000003          1.2148146051913500E-003
  0.11100000000000002          1.3333332026377320E-004
  0.11210000000000001         -9.6296286210417747E-004
  0.11320000000000002         -1.6296294052153826E-003
  0.11430000000000001         -1.1555553646758199E-003
  0.11540000000000003          2.6666664052754641E-004
  0.11650000000000002          1.7185183241963387E-003
  0.11760000000000001          1.3925924431532621E-003
  0.11870000000000003         -1.1851850285893306E-004
  0.11980000000000002         -4.1481477092020214E-004
  0.12090000000000001         -1.0370368836447597E-003
  0.12200000000000003          3.2592588104307652E-004
  0.12310000000000001          7.7037024311721325E-004
  0.12420000000000003          1.3925924431532621E-003
  0.12530000000000002         -2.9629626078531146E-004
  0.12640000000000001         -2.5777774862945080E-003
  0.12750000000000003         -2.3111107293516397E-003
  0.12860000000000002          3.5555550130084157E-004
  0.12970000000000001          2.8740738052874804E-003
  0.13080000000000003          3.1407403293997049E-003
  0.13190000000000002         -4.7407401143573225E-004
  0.13300000000000001         -4.3555549345910549E-003
  0.13410000000000000         -2.4888885673135519E-003
  0.13520000000000004          8.8888878235593438E-004
  0.13630000000000003          2.7555550914257765E-003
  0.13740000000000002          1.0666665621101856E-003
  0.13850000000000001         -3.1111107091419399E-004
  0.13960000000000000         -1.0814813431352377E-003
  0.14070000000000005          4.7407401143573225E-004
  0.14180000000000004          8.2962954184040427E-004
  0.14290000000000003          1.3999998336657882E-003
  0.14400000000000002          1.0370368836447597E-003
  0.14510000000000001          4.1111104656010866E-004
  0.14620000000000000         -6.3703698106110096E-004
  0.14730000000000004         -2.4740737862884998E-003
  0.14840000000000003         -2.1037033293396235E-003
  0.14950000000000002         -7.2592584183439612E-004
  0.15060000000000001          7.4074062285944819E-004
  0.15170000000000000          3.2592588104307652E-004
  0.15280000000000005          1.7777775065042078E-004
  0.15390000000000004          1.4222220052033663E-003
  0.15500000000000003          1.7185183241963387E-003
  0.15610000000000002          2.9629626078531146E-004
  0.15720000000000001         -2.1333331242203712E-003
  0.15830000000000000         -2.3111107293516397E-003
  0.15940000000000004         -1.5407404862344265E-003
  0.16050000000000003          1.3037035241723061E-003
  0.16160000000000002          3.5555551294237375E-003
  0.16270000000000001          8.2962954184040427E-004
  0.16380000000000000         -4.0296292863786221E-003
  0.16490000000000005         -3.6148142535239458E-003
  0.16600000000000004          1.6592590836808085E-003
  0.16710000000000003          7.5259250588715076E-003
  0.16820000000000002          7.8222211450338364E-003
  0.16930000000000001          4.1481477092020214E-004
  0.17040000000000000         -9.5999985933303833E-003
  0.17150000000000004         -1.2325923889875412E-002
  0.17260000000000003         -2.2518516052514315E-003
  0.17370000000000002          7.6444433070719242E-003
  0.17480000000000001          9.4814803451299667E-003
  0.17590000000000000          2.7851848863065243E-003
  0.17700000000000005         -3.6740736104547977E-003
  0.17810000000000004         -6.1037028208374977E-003
  0.17920000000000003          7.1111100260168314E-004
  0.18030000000000002          5.9259249828755856E-003
  0.18140000000000001          6.9037028588354588E-003
  0.18250000000000000         -1.2148146051913500E-003
  0.18360000000000004         -1.3940738514065742E-002
  0.18470000000000003         -1.3225924223661423E-002
  0.18580000000000002         -1.6666665032971650E-005
  0.18690000000000001          1.3644442893564701E-002
  0.18800000000000000          1.5829628333449364E-002
  0.18910000000000005          1.8814812647178769E-003
  0.19020000000000004         -1.0933332145214081E-002
  0.19130000000000003         -1.1377776041626930E-002
  0.19240000000000002          1.7777775647118688E-003
  0.19350000000000001          1.2592591345310211E-002
  0.19460000000000005          8.2074059173464775E-003
  0.19570000000000004         -9.7481468692421913E-003
  0.19680000000000003         -1.7007404938340187E-002
  0.19790000000000002         -6.2222215346992016E-003
  0.19900000000000001          1.1348146945238113E-002
  0.20010000000000000          1.8607404083013535E-002
  0.20120000000000005          6.1629619449377060E-003
  0.20230000000000004         -1.1496295221149921E-002
  0.20340000000000003         -1.7155554145574570E-002
  0.20450000000000002         -4.4148140586912632E-003
  0.20560000000000000          1.2444443069398403E-002
  0.20670000000000005          1.6711108386516571E-002
  0.20780000000000004          2.2814811673015356E-003
  0.20890000000000003         -1.5674071386456490E-002
