 -0.12000000000000000          0.0000000000000000
 -0.11889999999999999          0.0000000000000000
 -0.11780000000000000          0.0000000000000000
 -0.11670000000000000          0.0000000000000000
 -0.11559999999999999          0.0000000000000000
 -0.11449999999999999          0.0000000000000000
 -0.11340000000000000          0.0000000000000000
 -0.11230000000000000          0.0000000000000000
 -0.11119999999999999          7.7098809389909006E-023
 -0.11009999999999999         -3.3409483648234753E-022
 -0.10900000000000000         -7.1958892129721601E-022
 -0.10790000000000000          2.2615651090953961E-021
 -0.10679999999999999         -4.1119365849403102E-022
 -0.10569999999999999          9.8686476019083527E-021
 -0.10460000000000000          6.5790985359044963E-021
 -0.10349999999999999         -7.8949180815266822E-020
 -0.10239999999999999         -1.5789836163053364E-019
 -0.10130000000000000          1.0526557657447194E-019
 -0.10020000000000000         -1.0526557786694165E-018
  -9.9099999999999994E-002     2.5263737860885383E-018
  -9.7999999999999990E-002    -1.6842492251915511E-018
  -9.6899999999999986E-002     1.6842492251915511E-018
  -9.5799999999999996E-002     3.3684984503831021E-018
  -9.4699999999999993E-002    -6.7369969007662042E-018
  -9.3599999999999989E-002    -7.4106965494837940E-017
  -9.2499999999999999E-002     1.0779195041225927E-016
  -9.1399999999999995E-002    -5.3895975206129634E-017
  -9.0299999999999991E-002    -5.3895975206129634E-017
  -8.9200000000000002E-002     4.3116780164903707E-016
  -8.8099999999999984E-002     0.0000000000000000
  -8.6999999999999994E-002    -2.1558390082451853E-016
  -8.5899999999999990E-002    -1.0779195173574825E-015
  -8.4799999999999986E-002     6.4675168923866580E-016
  -8.3699999999999997E-002    -8.6233560329807414E-016
  -8.2599999999999993E-002    -1.7246712065961483E-015
  -8.1499999999999989E-002     7.7610206943804633E-015
  -8.0399999999999999E-002     0.0000000000000000
  -7.9299999999999995E-002     0.0000000000000000
  -7.8199999999999992E-002     0.0000000000000000
  -7.7100000000000002E-002    -2.0696054055637306E-014
  -7.5999999999999984E-002    -1.7246712065961483E-015
  -7.4899999999999994E-002     6.8986848263845931E-015
  -7.3799999999999991E-002     2.0696054055637306E-014
  -7.2699999999999987E-002    -2.0696054055637306E-014
  -7.1599999999999997E-002     6.8986848263845931E-015
  -7.0499999999999993E-002     2.0696054055637306E-014
  -6.9399999999999989E-002    -2.7594739305538372E-014
  -6.8300000000000000E-002     2.7594739305538372E-014
  -6.7199999999999996E-002    -6.8986849110878878E-014
  -6.6099999999999992E-002    -1.3797369652769186E-014
  -6.5000000000000002E-002     5.5189478611076745E-014
  -6.3899999999999985E-002     1.1037895722215349E-013
  -6.2799999999999995E-002    -5.5189478611076745E-014
  -6.1699999999999991E-002    -5.5189478611076745E-014
  -6.0599999999999994E-002    -2.2075791444430698E-013
  -5.9499999999999990E-002    -9.9341064888069930E-013
  -5.8399999999999994E-002     0.0000000000000000
  -5.7299999999999990E-002     1.4349263964541503E-012
  -5.6199999999999986E-002     1.9316317208945000E-012
  -5.5099999999999996E-002     2.0972002346547614E-012
  -5.3999999999999992E-002     0.0000000000000000
  -5.2899999999999989E-002    -6.1812217670709213E-012
  -5.1799999999999985E-002    -9.7133481813393985E-012
  -5.0699999999999995E-002    -4.4151583430962482E-012
  -4.9599999999999991E-002     1.1037895424059752E-011
  -4.8499999999999988E-002     1.9426696362678797E-011
  -4.7399999999999998E-002     1.5011538886944287E-011
  -4.6299999999999994E-002    -1.7660633155544558E-012
  -4.5199999999999990E-002    -2.6490950058577489E-011
  -4.4099999999999986E-002    -3.8853392725357594E-011
  -4.2999999999999997E-002    -2.2075790848119503E-011
  -4.1899999999999993E-002     3.2009898204288234E-011
  -4.0799999999999989E-002     6.5344341049211607E-011
  -3.9699999999999985E-002     4.5917644686532810E-011
  -3.8599999999999995E-002    -2.1192759352972601E-011
  -3.7499999999999992E-002    -8.0355881670879370E-011
  -3.6399999999999988E-002    -8.3004977891043552E-011
  -3.5299999999999984E-002    -1.2362443534141843E-011
  -3.4199999999999994E-002     9.8899548273134741E-011
  -3.3099999999999991E-002     1.4834931894025516E-010
  -3.1999999999999987E-002     7.4174659470127580E-011
  -3.0899999999999997E-002    -9.3601355832806377E-011
  -2.9799999999999993E-002    -2.6844163003580945E-010
  -2.8699999999999989E-002    -2.0486334850744470E-010
  -2.7599999999999986E-002     2.8257013048871293E-011
  -2.6499999999999996E-002     2.6137736419684643E-010
  -2.5399999999999992E-002     4.2208914141639298E-010
  -2.4299999999999988E-002     2.9669863788051032E-010
  -2.3199999999999985E-002     1.4128506524435647E-011
  -2.2099999999999995E-002    -3.6734115749226248E-010
  -2.0999999999999991E-002    -7.8766421163223299E-010
  -1.9899999999999987E-002    -9.2541718732519485E-010
  -1.8799999999999983E-002    -5.0862625222691804E-010
  -1.7699999999999994E-002     6.3578281528364755E-010
  -1.6599999999999990E-002     2.0556976121355319E-009
  -1.5499999999999986E-002     2.7268016733472678E-009
  -1.4399999999999996E-002     1.3139510590676196E-009
  -1.3299999999999992E-002    -1.8084488351277628E-009
  -1.2199999999999989E-002    -5.3123185850267873E-009
  -1.1099999999999985E-002    -5.6090172506628733E-009
  -9.9999999999999950E-003    -1.1161520596658647E-009
  -8.8999999999999913E-003     6.0752576303002570E-009
  -7.7999999999999875E-003     1.0681151074720674E-008
  -6.6999999999999837E-003     7.1207670870876427E-009
  -5.5999999999999939E-003    -4.4646082386634589E-009
  -4.4999999999999901E-003    -1.6558610482775293E-008
  -3.3999999999999864E-003    -1.6389067880595576E-008
  -2.2999999999999826E-003     1.5541357090143038E-009
  -1.1999999999999927E-003     2.5911681689194666E-008
  -9.9999999999988987E-005     3.2424921414531127E-008
   1.0000000000000148E-003     9.0139868902383569E-009
   2.1000000000000185E-003    -3.4812639881920404E-008
   3.2000000000000084E-003    -5.9678811226149264E-008
   4.3000000000000121E-003    -3.9220733327738344E-008
   5.4000000000000159E-003     2.6618106829801036E-008
   6.5000000000000058E-003     7.1575016136193881E-008
   7.6000000000000234E-003     8.3951583462749113E-008
   8.7000000000000133E-003     2.9302523074647979E-008
   9.8000000000000032E-003    -2.3114235858656684E-008
   1.0900000000000021E-002    -8.9066105601887102E-008
   1.2000000000000011E-002    -1.1754917750295135E-007
   1.3100000000000001E-002    -9.4491454660783347E-008
   1.4200000000000018E-002    -8.1380200356306887E-009
   1.5300000000000008E-002     7.7311185009421024E-008
   1.6400000000000026E-002     1.8355756026267045E-007
   1.7500000000000016E-002     2.9296870707185008E-007
   1.8600000000000005E-002     1.6456884566196095E-007
   1.9700000000000023E-002    -1.7722798872910062E-007
   2.0800000000000013E-002    -3.5988131230624276E-007
   2.1900000000000003E-002    -3.4360527934040874E-007
   2.3000000000000020E-002    -2.6765042093757074E-007
   2.4100000000000010E-002    -3.9785874150766176E-008
   2.5200000000000000E-002     6.3657398641225882E-007
   2.6300000000000018E-002     4.1232632952414860E-007
   2.7400000000000008E-002     3.6168977146644465E-008
   2.8500000000000025E-002    -6.7274294224262121E-007
   2.9600000000000015E-002    -5.4976845831333776E-007
   3.0700000000000005E-002     5.6423601790811517E-007
   3.1800000000000023E-002     2.4016201223275857E-006
   3.2900000000000013E-002     1.1429397090978455E-006
   3.4000000000000002E-002    -1.2442128536349628E-006
   3.5100000000000020E-002    -4.3402774281275924E-006
   3.6200000000000010E-002    -3.8773141568526626E-006
   3.7300000000000028E-002     0.0000000000000000
   3.8400000000000017E-002     3.7037032143416582E-006
   3.9500000000000007E-002     6.6550915107654873E-006
   4.0600000000000025E-002     5.3819435379409697E-006
   4.1700000000000015E-002     2.3148145089635364E-007
   4.2800000000000005E-002    -8.2175911302329041E-006
   4.3900000000000022E-002    -6.7129622038919479E-006
   4.5000000000000012E-002    -8.6805548562551849E-006
   4.6100000000000002E-002     3.0092587621766143E-006
   4.7200000000000020E-002     9.7222209660685621E-006
   4.8300000000000010E-002     7.4074064286833163E-006
   4.9400000000000027E-002     3.7037032143416582E-006
   5.0500000000000017E-002    -1.8518516071708291E-006
   5.1600000000000007E-002     5.0925918912980705E-006
   5.2700000000000025E-002    -1.9907405658159405E-005
   5.3800000000000014E-002    -1.4351850040839054E-005
   5.4900000000000004E-002     8.3333325164858252E-006
   5.6000000000000022E-002     1.2037035048706457E-005
   5.7100000000000012E-002     8.3333325164858252E-006
   5.8200000000000002E-002    -3.7037032143416582E-006
   5.9300000000000019E-002     1.3888887224311475E-005
   6.0400000000000009E-002     2.7777773539128248E-006
   6.1500000000000027E-002    -3.7037032598163933E-005
   6.2600000000000017E-002    -7.7777767728548497E-005
   6.3700000000000007E-002     2.3148144464357756E-005
   6.4800000000000024E-002     1.5740738308522850E-004
   6.5900000000000014E-002     1.5555553545709699E-004
   6.7000000000000004E-002    -7.4074064286833163E-006
   6.8100000000000022E-002    -2.1666663815267384E-004
   6.9200000000000012E-002    -2.6111106853932142E-004
   7.0300000000000029E-002    -5.3703697631135583E-005
   7.1400000000000019E-002     2.7407403104007244E-004
   7.2500000000000009E-002     3.3333330065943301E-004
   7.3600000000000027E-002     5.5555548897245899E-005
   7.4700000000000016E-002    -3.4814811078831553E-004
   7.5800000000000006E-002    -5.3333328105509281E-004
   7.6900000000000024E-002    -1.9259256077930331E-004
   7.8000000000000014E-002     2.5925922091118991E-004
   7.9100000000000004E-002     5.7407398708164692E-004
   8.0200000000000021E-002     6.2222214182838798E-004
   8.1300000000000011E-002    -3.8518512155860662E-004
   8.2400000000000029E-002    -6.8148138234391809E-004
   8.3500000000000019E-002    -4.5555550605058670E-004
   8.4600000000000009E-002     5.7037029182538390E-004
   8.5700000000000026E-002     1.0037035681307316E-003
   8.6800000000000016E-002     6.8518507760018110E-004
   8.7900000000000006E-002    -4.9259251682087779E-004
   8.9000000000000024E-002    -1.2148146051913500E-003
   9.0100000000000013E-002    -9.8888878710567951E-004
   9.1200000000000003E-002     3.5555550130084157E-004
   9.2300000000000021E-002     9.3333318363875151E-004
   9.3400000000000011E-002     7.8888877760618925E-004
   9.4500000000000028E-002    -5.2407401381060481E-004
   9.5600000000000018E-002    -8.5555546684190631E-004
   9.6700000000000008E-002    -1.8333330808673054E-004
   9.7800000000000026E-002     2.9259256552904844E-004
   9.8900000000000016E-002     1.0009257821366191E-003
  0.10000000000000001          1.2499997683335096E-004
  0.10110000000000002         -5.6851841509342194E-004
  0.10220000000000001         -1.0574072366580367E-003
  0.10330000000000003         -4.4814808643423021E-004
  0.10440000000000002          9.5555541338399053E-004
  0.10550000000000001          1.8333330517634749E-003
  0.10660000000000003          1.3333332026377320E-004
  0.10770000000000002         -1.5555553836748004E-003
  0.10880000000000001         -2.3481477983295918E-003
  0.10990000000000003         -3.1851849053055048E-004
  0.11100000000000002          2.0888885483145714E-003
  0.11210000000000001          2.3407405242323875E-003
  0.11320000000000002          1.0666665621101856E-003
  0.11430000000000001         -9.4814802287146449E-004
  0.11540000000000003         -1.8370368052273989E-003
  0.11650000000000002         -7.8518508234992623E-004
  0.11760000000000001          7.4074062285944819E-004
  0.11870000000000003          1.0222221026197076E-003
  0.11980000000000002         -1.9259256077930331E-004
  0.12090000000000001         -1.6296294052153826E-003
  0.12200000000000003         -1.7037034267559648E-003
  0.12310000000000001         -2.2222219558898360E-004
  0.12420000000000003          1.3777775457128882E-003
  0.12530000000000002          2.0444442052394152E-003
  0.12640000000000001          1.3333332026377320E-003
  0.12750000000000003         -4.1481477092020214E-004
  0.12860000000000002         -1.4074072241783142E-003
  0.12970000000000001         -8.7407394312322140E-004
  0.13080000000000003          2.3703700571786612E-004
  0.13190000000000002          7.8518508234992623E-004
  0.13300000000000001         -2.3703700571786612E-004
  0.13410000000000000         -5.2592583233490586E-004
  0.13520000000000004         -5.0370366079732776E-004
  0.13630000000000003         -5.1851846365025267E-005
  0.13740000000000002          1.1703702621161938E-003
  0.13850000000000001          1.0444442741572857E-003
  0.13960000000000000         -4.3703697156161070E-004
  0.14070000000000005         -6.6388881532475352E-004
  0.14180000000000004         -1.2314812920521945E-004
  0.14290000000000003          6.3888879958540201E-004
  0.14400000000000002          1.7037034558597952E-004
  0.14510000000000001          2.2222218831302598E-005
  0.14620000000000000         -1.0296294931322336E-003
  0.14730000000000004         -1.3111109146848321E-003
  0.14840000000000003          2.7407403104007244E-004
  0.14950000000000002          8.7407394312322140E-004
  0.15060000000000001          9.7037025261670351E-004
  0.15170000000000000          7.8518508234992623E-004
  0.15280000000000005         -5.9259252157062292E-004
  0.15390000000000004         -9.9259242415428162E-004
  0.15500000000000003         -1.1703702621161938E-003
  0.15610000000000002         -5.7777768233790994E-004
  0.15720000000000001          6.3703698106110096E-004
  0.15830000000000000          1.4666664646938443E-003
  0.15940000000000004          4.8888882156461477E-004
  0.16050000000000003         -2.5185183039866388E-004
  0.16160000000000002          1.0370369273005053E-004
  0.16270000000000001          5.7777768233790994E-004
  0.16380000000000000          8.8888878235593438E-004
  0.16490000000000005          8.1481470260769129E-004
  0.16600000000000004         -9.1851840261369944E-004
  0.16710000000000003         -2.8296292293816805E-003
  0.16820000000000002         -3.2888883724808693E-003
  0.16930000000000001         -1.3703701552003622E-003
  0.17040000000000000          1.8222220242023468E-003
  0.17150000000000004          4.0148142725229263E-003
  0.17260000000000003          3.3629625104367733E-003
  0.17370000000000002          5.2592583233490586E-004
  0.17480000000000001         -2.2296293172985315E-003
  0.17590000000000000         -2.7703701052814722E-003
  0.17700000000000005         -9.9259242415428162E-004
  0.17810000000000004          1.2074072146788239E-003
  0.17920000000000003          2.0370366983115673E-003
  0.18030000000000002          5.6296290131285787E-004
  0.18140000000000001         -1.6407405491918325E-003
  0.18250000000000000         -2.3296293802559376E-003
  0.18360000000000004         -1.0703701991587877E-003
  0.18470000000000003          1.2592590646818280E-003
  0.18580000000000002          2.3999996483325958E-003
  0.18690000000000001          1.6703701112419367E-003
  0.18800000000000000         -2.2222219558898360E-004
  0.18910000000000005         -1.7296293517574668E-003
  0.19020000000000004         -1.6814812552183867E-003
  0.19130000000000003         -4.5555550605058670E-004
  0.19240000000000002          8.8518508709967136E-004
  0.19350000000000001          1.4148146146908402E-003
  0.19460000000000005          7.4814807157963514E-004
  0.19570000000000004         -2.5925922091118991E-004
  0.19680000000000003         -6.0370360733941197E-004
  0.19790000000000002         -2.4814810603857040E-004
  0.19900000000000001          3.8888884591870010E-004
  0.20010000000000000          3.3333330065943301E-004
  0.20120000000000005         -9.2592577857431024E-005
  0.20230000000000004         -3.1851849053055048E-004
  0.20340000000000003         -3.5925922566093504E-004
  0.20450000000000002         -2.8148145065642893E-004
  0.20560000000000000         -2.4814810603857040E-004
  0.20670000000000005         -4.8148143105208874E-004
  0.20780000000000004         -4.8518512630835176E-004
  0.20890000000000003          0.0000000000000000
