 -0.12000000000000000          0.0000000000000000     
 -0.11889999999999999          0.0000000000000000     
 -0.11780000000000000          0.0000000000000000     
 -0.11670000000000000          0.0000000000000000     
 -0.11559999999999999          0.0000000000000000     
 -0.11449999999999999          0.0000000000000000     
 -0.11340000000000000          0.0000000000000000     
 -0.11230000000000000          0.0000000000000000     
 -0.11119999999999999          0.0000000000000000     
 -0.11009999999999999          0.0000000000000000     
 -0.10900000000000000          7.6749255656474713E-024
 -0.10790000000000000         -3.0043467808198251E-023
 -0.10679999999999999         -2.8137489615496729E-022
 -0.10569999999999999          5.1824824275847029E-022
 -0.10460000000000000          6.9293606538099033E-021
 -0.10349999999999999          9.4431827301977280E-021
 -0.10239999999999999         -5.8643925954530161E-020
 -0.10130000000000000         -2.3266065145308968E-019
 -0.10020000000000000         -3.6535601535361165E-020
  -9.9099999999999994E-002     1.7054735423363195E-018
  -9.7999999999999990E-002     4.1380297441200122E-018
  -9.6899999999999986E-002    -1.5510283754198592E-018
  -9.5799999999999996E-002    -2.7925657184459617E-017
  -9.4699999999999993E-002    -5.3689712757305861E-017
  -9.3599999999999989E-002     2.4712225940813615E-017
  -9.2499999999999999E-002     3.1269327684679848E-016
  -9.1399999999999995E-002     5.6489336642482615E-016
  -9.0299999999999991E-002    -1.3429631939845067E-016
  -8.9200000000000002E-002    -2.5939761440446716E-015
  -8.8099999999999984E-002    -4.9224375287947476E-015
  -8.6999999999999994E-002    -5.6357469494462882E-016
  -8.5899999999999990E-002     1.6424937852952542E-014
  -8.4799999999999986E-002     3.5400230923715581E-014
  -8.3699999999999997E-002     1.7146930102467269E-014
  -8.2599999999999993E-002    -7.8628035614543290E-014
  -8.1499999999999989E-002    -2.0868201643705481E-013
  -8.0399999999999999E-002    -1.7527812697353679E-013
  -7.9299999999999995E-002     2.6238115412996477E-013
  -7.8199999999999992E-002     9.9909121774321985E-013
  -7.7100000000000002E-002     1.1980719151136188E-012
  -7.5999999999999984E-002    -3.7579152029759699E-013
  -7.4899999999999994E-002    -3.8071512088733162E-012
  -7.3799999999999991E-002    -6.1788486653557850E-012
  -7.2699999999999987E-002    -2.1166679520234766E-012
  -7.1599999999999997E-002     1.0931118857304689E-011
  -7.0499999999999993E-002     2.4977625870392650E-011
  -6.9399999999999989E-002     2.0337405370884909E-011
  -6.8300000000000000E-002    -1.9315608140724194E-011
  -6.7199999999999996E-002    -7.9256802509863888E-011
  -6.6099999999999992E-002    -9.9533263575590780E-011
  -6.5000000000000002E-002    -9.0407932876179764E-012
  -6.3899999999999985E-002     1.8947160507210015E-010
  -6.2799999999999995E-002     3.4846059371318461E-010
  -6.1699999999999991E-002     2.2723443959815626E-010
  -6.0599999999999994E-002    -2.8738444957099318E-010
  -5.9499999999999990E-002    -9.2389612627030715E-010
  -5.8399999999999994E-002    -1.0264117333846912E-009
  -5.7299999999999990E-002    -2.7148203823879058E-011
  -5.6199999999999986E-002     1.8068410101435006E-009
  -5.5099999999999996E-002     3.0393716432541851E-009
  -5.3999999999999992E-002     1.8486966402164740E-009
  -5.2899999999999989E-002    -2.1808503891662667E-009
  -5.1799999999999985E-002    -6.6245839924761185E-009
  -5.0699999999999995E-002    -7.0127681439657863E-009
  -4.9599999999999991E-002    -4.0114292443327315E-010
  -4.8499999999999988E-002     1.0524247251453289E-008
  -4.7399999999999998E-002     1.7000749252815694E-008
  -4.6299999999999994E-002     1.0004215234005187E-008
  -4.5199999999999990E-002    -1.0452158250018329E-008
  -4.4099999999999986E-002    -3.0608021006628405E-008
  -4.2999999999999997E-002    -3.0230790315499689E-008
  -4.1899999999999993E-002    -2.4240662255259338E-010
  -4.0799999999999989E-002     4.2743593553495884E-008
  -3.9699999999999985E-002     6.1632363212993369E-008
  -3.8599999999999995E-002     2.7521272372155181E-008
  -3.7499999999999992E-002    -4.7296712324396140E-008
  -3.6399999999999988E-002    -1.0419095985980675E-007
  -3.5299999999999984E-002    -7.8273863834965596E-008
  -3.4199999999999994E-002     3.8193416429521676E-008
  -3.3099999999999991E-002     1.6412269587817718E-007
  -3.1999999999999987E-002     1.7493371728960483E-007
  -3.0899999999999997E-002     1.0239377346010770E-008
  -2.9799999999999993E-002    -2.3947114868860808E-007
  -2.8699999999999989E-002    -3.6170641237731616E-007
  -2.7599999999999986E-002    -1.8196709561379976E-007
  -2.6499999999999996E-002     2.5272484549532237E-007
  -2.5399999999999992E-002     6.3551345874657272E-007
  -2.4299999999999988E-002     5.9359251736168517E-007
  -2.3199999999999985E-002     9.0739176172860425E-009
  -2.2099999999999995E-002    -7.9109696571322274E-007
  -2.0999999999999991E-002    -1.1900220897587133E-006
  -1.9899999999999987E-002    -7.3830477731462452E-007
  -1.8799999999999983E-002     4.1500942415950703E-007
  -1.7699999999999994E-002     1.5066302694322076E-006
  -1.6599999999999990E-002     1.6680160115356557E-006
  -1.5499999999999986E-002     6.2704458514417638E-007
  -1.4399999999999996E-002    -9.6872690846794285E-007
  -1.3299999999999992E-002    -1.9553385754988994E-006
  -1.2199999999999989E-002    -1.5541927496087737E-006
  -1.1099999999999985E-002    -6.6005569010485488E-008
  -9.9999999999999950E-003     1.2822803228118573E-006
  -8.8999999999999913E-003     1.3279890254125348E-006
  -7.7999999999999875E-003     4.1656562643765938E-008
  -6.6999999999999837E-003    -1.2807214488930185E-006
  -5.5999999999999939E-003    -1.0322136176910135E-006
  -4.4999999999999901E-003     1.1816805454145651E-006
  -3.3999999999999864E-003     3.7979345961502986E-006
  -2.2999999999999826E-003     4.1772045733523555E-006
  -1.1999999999999927E-003     7.0366769477914204E-007
  -9.9999999999988987E-005    -5.4345937314792536E-006
   1.0000000000000148E-003    -1.0357442988606635E-005
   2.1000000000000185E-003    -9.8169475677423179E-006
   3.2000000000000084E-003    -2.3472223347198451E-006
   4.3000000000000121E-003     9.0129478849121369E-006
   5.4000000000000159E-003     1.7930822650669143E-005
   6.5000000000000058E-003     1.8465396351530217E-005
   7.6000000000000234E-003     8.9421619122731499E-006
   8.7000000000000133E-003    -6.6051034082192928E-006
   9.8000000000000032E-003    -2.0537059754133224E-005
   1.0900000000000021E-002    -2.5985704269260168E-005
   1.2000000000000011E-002    -2.0646033590310253E-005
   1.3100000000000001E-002    -7.5194452620053198E-006
   1.4200000000000018E-002     7.6652804636978544E-006
   1.5300000000000008E-002     2.0189481801935472E-005
   1.6400000000000026E-002     2.8260361432330683E-005
   1.7500000000000016E-002     3.1715535442344844E-005
   1.8600000000000005E-002     2.9061824534437619E-005
   1.9700000000000023E-002     1.6312102161464281E-005
   2.0800000000000013E-002    -9.9435837910277769E-006
   2.1900000000000003E-002    -4.6524502977263182E-005
   2.3000000000000020E-002    -7.9707046097610146E-005
   2.4100000000000010E-002    -8.8600361777935177E-005
   2.5200000000000000E-002    -5.6620359828229994E-005
   2.6300000000000018E-002     1.4910925528965890E-005
   2.7400000000000008E-002     1.0084141104016453E-004
   2.8500000000000025E-002     1.6068264085333794E-004
   2.9600000000000015E-002     1.5913561219349504E-004
   3.0700000000000005E-002     8.7082487880252302E-005
   3.1800000000000023E-002    -3.0605959182139486E-005
   3.2900000000000013E-002    -1.4645462215412408E-004
   3.4000000000000002E-002    -2.1432619541883469E-004
   3.5100000000000020E-002    -2.1083850879222155E-004
   3.6200000000000010E-002    -1.4154502423480153E-004
   3.7300000000000028E-002    -3.0827730370219797E-005
   3.8400000000000017E-002     9.3678128905594349E-005
   3.9500000000000007E-002     2.0885621779598296E-004
   4.0600000000000025E-002     2.9192928923293948E-004
   4.1700000000000015E-002     3.1321155256591737E-004
   4.2800000000000005E-002     2.4002115242183208E-004
   4.3900000000000022E-002     5.7583820307627320E-005
   4.5000000000000012E-002    -2.0396392210386693E-004
   4.6100000000000002E-002    -4.5901595149189234E-004
   4.7200000000000020E-002    -5.9023767244070768E-004
   4.8300000000000010E-002    -5.0367094809189439E-004
   4.9400000000000027E-002    -1.8828986503649503E-004
   5.0500000000000017E-002     2.5692780036479235E-004
   5.1600000000000007E-002     6.5208418527618051E-004
   5.2700000000000025E-002     8.1451848382130265E-004
   5.3800000000000014E-002     6.4867048058658838E-004
   5.4900000000000004E-002     1.9973334565293044E-004
   5.6000000000000022E-002    -3.5970692988485098E-004
   5.7100000000000012E-002    -8.0479751341044903E-004
   5.8200000000000002E-002    -9.5614435849711299E-004
   5.9300000000000019E-002    -7.4989267159253359E-004
   6.0400000000000009E-002    -2.4866694002412260E-004
   6.1500000000000027E-002     4.0140593773685396E-004
   6.2600000000000017E-002     1.0318681597709656E-003
   6.3700000000000007E-002     1.4919172972440720E-003
   6.4800000000000024E-002     1.6528234118595719E-003
   6.5900000000000014E-002     1.3968908460810781E-003
   6.7000000000000004E-002     6.2696688110008836E-004
   6.8100000000000022E-002    -6.8507262039929628E-004
   6.9200000000000012E-002    -2.4325030390173197E-003
   7.0300000000000029E-002    -4.3433126993477345E-003
   7.1400000000000019E-002    -6.0323076322674751E-003
   7.2500000000000009E-002    -7.1369013749063015E-003
   7.3600000000000027E-002    -7.4818022549152374E-003
   7.4700000000000016E-002    -7.1896784938871861E-003
   7.5800000000000006E-002    -6.6765407100319862E-003
   7.6900000000000024E-002    -6.5297721885144711E-003
   7.8000000000000014E-002    -7.3246457614004612E-003
   7.9100000000000004E-002    -9.4579495489597321E-003
   8.0200000000000021E-002    -1.3060432858765125E-002
   8.1300000000000011E-002    -1.8004694953560829E-002
   8.2400000000000029E-002    -2.3993233218789101E-002
   8.3500000000000019E-002    -3.0694125220179558E-002
   8.4600000000000009E-002    -3.7887301295995712E-002
   8.5700000000000026E-002    -4.5591253787279129E-002
   8.6800000000000016E-002    -5.4129537194967270E-002
   8.7900000000000006E-002    -6.4111657440662384E-002
   8.9000000000000024E-002    -7.6325900852680206E-002
   9.0100000000000013E-002    -9.1574259102344513E-002
   9.1200000000000003E-002   -0.11052733659744263     
   9.2300000000000021E-002   -0.13365241885185242     
   9.3400000000000011E-002   -0.16125036776065826     
   9.4500000000000028E-002   -0.19358633458614349     
   9.5600000000000018E-002   -0.23104378581047058     
   9.6700000000000008E-002   -0.27423852682113647     
   9.7800000000000026E-002   -0.32402256131172180     
   9.8900000000000016E-002   -0.38143905997276306     
  0.10000000000000001        -0.44760352373123169     
  0.10110000000000002        -0.52365905046463013     
  0.10220000000000001        -0.61078822612762451     
  0.10330000000000003        -0.71024090051651001     
  0.10440000000000002        -0.82340753078460693     
  0.10550000000000001        -0.95176285505294800     
  0.10660000000000003         -1.0968177318572998     
  0.10770000000000002         -1.2599560022354126     
  0.10880000000000001         -1.4423726797103882     
  0.10990000000000003         -1.6452039480209351     
  0.11100000000000002         -1.8695218563079834     
  0.11210000000000001         -2.1164886951446533     
  0.11320000000000002         -2.3873808383941650     
  0.11430000000000001         -2.6833007335662842     
  0.11540000000000003         -3.0051074028015137     
  0.11650000000000002         -3.3530721664428711     
  0.11760000000000001         -3.7268521785736084     
  0.11870000000000003         -4.1256709098815918     
  0.11980000000000002         -4.5483517646789551     
  0.12090000000000001         -4.9933991432189941     
  0.12200000000000003         -5.4587106704711914     
  0.12310000000000001         -5.9414854049682617     
  0.12420000000000003         -6.4375166893005371     
  0.12530000000000002         -6.9421162605285645     
  0.12640000000000001         -7.4498157501220703     
  0.12750000000000003         -7.9544391632080078     
  0.12860000000000002         -8.4489364624023438     
  0.12970000000000001         -8.9251861572265625     
  0.13080000000000003         -9.3741788864135742     
  0.13190000000000002         -9.7853097915649414     
  0.13300000000000001         -10.146848678588867     
  0.13410000000000000         -10.446105003356934     
  0.13520000000000004         -10.670593261718750     
  0.13630000000000003         -10.807193756103516     
  0.13740000000000002         -10.842786788940430     
  0.13850000000000001         -10.764348983764648     
  0.13960000000000000         -10.559695243835449     
  0.14070000000000005         -10.215770721435547     
  0.14180000000000004         -9.7204961776733398     
  0.14290000000000003         -9.0616960525512695     
  0.14400000000000002         -8.2296295166015625     
  0.14510000000000001         -7.2152009010314941     
  0.14620000000000000         -6.0120596885681152     
  0.14730000000000004         -4.6152601242065430     
  0.14840000000000003         -3.0247917175292969     
  0.14950000000000002         -1.2411800622940063     
  0.15060000000000001         0.73029708862304688     
  0.15170000000000000          2.8792021274566650     
  0.15280000000000005          5.1943144798278809     
  0.15390000000000004          7.6598649024963379     
  0.15500000000000003          10.256448745727539     
  0.15610000000000002          12.961290359497070     
  0.15720000000000001          15.746468544006348     
  0.15830000000000000          18.582151412963867     
  0.15940000000000004          21.433826446533203     
  0.16050000000000003          24.265775680541992     
  0.16160000000000002          27.035882949829102     
  0.16270000000000001          29.701490402221680     
  0.16380000000000000          32.220275878906250     
  0.16490000000000005          34.551147460937500     
  0.16600000000000004          36.649425506591797     
  0.16710000000000003          38.474945068359375     
  0.16820000000000002          39.987213134765625     
  0.16930000000000001          41.149230957031250     
  0.17040000000000000          41.925708770751953     
  0.17150000000000004          42.287021636962891     
  0.17260000000000003          42.208347320556641     
  0.17370000000000002          41.671207427978516     
  0.17480000000000001          40.661304473876953     
  0.17590000000000000          39.173419952392578     
  0.17700000000000005          37.209011077880859     
  0.17810000000000004          34.778636932373047     
  0.17920000000000003          31.899326324462891     
  0.18030000000000002          28.595113754272461     
  0.18140000000000001          24.896373748779297     
  0.18250000000000000          20.842908859252930     
  0.18360000000000004          16.479984283447266     
  0.18470000000000003          11.858448028564453     
  0.18580000000000002          7.0331392288208008     
  0.18690000000000001          2.0653722286224365     
  0.18800000000000000         -2.9822905063629150     
  0.18910000000000005         -8.0430831909179688     
  0.19020000000000004         -13.051270484924316     
  0.19130000000000003         -17.939397811889648     
  0.19240000000000002         -22.642589569091797     
  0.19350000000000001         -27.099441528320312     
  0.19460000000000005         -31.252969741821289     
  0.19570000000000004         -35.049327850341797     
  0.19680000000000003         -38.441440582275391     
  0.19790000000000002         -41.389144897460938     
  0.19900000000000001         -43.856250762939453     
  0.20010000000000000         -45.818386077880859     
  0.20120000000000005         -47.256675720214844     
  0.20230000000000004         -48.160346984863281     
  0.20340000000000003         -48.529106140136719     
  0.20450000000000002         -48.369808197021484     
  0.20560000000000000         -47.698421478271484     
  0.20670000000000005         -46.537872314453125     
  0.20780000000000004         -44.917407989501953     
  0.20890000000000003         -42.873348236083984     
