 -0.12000000000000000          0.0000000000000000
 -0.11889999999999999          0.0000000000000000
 -0.11780000000000000          0.0000000000000000
 -0.11670000000000000          0.0000000000000000
 -0.11559999999999999          0.0000000000000000
 -0.11449999999999999         -1.2607133354847547E-014
 -0.11340000000000000         -3.6411283330876204E-014
 -0.11230000000000000          1.0665899180571994E-013
 -0.11119999999999999          8.6729180694827823E-013
 -0.11009999999999999          2.3548582788607275E-012
 -0.10900000000000000          2.8888193920328931E-012
 -0.10790000000000000         -1.4763002018775007E-012
 -0.10679999999999999         -1.3506114629469046E-011
 -0.10569999999999999         -2.7633065974308479E-011
 -0.10460000000000000         -2.6201169706085992E-011
 -0.10349999999999999          1.0803415453897180E-011
 -0.10239999999999999          8.1846564248255760E-011
 -0.10130000000000000          1.4383121083039185E-010
 -0.10020000000000000          1.2384011871535705E-010
  -9.9099999999999994E-002    -2.7203843344647538E-011
  -9.7999999999999990E-002    -2.6926133545046582E-010
  -9.6899999999999986E-002    -4.5587572605754190E-010
  -9.5799999999999996E-002    -4.0577968762889327E-010
  -9.4699999999999993E-002    -3.7467320912476509E-011
  -9.3599999999999989E-002     5.2567744601716981E-010
  -9.2499999999999999E-002     9.7592212089381292E-010
  -9.1399999999999995E-002     9.8581143248566150E-010
  -9.0299999999999991E-002     4.2593623073017284E-010
  -8.9200000000000002E-002    -5.1112991616975023E-010
  -8.8099999999999984E-002    -1.3793781672433170E-009
  -8.6999999999999994E-002    -1.7137335994732439E-009
  -8.5899999999999990E-002    -1.2894501022486793E-009
  -8.4799999999999986E-002    -2.4625854133653036E-010
  -8.3699999999999997E-002     9.9164487732394946E-010
  -8.2599999999999993E-002     1.9319126298711353E-009
  -8.1499999999999989E-002     2.2190433934810017E-009
  -8.0399999999999999E-002     1.7204527802405778E-009
  -7.9299999999999995E-002     5.1098481002043172E-010
  -7.8199999999999992E-002    -1.1363087137894468E-009
  -7.7100000000000002E-002    -2.6964639410209656E-009
  -7.5999999999999984E-002    -3.3869138604813998E-009
  -7.4899999999999994E-002    -2.4236346263251107E-009
  -7.3799999999999991E-002     3.9987319011558498E-010
  -7.2699999999999987E-002     4.1300252107134838E-009
  -7.1599999999999997E-002     6.6655867492215748E-009
  -7.0499999999999993E-002     5.7489266680477158E-009
  -6.9399999999999989E-002     5.7659099717000117E-010
  -6.8300000000000000E-002    -7.0743553237662127E-009
  -6.7199999999999996E-002    -1.3301091783546326E-008
  -6.6099999999999992E-002    -1.4187030217271968E-008
  -6.5000000000000002E-002    -8.2742825924242425E-009
  -6.3899999999999985E-002     2.4345916393997413E-009
  -6.2799999999999995E-002     1.3803671983225740E-008
  -6.1699999999999991E-002     2.2225307816370332E-008
  -6.0599999999999994E-002     2.6451980161823485E-008
  -5.9499999999999990E-002     2.7078982611783431E-008
  -5.8399999999999994E-002     2.4169453993749812E-008
  -5.7299999999999990E-002     1.5117397111907849E-008
  -5.6199999999999986E-002    -5.4526685389078011E-009
  -5.5099999999999996E-002    -4.3891823509056849E-008
  -5.3999999999999992E-002    -1.0571040576223822E-007
  -5.2899999999999989E-002    -1.9545664997622225E-007
  -5.1799999999999985E-002    -3.1816776413506886E-007
  -5.0699999999999995E-002    -4.8066732460938510E-007
  -4.9599999999999991E-002    -6.9130368274272769E-007
  -4.8499999999999988E-002    -9.5863015303621069E-007
  -4.7399999999999998E-002    -1.2909503084301832E-006
  -4.6299999999999994E-002    -1.6979788597382139E-006
  -4.5199999999999990E-002    -2.1937494238954969E-006
  -4.4099999999999986E-002    -2.7986666282231454E-006
  -4.2999999999999997E-002    -3.5396810744714458E-006
  -4.1899999999999993E-002    -4.4498433453554753E-006
  -4.0799999999999989E-002    -5.5692898968118243E-006
  -3.9699999999999985E-002    -6.9478642217291053E-006
  -3.8599999999999995E-002    -8.6470481619471684E-006
  -3.7499999999999992E-002    -1.0738861419667955E-005
  -3.6399999999999988E-002    -1.3302682418725453E-005
  -3.5299999999999984E-002    -1.6424502973677590E-005
  -3.4199999999999994E-002    -2.0202647647238337E-005
  -3.3099999999999991E-002    -2.4758872314123437E-005
  -3.1999999999999987E-002    -3.0248307666624896E-005
  -3.0899999999999997E-002    -3.6861601984128356E-005
  -2.9799999999999993E-002    -4.4819003960583359E-005
  -2.8699999999999989E-002    -5.4363768867915496E-005
  -2.7599999999999986E-002    -6.5763771999627352E-005
  -2.6499999999999996E-002    -7.9323814134113491E-005
  -2.5399999999999992E-002    -9.5402108854614198E-005
  -2.4299999999999988E-002    -1.1442152754170820E-004
  -2.3199999999999985E-002    -1.3687151658814400E-004
  -2.2099999999999995E-002    -1.6330523067153990E-004
  -2.0999999999999991E-002    -1.9434024579823017E-004
  -1.9899999999999987E-002    -2.3066629364620894E-004
  -1.8799999999999983E-002    -2.7305641560815275E-004
  -1.7699999999999994E-002    -3.2237518462352455E-004
  -1.6599999999999990E-002    -3.7958219763822854E-004
  -1.5499999999999986E-002    -4.4573564082384109E-004
  -1.4399999999999996E-002    -5.2200065692886710E-004
  -1.3299999999999992E-002    -6.0966151067987084E-004
  -1.2199999999999989E-002    -7.1013037813827395E-004
  -1.1099999999999985E-002    -8.2494626985862851E-004
  -9.9999999999999950E-003    -9.5576659077778459E-004
  -8.8999999999999913E-003    -1.1043580016121268E-003
  -7.7999999999999875E-003    -1.2725932756438851E-003
  -6.6999999999999837E-003    -1.4624539762735367E-003
  -5.5999999999999939E-003    -1.6760273138061166E-003
  -4.4999999999999901E-003    -1.9154946785420179E-003
  -3.3999999999999864E-003    -2.1831151098012924E-003
  -2.2999999999999826E-003    -2.4812088813632727E-003
  -1.1999999999999927E-003    -2.8121445793658495E-003
  -9.9999999999988987E-005    -3.1783240847289562E-003
   1.0000000000000148E-003    -3.5821436904370785E-003
   2.1000000000000185E-003    -4.0259435772895813E-003
   3.2000000000000084E-003    -4.5119472779333591E-003
   4.3000000000000121E-003    -5.0422120839357376E-003
   5.4000000000000159E-003    -5.6186006404459476E-003
   6.5000000000000058E-003    -6.2427502125501633E-003
   7.6000000000000234E-003    -6.9160340353846550E-003
   8.7000000000000133E-003    -7.6394933275878429E-003
   9.8000000000000032E-003    -8.4137599915266037E-003
   1.0900000000000021E-002    -9.2389844357967377E-003
   1.2000000000000011E-002    -1.0114783421158791E-002
   1.3100000000000001E-002    -1.1040177196264267E-002
   1.4200000000000018E-002    -1.2013524770736694E-002
   1.5300000000000008E-002    -1.3032458722591400E-002
   1.6400000000000026E-002    -1.4093816280364990E-002
   1.7500000000000016E-002    -1.5193598344922066E-002
   1.8600000000000005E-002    -1.6326952725648880E-002
   1.9700000000000023E-002    -1.7488174140453339E-002
   2.0800000000000013E-002    -1.8670681864023209E-002
   2.1900000000000003E-002    -1.9866999238729477E-002
   2.3000000000000020E-002    -2.1068733185529709E-002
   2.4100000000000010E-002    -2.2266587242484093E-002
   2.5200000000000000E-002    -2.3450400680303574E-002
   2.6300000000000018E-002    -2.4609217420220375E-002
   2.7400000000000008E-002    -2.5731366127729416E-002
   2.8500000000000025E-002    -2.6804549619555473E-002
   2.9600000000000015E-002    -2.7815960347652435E-002
   3.0700000000000005E-002    -2.8752403333783150E-002
   3.1800000000000023E-002    -2.9600445181131363E-002
   3.2900000000000013E-002    -3.0346583575010300E-002
   3.4000000000000002E-002    -3.0977405607700348E-002
   3.5100000000000020E-002    -3.1479761004447937E-002
   3.6200000000000010E-002    -3.1840927898883820E-002
   3.7300000000000028E-002    -3.2048832625150681E-002
   3.8400000000000017E-002    -3.2092232257127762E-002
   3.9500000000000007E-002    -3.1960964202880859E-002
   4.0600000000000025E-002    -3.1646113842725754E-002
   4.1700000000000015E-002    -3.1140176579356194E-002
   4.2800000000000005E-002    -3.0437260866165161E-002
   4.3900000000000022E-002    -2.9533231630921364E-002
   4.5000000000000012E-002    -2.8425890952348709E-002
   4.6100000000000002E-002    -2.7115082368254662E-002
   4.7200000000000020E-002    -2.5602761656045914E-002
   4.8300000000000010E-002    -2.3893013596534729E-002
   4.9400000000000027E-002    -2.1992083638906479E-002
   5.0500000000000017E-002    -1.9908390939235687E-002
   5.1600000000000007E-002    -1.7652530223131180E-002
   5.2700000000000025E-002    -1.5237189829349518E-002
   5.3800000000000014E-002    -1.2677026912570000E-002
   5.4900000000000004E-002    -9.9884923547506332E-003
   5.6000000000000022E-002    -7.1896500885486603E-003
   5.7100000000000012E-002    -4.2999982833862305E-003
   5.8200000000000002E-002    -1.3402713229879737E-003
   5.9300000000000019E-002     1.6678124666213989E-003
   6.0400000000000009E-002     4.7018453478813171E-003
   6.1500000000000027E-002     7.7390503138303757E-003
   6.2600000000000017E-002     1.0756584815680981E-002
   6.3700000000000007E-002     1.3731824234127998E-002
   6.4800000000000024E-002     1.6642624512314796E-002
   6.5900000000000014E-002     1.9467601552605629E-002
   6.7000000000000004E-002     2.2186424583196640E-002
   6.8100000000000022E-002     2.4780064821243286E-002
   6.9200000000000012E-002     2.7231048792600632E-002
   7.0300000000000029E-002     2.9523642733693123E-002
   7.1400000000000019E-002     3.1644016504287720E-002
   7.2500000000000009E-002     3.3580407500267029E-002
   7.3600000000000027E-002     3.5323224961757660E-002
   7.4700000000000016E-002     3.6865156143903732E-002
   7.5800000000000006E-002     3.8201153278350830E-002
   7.6900000000000024E-002     3.9328422397375107E-002
   7.8000000000000014E-002     4.0246367454528809E-002
   7.9100000000000004E-002     4.0956553071737289E-002
   8.0200000000000021E-002     4.1462600231170654E-002
   8.1300000000000011E-002     4.1770052164793015E-002
   8.2400000000000029E-002     4.1886139661073685E-002
   8.3500000000000019E-002     4.1819609701633453E-002
   8.4600000000000009E-002     4.1580483317375183E-002
   8.5700000000000026E-002     4.1179951280355453E-002
   8.6800000000000016E-002     4.0630161762237549E-002
   8.7900000000000006E-002     3.9943996816873550E-002
   8.9000000000000024E-002     3.9134800434112549E-002
   9.0100000000000013E-002     3.8216080516576767E-002
   9.1200000000000003E-002     3.7201292812824249E-002
   9.2300000000000021E-002     3.6103736609220505E-002
   9.3400000000000011E-002     3.4936416894197464E-002
   9.4500000000000028E-002     3.3711899071931839E-002
   9.5600000000000018E-002     3.2442089170217514E-002
   9.6700000000000008E-002     3.1138062477111816E-002
   9.7800000000000026E-002     2.9809974133968353E-002
   9.8900000000000016E-002     2.8467081487178802E-002
  0.10000000000000001          2.7117760851979256E-002
  0.10110000000000002          2.5769481435418129E-002
  0.10220000000000001          2.4428723379969597E-002
  0.10330000000000003          2.3100933060050011E-002
  0.10440000000000002          2.1790573373436928E-002
  0.10550000000000001          2.0501241087913513E-002
  0.10660000000000003          1.9235791638493538E-002
  0.10770000000000002          1.7996395006775856E-002
  0.10880000000000001          1.6784565523266792E-002
  0.10990000000000003          1.5601203776896000E-002
  0.11100000000000002          1.4446720480918884E-002
  0.11210000000000001          1.3321189209818840E-002
  0.11320000000000002          1.2224448844790459E-002
  0.11430000000000001          1.1156156659126282E-002
  0.11540000000000003          1.0115809738636017E-002
  0.11650000000000002          9.1028129681944847E-003
  0.11760000000000001          8.1165777519345284E-003
  0.11870000000000003          7.1566328406333923E-003
  0.11980000000000002          6.2226504087448120E-003
  0.12090000000000001          5.3144139237701893E-003
  0.12200000000000003          4.4317878782749176E-003
  0.12310000000000001          3.5747550427913666E-003
  0.12420000000000003          2.7435049414634705E-003
  0.12530000000000002          1.9384891493245959E-003
  0.12640000000000001          1.1603824095800519E-003
  0.12750000000000003          4.0996941970661283E-004
  0.12860000000000002         -3.1194358598440886E-004
  0.12970000000000001         -1.0045262752100825E-003
  0.13080000000000003         -1.6668587923049927E-003
  0.13190000000000002         -2.2979003842920065E-003
  0.13300000000000001         -2.8965589590370655E-003
  0.13410000000000000         -3.4618263598531485E-003
  0.13520000000000004         -3.9928709156811237E-003
  0.13630000000000003         -4.4890255667269230E-003
  0.13740000000000002         -4.9497056752443314E-003
  0.13850000000000001         -5.3743696771562099E-003
  0.13960000000000000         -5.7625761255621910E-003
  0.14070000000000005         -6.1140968464314938E-003
  0.14180000000000004         -6.4289853908121586E-003
  0.14290000000000003         -6.7075518891215324E-003
  0.14400000000000002         -6.9502736441791058E-003
  0.14510000000000001         -7.1577536873519421E-003
  0.14620000000000000         -7.3307515121996403E-003
  0.14730000000000004         -7.4702552519738674E-003
  0.14840000000000003         -7.5774951837956905E-003
  0.14950000000000002         -7.6538817957043648E-003
  0.15060000000000001         -7.7009107917547226E-003
  0.15170000000000000         -7.7201304957270622E-003
  0.15280000000000005         -7.7131805010139942E-003
  0.15390000000000004         -7.6818354427814484E-003
  0.15500000000000003         -7.6279840432107449E-003
  0.15610000000000002         -7.5535383075475693E-003
  0.15720000000000001         -7.4603604152798653E-003
  0.15830000000000000         -7.3502650484442711E-003
  0.15940000000000004         -7.2250855155289173E-003
  0.16050000000000003         -7.0867147296667099E-003
  0.16160000000000002         -6.9370488636195660E-003
  0.16270000000000001         -6.7778760567307472E-003
  0.16380000000000000         -6.6108061000704765E-003
  0.16490000000000005         -6.4373044297099113E-003
  0.16600000000000004         -6.2587913125753403E-003
  0.16710000000000003         -6.0766963288187981E-003
  0.16820000000000002         -5.8924006298184395E-003
  0.16930000000000001         -5.7071200571954250E-003
  0.17040000000000000         -5.5218520574271679E-003
  0.17150000000000004         -5.3374390117824078E-003
  0.17260000000000003         -5.1546893082559109E-003
  0.17370000000000002         -4.9744369462132454E-003
  0.17480000000000001         -4.7974782064557076E-003
  0.17590000000000000         -4.6244570985436440E-003
  0.17700000000000005         -4.4558113440871239E-003
  0.17810000000000004         -4.2918310500681400E-003
  0.17920000000000003         -4.1327718645334244E-003
  0.18030000000000002         -3.9789108559489250E-003
  0.18140000000000001         -3.8305073976516724E-003
  0.18250000000000000         -3.6877163220196962E-003
  0.18360000000000004         -3.5505599807947874E-003
  0.18470000000000003         -3.4189883153885603E-003
  0.18580000000000002         -3.2929622102528811E-003
  0.18690000000000001         -3.1724774744361639E-003
  0.18800000000000000         -3.0575119890272617E-003
  0.18910000000000005         -2.9479647055268288E-003
  0.19020000000000004         -2.8436551801860332E-003
  0.19130000000000003         -2.7443841099739075E-003
  0.19240000000000002         -2.6499833911657333E-003
  0.19350000000000001         -2.5603042449802160E-003
  0.19460000000000005         -2.4751578457653522E-003
  0.19570000000000004         -2.3942890111356974E-003
  0.19680000000000003         -2.3174223024398088E-003
  0.19790000000000002         -2.2443372290581465E-003
  0.19900000000000001         -2.1748936269432306E-003
  0.20010000000000000         -2.1089727524667978E-003
  0.20120000000000005         -2.0463904365897179E-003
  0.20230000000000004         -1.9868786912411451E-003
  0.20340000000000003         -1.9301587017253041E-003
  0.20450000000000002         -1.8760346574708819E-003
  0.20560000000000000         -1.8244081875309348E-003
  0.20670000000000005         -1.7751939594745636E-003
  0.20780000000000004         -1.7282229382544756E-003
  0.20890000000000003         -1.6832314431667328E-003
