 -0.12000000000000000          0.0000000000000000     
 -0.11889999999999999          0.0000000000000000     
 -0.11780000000000000          0.0000000000000000     
 -0.11670000000000000          0.0000000000000000     
 -0.11559999999999999          0.0000000000000000     
 -0.11449999999999999          0.0000000000000000     
 -0.11340000000000000          0.0000000000000000     
 -0.11230000000000000          0.0000000000000000     
 -0.11119999999999999          0.0000000000000000     
 -0.11009999999999999          0.0000000000000000     
 -0.10900000000000000          6.3770610445374831E-020
 -0.10790000000000000         -1.6996587986721955E-019
 -0.10679999999999999         -1.6415590541631487E-018
 -0.10569999999999999          4.5371729274079811E-018
 -0.10460000000000000          3.6912438526811328E-017
 -0.10349999999999999         -2.6867653476334892E-017
 -0.10239999999999999         -6.4068264523202954E-016
 -0.10130000000000000         -1.4191255643351960E-015
 -0.10020000000000000          2.4007681405342025E-015
  -9.9099999999999994E-002     1.7493368271960172E-014
  -9.7999999999999990E-002     2.4696829528810492E-014
  -9.6899999999999986E-002    -5.6325566633779259E-014
  -9.5799999999999996E-002    -2.7772716851975909E-013
  -9.4699999999999993E-002    -3.1612402582800736E-013
  -9.3599999999999989E-002     7.4030798852264823E-013
  -9.2499999999999999E-002     3.2078810094371413E-012
  -9.1399999999999995E-002     3.6804678228696819E-012
  -9.0299999999999991E-002    -5.9739162401595269E-012
  -8.9200000000000002E-002    -2.8311233565836424E-011
  -8.8099999999999984E-002    -3.7372962363724227E-011
  -8.6999999999999994E-002     2.7238945474183929E-011
  -8.5899999999999990E-002     1.9276721885397308E-010
  -8.4799999999999986E-002     3.0882621460115445E-010
  -8.3699999999999997E-002    -3.5442840069094261E-012
  -8.2599999999999993E-002    -1.0010464679410802E-009
  -8.1499999999999989E-002    -2.0257739929974150E-009
  -8.0399999999999999E-002    -1.0770117020442171E-009
  -7.9299999999999995E-002     3.7440344158312655E-009
  -7.8199999999999992E-002     1.0465310396057248E-008
  -7.7100000000000002E-002     1.0313424780861169E-008
  -7.5999999999999984E-002    -7.7891444405508992E-009
  -7.4899999999999994E-002    -4.1861845545554388E-008
  -7.3799999999999991E-002    -6.0753848174499581E-008
  -7.2699999999999987E-002    -1.2640274604791557E-008
  -7.1599999999999997E-002     1.2234545465616975E-007
  -7.0499999999999993E-002     2.5990050289692590E-007
  -6.9399999999999989E-002     2.0441549963834404E-007
  -6.8300000000000000E-002    -2.0478918827393500E-007
  -6.7199999999999996E-002    -8.2714325344568351E-007
  -6.6099999999999992E-002    -1.0742736549218534E-006
  -6.5000000000000002E-002    -2.1131212690761458E-007
  -6.3899999999999985E-002     1.8368176597505226E-006
  -6.2799999999999995E-002     3.7286474707798334E-006
  -6.1699999999999991E-002     3.0134938242554199E-006
  -6.0599999999999994E-002    -1.9077278921031393E-006
  -5.9499999999999990E-002    -9.1154506662860513E-006
  -5.8399999999999994E-002    -1.2403221262502484E-005
  -5.7299999999999990E-002    -4.8586261982563883E-006
  -5.6199999999999986E-002     1.3940477401774842E-005
  -5.5099999999999996E-002     3.2554038625676185E-005
  -5.3999999999999992E-002     3.1422030588146299E-005
  -5.2899999999999989E-002    -2.0746781501657097E-006
  -5.1799999999999985E-002    -5.5919135775184259E-005
  -5.0699999999999995E-002    -9.0137029474135488E-005
  -4.9599999999999991E-002    -5.9978530771331862E-005
  -4.8499999999999988E-002     4.2808151192730293E-005
  -4.7399999999999998E-002     1.6220535326283425E-004
  -4.6299999999999994E-002     1.9822963804472238E-004
  -4.5199999999999990E-002     7.9253099102061242E-005
  -4.4099999999999986E-002    -1.5908568457234651E-004
  -4.2999999999999997E-002    -3.6074372474104166E-004
  -4.1899999999999993E-002    -3.4179765498265624E-004
  -4.0799999999999989E-002    -4.3603296944638714E-005
  -3.9699999999999985E-002     3.7336151581257582E-004
  -3.8599999999999995E-002     6.0250359820201993E-004
  -3.7499999999999992E-002     4.1826535016298294E-004
  -3.6399999999999988E-002    -1.0496765753487125E-004
  -3.5299999999999984E-002    -5.8841943973675370E-004
  -3.4199999999999994E-002    -6.2488176627084613E-004
  -3.3099999999999991E-002    -1.5236815670505166E-004
  -3.1999999999999987E-002     4.0736168739385903E-004
  -3.0899999999999997E-002     4.5180821325629950E-004
  -2.9799999999999993E-002    -2.1997498697601259E-004
  -2.8699999999999989E-002    -1.0379636660218239E-003
  -2.7599999999999986E-002    -9.5532584236934781E-004
  -2.6499999999999996E-002     6.3636625418439507E-004
  -2.5399999999999992E-002     3.0334647744894028E-003
  -2.4299999999999988E-002     4.2534312233328819E-003
  -2.3199999999999985E-002     2.3056180216372013E-003
  -2.2099999999999995E-002    -2.9806320089846849E-003
  -2.0999999999999991E-002    -8.9765908196568489E-003
  -1.9899999999999987E-002    -1.1255820281803608E-002
  -1.8799999999999983E-002    -6.4045158214867115E-003
  -1.7699999999999994E-002     5.0362036563456059E-003
  -1.6599999999999990E-002     1.7700500786304474E-002
  -1.5499999999999986E-002     2.3739671334624290E-002
  -1.4399999999999996E-002     1.7394568771123886E-002
  -1.3299999999999992E-002    -9.1922585852444172E-004
  -1.2199999999999989E-002    -2.3754021152853966E-002
  -1.1099999999999985E-002    -3.9865948259830475E-002
  -9.9999999999999950E-003    -3.9841182529926300E-002
  -8.8999999999999913E-003    -2.0924082025885582E-002
  -7.7999999999999875E-003     1.1511048302054405E-002
  -6.6999999999999837E-003     4.6179018914699554E-002
  -5.5999999999999939E-003     7.0017248392105103E-002
  -4.4999999999999901E-003     7.2018414735794067E-002
  -3.3999999999999864E-003     4.5901454985141754E-002
  -2.2999999999999826E-003    -7.5875548645853996E-003
  -1.1999999999999927E-003    -7.7899567782878876E-002
  -9.9999999999988987E-005   -0.14266096055507660     
   1.0000000000000148E-003   -0.17011892795562744     
   2.1000000000000185E-003   -0.12968471646308899     
   3.2000000000000084E-003    -9.8047098144888878E-003
   4.3000000000000121E-003    0.16467218101024628     
   5.4000000000000159E-003    0.32822066545486450     
   6.5000000000000058E-003    0.39328411221504211     
   7.6000000000000234E-003    0.29021051526069641     
   8.7000000000000133E-003     1.1985849589109421E-002
   9.8000000000000032E-003   -0.36143732070922852     
   1.0900000000000021E-002   -0.67917776107788086     
   1.2000000000000011E-002   -0.77678823471069336     
   1.3100000000000001E-002   -0.55277252197265625     
   1.4200000000000018E-002    -2.8563806787133217E-002
   1.5300000000000008E-002    0.63879787921905518     
   1.6400000000000026E-002     1.2010475397109985     
   1.7500000000000016E-002     1.4048737287521362     
   1.8600000000000005E-002     1.0888148546218872     
   1.9700000000000023E-002    0.25850784778594971     
   2.0800000000000013E-002   -0.88352805376052856     
   2.1900000000000003E-002    -1.9673031568527222     
   2.3000000000000020E-002    -2.5487768650054932     
   2.4100000000000010E-002    -2.2587411403656006     
   2.5200000000000000E-002   -0.97438764572143555     
   2.6300000000000018E-002     1.0496264696121216     
   2.7400000000000008E-002     3.1699805259704590     
   2.8500000000000025E-002     4.5194234848022461     
   2.9600000000000015E-002     4.3321371078491211     
   3.0700000000000005E-002     2.3195788860321045     
   3.1800000000000023E-002    -1.0788854360580444     
   3.2900000000000013E-002    -4.7304296493530273     
   3.4000000000000002E-002    -7.1765704154968262     
   3.5100000000000020E-002    -7.2185530662536621     
   3.6200000000000010E-002    -4.4730305671691895     
   3.7300000000000028E-002    0.36770737171173096     
   3.8400000000000017E-002     5.7174534797668457     
   3.9500000000000007E-002     9.6624956130981445     
   4.0600000000000025E-002     10.673755645751953     
   4.1700000000000015E-002     8.1647863388061523     
   4.2800000000000005E-002     2.6859571933746338     
   4.3900000000000022E-002    -4.2720637321472168     
   4.5000000000000012E-002    -10.728867530822754     
   4.6100000000000002E-002    -14.728225708007812     
   4.7200000000000020E-002    -14.789304733276367     
   4.8300000000000010E-002    -10.273116111755371     
   4.9400000000000027E-002    -1.6806805133819580     
   5.0500000000000017E-002     9.1720466613769531     
   5.1600000000000007E-002     19.275184631347656     
   5.2700000000000025E-002     25.041498184204102     
   5.3800000000000014E-002     23.451143264770508     
   5.4900000000000004E-002     13.428566932678223     
   5.6000000000000022E-002    -3.1495366096496582     
   5.7100000000000012E-002    -21.460113525390625     
   5.8200000000000002E-002    -35.056095123291016     
   5.9300000000000019E-002    -38.185657501220703     
   6.0400000000000009E-002    -28.201429367065430     
   6.1500000000000027E-002    -6.9546060562133789     
   6.2600000000000017E-002     19.563947677612305     
   6.3700000000000007E-002     43.281124114990234     
   6.4800000000000024E-002     56.921928405761719     
   6.5900000000000014E-002     56.435512542724609     
   6.7000000000000004E-002     41.938796997070312     
   6.8100000000000022E-002     16.925237655639648     
   6.9200000000000012E-002    -13.641283035278320     
   7.0300000000000029E-002    -45.250274658203125     
   7.1400000000000019E-002    -74.872398376464844     
   7.2500000000000009E-002    -100.89662170410156     
   7.3600000000000027E-002    -122.56697845458984     
   7.4700000000000016E-002    -139.84138488769531     
   7.5800000000000006E-002    -154.20747375488281     
   7.6900000000000024E-002    -170.10522460937500     
   7.8000000000000014E-002    -195.80865478515625     
   7.9100000000000004E-002    -242.54498291015625     
   8.0200000000000021E-002    -321.47384643554688     
   8.1300000000000011E-002    -439.55645751953125     
   8.2400000000000029E-002    -596.45025634765625     
   8.3500000000000019E-002    -784.56555175781250     
   8.4600000000000009E-002    -993.14196777343750     
   8.5700000000000026E-002    -1215.0871582031250     
   8.6800000000000016E-002    -1453.6646728515625     
   8.7900000000000006E-002    -1725.7657470703125     
   8.9000000000000024E-002    -2059.8933105468750     
   9.0100000000000013E-002    -2489.5993652343750     
   9.1200000000000003E-002    -3045.3740234375000     
   9.2300000000000021E-002    -3748.9438476562500     
   9.3400000000000011E-002    -4612.7329101562500     
   9.4500000000000028E-002    -5644.7597656250000     
   9.5600000000000018E-002    -6856.4946289062500     
   9.6700000000000008E-002    -8269.9326171875000     
   9.7800000000000026E-002    -9920.6308593750000     
   9.8900000000000016E-002    -11856.023437500000     
  0.10000000000000001         -14130.975585937500     
  0.10110000000000002         -16803.371093750000     
  0.10220000000000001         -19932.771484375000     
  0.10330000000000003         -23582.316406250000     
  0.10440000000000002         -27821.962890625000     
  0.10550000000000001         -32731.244140625000     
  0.10660000000000003         -38398.335937500000     
  0.10770000000000002         -44917.414062500000     
  0.10880000000000001         -52385.250000000000     
  0.10990000000000003         -60901.433593750000     
  0.11100000000000002         -70570.179687500000     
  0.11210000000000001         -81505.296875000000     
  0.11320000000000002         -93832.406250000000     
  0.11430000000000001         -107687.92968750000     
  0.11540000000000003         -123213.32812500000     
  0.11650000000000002         -140547.85937500000     
  0.11760000000000001         -159821.65625000000     
  0.11870000000000003         -181153.43750000000     
  0.11980000000000002         -204652.14062500000     
  0.12090000000000001         -230420.39062500000     
  0.12200000000000003         -258553.56250000000     
  0.12310000000000001         -289136.81250000000     
  0.12420000000000003         -322237.34375000000     
  0.12530000000000002         -357896.81250000000     
  0.12640000000000001         -396119.71875000000     
  0.12750000000000003         -436872.15625000000     
  0.12860000000000002         -480080.31250000000     
  0.12970000000000001         -525625.18750000000     
  0.13080000000000003         -573336.62500000000     
  0.13190000000000002         -622994.50000000000     
  0.13300000000000001         -674308.75000000000     
  0.13410000000000000         -726923.31250000000     
  0.13520000000000004         -780407.75000000000     
  0.13630000000000003         -834262.75000000000     
  0.13740000000000002         -887926.93750000000     
  0.13850000000000001         -940766.56250000000     
  0.13960000000000000         -992093.00000000000     
  0.14070000000000005         -1041140.5000000000     
  0.14180000000000004         -1087071.0000000000     
  0.14290000000000003         -1128981.6250000000     
  0.14400000000000002         -1165909.1250000000     
  0.14510000000000001         -1196859.0000000000     
  0.14620000000000000         -1220796.2500000000     
  0.14730000000000004         -1236680.1250000000     
  0.14840000000000003         -1243462.0000000000     
  0.14950000000000002         -1240115.7500000000     
  0.15060000000000001         -1225627.2500000000     
  0.15170000000000000         -1199046.2500000000     
  0.15280000000000005         -1159488.6250000000     
  0.15390000000000004         -1106157.6250000000     
  0.15500000000000003         -1038386.6875000000     
  0.15610000000000002         -955654.93750000000     
  0.15720000000000001         -857581.18750000000     
  0.15830000000000000         -743965.00000000000     
  0.15940000000000004         -614773.75000000000     
  0.16050000000000003         -470198.93750000000     
  0.16160000000000002         -310673.96875000000     
  0.16270000000000001         -136838.54687500000     
  0.16380000000000000          50382.937500000000     
  0.16490000000000005          249838.31250000000     
  0.16600000000000004          460139.78125000000     
  0.16710000000000003          679677.00000000000     
  0.16820000000000002          906627.50000000000     
  0.16930000000000001          1138947.2500000000     
  0.17040000000000000          1374402.0000000000     
  0.17150000000000004          1610568.8750000000     
  0.17260000000000003          1844899.1250000000     
  0.17370000000000002          2074744.0000000000     
  0.17480000000000001          2297396.5000000000     
  0.17590000000000000          2510144.0000000000     
  0.17700000000000005          2710286.5000000000     
  0.17810000000000004          2895195.5000000000     
  0.17920000000000003          3062327.0000000000     
  0.18030000000000002          3209284.7500000000     
  0.18140000000000001          3333843.7500000000     
  0.18250000000000000          3434016.2500000000     
  0.18360000000000004          3508087.7500000000     
  0.18470000000000003          3554657.7500000000     
  0.18580000000000002          3572665.0000000000     
  0.18690000000000001          3561412.7500000000     
  0.18800000000000000          3520564.2500000000     
  0.18910000000000005          3450157.7500000000     
  0.19020000000000004          3350616.2500000000     
  0.19130000000000003          3222746.0000000000     
  0.19240000000000002          3067743.0000000000     
  0.19350000000000001          2887159.7500000000     
  0.19460000000000005          2682898.2500000000     
  0.19570000000000004          2457156.7500000000     
  0.19680000000000003          2212405.5000000000     
  0.19790000000000002          1951347.6250000000     
  0.19900000000000001          1676890.2500000000     
  0.20010000000000000          1392075.5000000000     
  0.20120000000000005          1100067.2500000000     
  0.20230000000000004          804070.81250000000     
  0.20340000000000003          507315.93750000000     
  0.20450000000000002          212952.17187500000     
  0.20560000000000000         -75966.171875000000     
  0.20670000000000005         -356549.90625000000     
  0.20780000000000004         -626086.87500000000     
  0.20890000000000003         -882077.25000000000     
