 -0.12000000000000000          0.0000000000000000     
 -0.11889999999999999          0.0000000000000000     
 -0.11780000000000000          0.0000000000000000     
 -0.11670000000000000          0.0000000000000000     
 -0.11559999999999999          0.0000000000000000     
 -0.11449999999999999          0.0000000000000000     
 -0.11340000000000000          0.0000000000000000     
 -0.11230000000000000          0.0000000000000000     
 -0.11119999999999999          0.0000000000000000     
 -0.11009999999999999          0.0000000000000000     
 -0.10900000000000000         -6.3852196327148073E-024
 -0.10790000000000000          2.6316800539512806E-023
 -0.10679999999999999          2.3044068448151775E-022
 -0.10569999999999999         -4.7641831896838713E-022
 -0.10460000000000000         -5.7273020299859135E-021
 -0.10349999999999999         -6.9035144908418889E-021
 -0.10239999999999999          5.0674195848946593E-020
 -0.10130000000000000          1.8782763027377750E-019
 -0.10020000000000000         -5.3883541717017443E-022
  -9.9099999999999994E-002    -1.4466876061572671E-018
  -9.7999999999999990E-002    -3.2943900985335575E-018
  -9.6899999999999986E-002     1.7884997283697983E-018
  -9.5799999999999996E-002     2.3481809668892012E-017
  -9.4699999999999993E-002     4.2637914720384919E-017
  -9.3599999999999989E-002    -2.5973972505616276E-017
  -9.2499999999999999E-002    -2.6225047960433477E-016
  -9.1399999999999995E-002    -4.5172372956190244E-016
  -9.0299999999999991E-002     1.5622003346756432E-016
  -8.9200000000000002E-002     2.1780607323279447E-015
  -8.8099999999999984E-002     3.9791532631286257E-015
  -8.6999999999999994E-002     1.8336663209878680E-016
  -8.5899999999999990E-002    -1.3834108859823394E-014
  -8.4799999999999986E-002    -2.8917921659696311E-014
  -8.3699999999999997E-002    -1.2842005426725797E-014
  -8.2599999999999993E-002     6.6478398307034947E-014
  -8.1499999999999989E-002     1.7185572084334189E-013
  -8.0399999999999999E-002     1.4046421903217421E-013
  -7.9299999999999995E-002    -2.2275520458140546E-013
  -7.8199999999999992E-002    -8.2675706558621442E-013
  -7.7100000000000002E-002    -9.8231622489008963E-013
  -7.5999999999999984E-002     3.2180120655873889E-013
  -7.4899999999999994E-002     3.1518667883978502E-012
  -7.3799999999999991E-002     5.1136000815688032E-012
  -7.2699999999999987E-002     1.7845190386153731E-012
  -7.1599999999999997E-002    -8.9826852553431813E-012
  -7.0499999999999993E-002    -2.0710134995827190E-011
  -6.9399999999999989E-002    -1.7199866531036889E-011
  -6.8300000000000000E-002     1.5312247997334438E-011
  -6.7199999999999996E-002     6.5364852419591557E-011
  -6.6099999999999992E-002     8.3926768312814204E-011
  -6.5000000000000002E-002     1.1255266683940501E-011
  -6.3899999999999985E-002    -1.5349253812413366E-010
  -6.2799999999999995E-002    -2.9155119984913824E-010
  -6.1699999999999991E-002    -2.0219788343656120E-010
  -6.0599999999999994E-002     2.1864732246967833E-010
  -5.9499999999999990E-002     7.6106487778559995E-010
  -5.8399999999999994E-002     8.8518692376027275E-010
  -5.7299999999999990E-002     9.4920883653148991E-011
  -5.6199999999999986E-002    -1.4394486713698029E-009
  -5.5099999999999996E-002    -2.5624735666696097E-009
  -5.3999999999999992E-002    -1.7226406967552066E-009
  -5.2899999999999989E-002     1.5601836489409493E-009
  -5.1799999999999985E-002     5.4214788214324017E-009
  -5.0699999999999995E-002     6.1454841215891065E-009
  -4.9599999999999991E-002     1.0153784479882688E-009
  -4.8499999999999988E-002    -8.1643802829489687E-009
  -4.7399999999999998E-002    -1.4325880037802108E-008
  -4.6299999999999994E-002    -9.5913250675039308E-009
  -4.5199999999999990E-002     6.9597718699299094E-009
  -4.4099999999999986E-002     2.4705650858436456E-008
  -4.2999999999999997E-002     2.6602007707765551E-008
  -4.1899999999999993E-002     3.5253280294966771E-009
  -4.0799999999999989E-002    -3.2668996396978400E-008
  -3.9699999999999985E-002    -5.1632461861572665E-008
  -3.8599999999999995E-002    -2.7222366583146140E-008
  -3.7499999999999992E-002     3.3928383658121675E-008
  -3.6399999999999988E-002     8.4945249057000183E-008
  -3.5299999999999984E-002     6.9383787604238023E-008
  -3.4199999999999994E-002    -2.4984686319839966E-008
  -3.3099999999999991E-002    -1.3460078207572224E-007
  -3.1999999999999987E-002    -1.5248755858010554E-007
  -3.0899999999999997E-002    -1.8452887218245451E-008
  -2.9799999999999993E-002     2.0006616807677347E-007
  -2.8699999999999989E-002     3.2126882842931082E-007
  -2.7599999999999986E-002     1.8067601104121422E-007
  -2.6499999999999996E-002    -2.0186867288884969E-007
  -2.5399999999999992E-002    -5.6827099115253077E-007
  -2.4299999999999988E-002    -5.7397795671931817E-007
  -2.3199999999999985E-002    -7.4229120627933298E-008
  -2.2099999999999995E-002     6.7657089175554574E-007
  -2.0999999999999991E-002     1.1226268270547735E-006
  -1.9899999999999987E-002     8.0162004678641097E-007
  -1.8799999999999983E-002    -2.3356928124940168E-007
  -1.7699999999999994E-002    -1.3323157190825441E-006
  -1.6599999999999990E-002    -1.6565845726290718E-006
  -1.5499999999999986E-002    -8.3592749433591962E-007
  -1.4399999999999996E-002     6.5093735202026437E-007
  -1.3299999999999992E-002     1.7491906874056440E-006
  -1.2199999999999989E-002     1.6309303418893251E-006
  -1.1099999999999985E-002     4.1132514638775319E-007
  -9.9999999999999950E-003    -8.6892026729401550E-007
  -8.8999999999999913E-003    -1.0930453981927712E-006
  -7.7999999999999875E-003    -1.0939466221770999E-007
  -6.6999999999999837E-003     9.6915573521982878E-007
  -5.5999999999999939E-003     6.3679152617623913E-007
  -4.4999999999999901E-003    -1.5300764744097251E-006
  -3.3999999999999864E-003    -4.0452496250509284E-006
  -2.2999999999999826E-003    -4.2784527067851741E-006
  -1.1999999999999927E-003    -5.4337573374141357E-007
  -9.9999999999988987E-005     5.9986164160363842E-006
   1.0000000000000148E-003     1.1314913535898086E-005
   2.1000000000000185E-003     1.0846159966604318E-005
   3.2000000000000084E-003     2.8706447210424813E-006
   4.3000000000000121E-003    -9.5209243227145635E-006
   5.4000000000000159E-003    -1.9572251403587870E-005
   6.5000000000000058E-003    -2.0756120648002252E-005
   7.6000000000000234E-003    -1.0981882041960489E-005
   8.7000000000000133E-003     5.7556349020160269E-006
   9.8000000000000032E-003     2.1512409148272127E-005
   1.0900000000000021E-002     2.8927535822731443E-005
   1.2000000000000011E-002     2.5092987925745547E-005
   1.3100000000000001E-002     1.2277375390112866E-005
   1.4200000000000018E-002    -4.5457741180143785E-006
   1.5300000000000008E-002    -2.0978939573979005E-005
   1.6400000000000026E-002    -3.4448818041710183E-005
   1.7500000000000016E-002    -4.2601033783284947E-005
   1.8600000000000005E-002    -4.0981638449011371E-005
   1.9700000000000023E-002    -2.3481634343625046E-005
   2.0800000000000013E-002     1.2853903172072023E-005
   2.1900000000000003E-002     6.1188955442048609E-005
   2.3000000000000020E-002     1.0219888645224273E-004
   2.4100000000000010E-002     1.1017409269697964E-004
   2.5200000000000000E-002     6.7238128394819796E-005
   2.6300000000000018E-002    -2.1910498617216945E-005
   2.7400000000000008E-002    -1.2528724619187415E-004
   2.8500000000000025E-002    -1.9509474805090576E-004
   2.9600000000000015E-002    -1.9147364946547896E-004
   3.0700000000000005E-002    -1.0538542119320482E-004
   3.1800000000000023E-002     3.3825104765128344E-005
   3.2900000000000013E-002     1.7187312187161297E-004
   3.4000000000000002E-002     2.5616513448767364E-004
   3.5100000000000020E-002     2.5910476688295603E-004
   3.6200000000000010E-002     1.8453084339853376E-004
   3.7300000000000028E-002     5.6630411563673988E-005
   3.8400000000000017E-002    -9.6359166491311044E-005
   3.9500000000000007E-002    -2.4884918821044266E-004
   4.0600000000000025E-002    -3.7090817932039499E-004
   4.1700000000000015E-002    -4.1897234041243792E-004
   4.2800000000000005E-002    -3.4217763459309936E-004
   4.3900000000000022E-002    -1.1194612307008356E-004
   4.5000000000000012E-002     2.3910462914500386E-004
   4.6100000000000002E-002     5.9917126782238483E-004
   4.7200000000000020E-002     8.0593494931235909E-004
   4.8300000000000010E-002     7.2068790905177593E-004
   4.9400000000000027E-002     3.1307261087931693E-004
   5.0500000000000017E-002    -2.9500122764147818E-004
   5.1600000000000007E-002    -8.6224504048004746E-004
   5.2700000000000025E-002    -1.1318814940750599E-003
   5.3800000000000014E-002    -9.5700245583429933E-004
   5.4900000000000004E-002    -3.8040353683754802E-004
   5.6000000000000022E-002     3.7650403100997210E-004
   5.7100000000000012E-002     1.0116531047970057E-003
   5.8200000000000002E-002     1.2755041243508458E-003
   5.9300000000000019E-002     1.0706397006288171E-003
   6.0400000000000009E-002     4.7231282223947346E-004
   6.1500000000000027E-002    -3.2728005317039788E-004
   6.2600000000000017E-002    -1.1061328696087003E-003
   6.3700000000000007E-002    -1.6766327898949385E-003
   6.4800000000000024E-002    -1.8995862919837236E-003
   6.5900000000000014E-002    -1.6643633134663105E-003
   6.7000000000000004E-002    -8.7871297728270292E-004
   6.8100000000000022E-002     4.9735320499166846E-004
   6.9200000000000012E-002     2.3803350050002337E-003
   7.0300000000000029E-002     4.5048147439956665E-003
   7.1400000000000019E-002     6.4406930468976498E-003
   7.2500000000000009E-002     7.7161821536719799E-003
   7.3600000000000027E-002     8.0152899026870728E-003
   7.4700000000000016E-002     7.3637384921312332E-003
   7.5800000000000006E-002     6.2067997641861439E-003
   7.6900000000000024E-002     5.3220582194626331E-003
   7.8000000000000014E-002     5.5844774469733238E-003
   7.9100000000000004E-002     7.6690916903316975E-003
   8.0200000000000021E-002     1.1810117401182652E-002
   8.1300000000000011E-002     1.7718896269798279E-002
   8.2400000000000029E-002     2.4704912677407265E-002
   8.3500000000000019E-002     3.1966663897037506E-002
   8.4600000000000009E-002     3.8950741291046143E-002
   8.5700000000000026E-002     4.5637242496013641E-002
   8.6800000000000016E-002     5.2634108811616898E-002
   8.7900000000000006E-002     6.1025593429803848E-002
   8.9000000000000024E-002     7.2039104998111725E-002
   9.0100000000000013E-002     8.6677171289920807E-002
   9.1200000000000003E-002    0.10549370944499969     
   9.2300000000000021E-002    0.12861682474613190     
   9.3400000000000011E-002    0.15599201619625092     
   9.4500000000000028E-002    0.18770599365234375     
   9.5600000000000018E-002    0.22419992089271545     
   9.6700000000000008E-002    0.26624783873558044     
   9.7800000000000026E-002    0.31477561593055725     
   9.8900000000000016E-002    0.37064841389656067     
  0.10000000000000001         0.43459892272949219     
  0.10110000000000002         0.50739163160324097     
  0.10220000000000001         0.59010249376296997     
  0.10330000000000003         0.68429607152938843     
  0.10440000000000002         0.79195415973663330     
  0.10550000000000001         0.91511428356170654     
  0.10660000000000003          1.0554494857788086     
  0.10770000000000002          1.2139468193054199     
  0.10880000000000001          1.3909769058227539     
  0.10990000000000003          1.5867890119552612     
  0.11100000000000002          1.8019795417785645     
  0.11210000000000001          2.0377709865570068     
  0.11320000000000002          2.2959342002868652     
  0.11430000000000001          2.5781815052032471     
  0.11540000000000003          2.8856055736541748     
  0.11650000000000002          3.2183153629302979     
  0.11760000000000001          3.5754861831665039     
  0.11870000000000003          3.9556837081909180     
  0.11980000000000002          4.3575501441955566     
  0.12090000000000001          4.7795867919921875     
  0.12200000000000003          5.2199239730834961     
  0.12310000000000001          5.6761465072631836     
  0.12420000000000003          6.1444487571716309     
  0.12530000000000002          6.6199440956115723     
  0.12640000000000001          7.0967464447021484     
  0.12750000000000003          7.5686521530151367     
  0.12860000000000002          8.0286607742309570     
  0.12970000000000001          8.4693841934204102     
  0.13080000000000003          8.8815612792968750     
  0.13190000000000002          9.2554969787597656     
  0.13300000000000001          9.5790576934814453     
  0.13410000000000000          9.8400535583496094     
  0.13520000000000004          10.025979042053223     
  0.13630000000000003          10.124425888061523     
  0.13740000000000002          10.123881340026855     
  0.13850000000000001          10.011824607849121     
  0.13960000000000000          9.7765188217163086     
  0.14070000000000005          9.4059610366821289     
  0.14180000000000004          8.8874425888061523     
  0.14290000000000003          8.2098703384399414     
  0.14400000000000002          7.3637123107910156     
  0.14510000000000001          6.3406510353088379     
  0.14620000000000000          5.1359124183654785     
  0.14730000000000004          3.7456402778625488     
  0.14840000000000003          2.1704416275024414     
  0.14950000000000002         0.41067379713058472     
  0.15060000000000001         -1.5268719196319580     
  0.15170000000000000         -3.6324942111968994     
  0.15280000000000005         -5.8939576148986816     
  0.15390000000000004         -8.2947072982788086     
  0.15500000000000003         -10.816000938415527     
  0.15610000000000002         -13.433395385742188     
  0.15720000000000001         -16.121374130249023     
  0.15830000000000000         -18.849838256835938     
  0.15940000000000004         -21.585796356201172     
  0.16050000000000003         -24.291164398193359     
  0.16160000000000002         -26.924053192138672     
  0.16270000000000001         -29.445968627929688     
  0.16380000000000000         -31.812126159667969     
  0.16490000000000005         -33.984989166259766     
  0.16600000000000004         -35.922203063964844     
  0.16710000000000003         -37.585117340087891     
  0.16820000000000002         -38.935298919677734     
  0.16930000000000001         -39.934688568115234     
  0.17040000000000000         -40.552555084228516     
  0.17150000000000004         -40.759098052978516     
  0.17260000000000003         -40.529563903808594     
  0.17370000000000002         -39.849590301513672     
  0.17480000000000001         -38.708038330078125     
  0.17590000000000000         -37.102470397949219     
  0.17700000000000005         -35.036212921142578     
  0.17810000000000004         -32.519336700439453     
  0.17920000000000003         -29.569547653198242     
  0.18030000000000002         -26.211957931518555     
  0.18140000000000001         -22.478071212768555     
  0.18250000000000000         -18.408531188964844     
  0.18360000000000004         -14.049655914306641     
  0.18470000000000003         -9.4529933929443359     
  0.18580000000000002         -4.6751627922058105     
  0.18690000000000001         0.22422131896018982     
  0.18800000000000000          5.1829004287719727     
  0.18910000000000005          10.136688232421875     
  0.19020000000000004          15.020008087158203     
  0.19130000000000003          19.768869400024414     
  0.19240000000000002          24.318088531494141     
  0.19350000000000001          28.607513427734375     
  0.19460000000000005          32.581489562988281     
  0.19570000000000004          36.187538146972656     
  0.19680000000000003          39.383346557617188     
  0.19790000000000002          42.128120422363281     
  0.19900000000000001          44.391368865966797     
  0.20010000000000000          46.149761199951172     
  0.20120000000000005          47.385478973388672     
  0.20230000000000004          48.091609954833984     
  0.20340000000000003          48.268699645996094     
  0.20450000000000002          47.925594329833984     
  0.20560000000000000          47.080577850341797     
  0.20670000000000005          45.756713867187500     
  0.20780000000000004          43.985919952392578     
  0.20890000000000003          41.805236816406250     
