 -0.12000000000000000          0.0000000000000000
 -0.11889999999999999          0.0000000000000000
 -0.11780000000000000          0.0000000000000000
 -0.11670000000000000          0.0000000000000000
 -0.11559999999999999          0.0000000000000000
 -0.11449999999999999          0.0000000000000000
 -0.11340000000000000         -3.7989119973167500E-017
 -0.11230000000000000         -1.3048979303815925E-016
 -0.11119999999999999          5.0493486870400962E-016
 -0.11009999999999999          4.1996134929258178E-015
 -0.10900000000000000          1.0039211520743944E-014
 -0.10790000000000000          6.9929346059420527E-017
 -0.10679999999999999         -6.0822156230759539E-014
 -0.10569999999999999         -1.6057924575544474E-013
 -0.10460000000000000         -1.2105881618332259E-013
 -0.10349999999999999          3.7370798187767729E-013
 -0.10239999999999999          1.3081955223953612E-012
 -0.10130000000000000          1.5850029622122008E-012
 -0.10020000000000000         -8.7020906973378498E-013
  -9.9099999999999994E-002    -6.7465395249544091E-012
  -9.7999999999999990E-002    -1.1491321783019259E-011
  -9.6899999999999986E-002    -4.7823602716823288E-012
  -9.5799999999999996E-002     2.0736109010432990E-011
  -9.4699999999999993E-002     5.3220428064548742E-011
  -9.3599999999999989E-002     5.4126474136051428E-011
  -9.2499999999999999E-002    -1.8550307123721410E-011
  -9.1399999999999995E-002    -1.5549803111802873E-010
  -9.0299999999999991E-002    -2.5310156748226120E-010
  -8.9200000000000002E-002    -1.5137670283937865E-010
  -8.8099999999999984E-002     2.2230423057933990E-010
  -8.6999999999999994E-002     6.9229383337088279E-010
  -8.5899999999999990E-002     8.3518908455815222E-010
  -8.4799999999999986E-002     2.5779511858559090E-010
  -8.3699999999999997E-002    -9.7257135678319173E-010
  -8.2599999999999993E-002    -2.1157031682150773E-009
  -8.1499999999999989E-002    -2.1037882547148001E-009
  -8.0399999999999999E-002    -3.6874503450690099E-010
  -7.9299999999999995E-002     2.4491320083086521E-009
  -7.8199999999999992E-002     4.6252557339698797E-009
  -7.7100000000000002E-002     4.4429775414300821E-009
  -7.5999999999999984E-002     1.4942902470949093E-009
  -7.4899999999999994E-002    -2.9295426084985365E-009
  -7.3799999999999991E-002    -6.7654801760852479E-009
  -7.2699999999999987E-002    -8.5555047490970537E-009
  -7.1599999999999997E-002    -7.8624333710308747E-009
  -7.0499999999999993E-002    -4.3472003774525092E-009
  -6.9399999999999989E-002     3.0526456917812084E-009
  -6.8300000000000000E-002     1.4863878128323904E-008
  -6.7199999999999996E-002     2.7804315294588378E-008
  -6.6099999999999992E-002     3.2821510842495627E-008
  -6.5000000000000002E-002     1.8692766445838060E-008
  -6.3899999999999985E-002    -1.8427016357236425E-008
  -6.2799999999999995E-002    -6.5775459745509579E-008
  -6.1699999999999991E-002    -9.4702372166466375E-008
  -6.0599999999999994E-002    -7.5927687248622533E-008
  -5.9499999999999990E-002    -2.1413057993413531E-009
  -5.8399999999999994E-002     9.8652442659385997E-008
  -5.7299999999999990E-002     1.7288839160300995E-007
  -5.6199999999999986E-002     1.7227804960384674E-007
  -5.5099999999999996E-002     8.5907821301134391E-008
  -5.3999999999999992E-002    -5.0461771650134324E-008
  -5.2899999999999989E-002    -1.7638595295466075E-007
  -5.1799999999999985E-002    -2.4381131424888736E-007
  -5.0699999999999995E-002    -2.3993140985112404E-007
  -4.9599999999999991E-002    -1.7827208864673594E-007
  -4.8499999999999988E-002    -6.9477046338306536E-008
  -4.7399999999999998E-002     9.5161105662100454E-008
  -4.6299999999999994E-002     3.2209595701715443E-007
  -4.5199999999999990E-002     5.6614800314491731E-007
  -4.4099999999999986E-002     6.9989130224712426E-007
  -4.2999999999999997E-002     5.5146426802821225E-007
  -4.1899999999999993E-002     1.7962719311981346E-008
  -4.0799999999999989E-002    -8.0364725363324396E-007
  -3.9699999999999985E-002    -1.5674916085117729E-006
  -3.8599999999999995E-002    -1.7890331491798861E-006
  -3.7499999999999992E-002    -1.1042334335797932E-006
  -3.6399999999999988E-002     4.4295228462942760E-007
  -3.5299999999999984E-002     2.2682804683427094E-006
  -3.4199999999999994E-002     3.4126701393688563E-006
  -3.3099999999999991E-002     2.9992238523846027E-006
  -3.1999999999999987E-002     7.8523180491174571E-007
  -3.0899999999999997E-002    -2.5064264264074154E-006
  -2.9799999999999993E-002    -5.3407361519930419E-006
  -2.8699999999999989E-002    -6.0381521507224534E-006
  -2.7599999999999986E-002    -3.6740191262651933E-006
  -2.6499999999999996E-002     1.2740390502585797E-006
  -2.5399999999999992E-002     6.9491466092586052E-006
  -2.4299999999999988E-002     1.0884550647460856E-005
  -2.3199999999999985E-002     1.1151297258038539E-005
  -2.2099999999999995E-002     7.2448019636794925E-006
  -2.0999999999999991E-002     1.7196407497976907E-007
  -1.9899999999999987E-002    -8.3482764239306562E-006
  -1.8799999999999983E-002    -1.7112843124778010E-005
  -1.7699999999999994E-002    -2.6336607334087603E-005
  -1.6599999999999990E-002    -3.7637193599948660E-005
  -1.5499999999999986E-002    -5.3063384257256985E-005
  -1.4399999999999996E-002    -7.3748189606703818E-005
  -1.3299999999999992E-002    -9.9070690339431167E-005
  -1.2199999999999989E-002    -1.2698334467131644E-004
  -1.1099999999999985E-002    -1.5549905947409570E-004
  -9.9999999999999950E-003    -1.8460061983205378E-004
  -8.8999999999999913E-003    -2.1746987476944923E-004
  -7.7999999999999875E-003    -2.6019383221864700E-004
  -6.6999999999999837E-003    -3.1990569550544024E-004
  -5.5999999999999939E-003    -4.0224610711447895E-004
  -4.4999999999999901E-003    -5.0954683683812618E-004
  -3.3999999999999864E-003    -6.4089219085872173E-004
  -2.2999999999999826E-003    -7.9426361480727792E-004
  -1.1999999999999927E-003    -9.6981256501749158E-004
  -9.9999999999988987E-005    -1.1726010125130415E-003
   1.0000000000000148E-003    -1.4133502263575792E-003
   2.1000000000000185E-003    -1.7067773733288050E-003
   3.2000000000000084E-003    -2.0684085320681334E-003
   4.3000000000000121E-003    -2.5115946773439646E-003
   5.4000000000000159E-003    -3.0463449656963348E-003
   6.5000000000000058E-003    -3.6806128919124603E-003
   7.6000000000000234E-003    -4.4233980588614941E-003
   8.7000000000000133E-003    -5.2881496958434582E-003
   9.8000000000000032E-003    -6.2949154525995255E-003
   1.0900000000000021E-002    -7.4704200960695744E-003
   1.2000000000000011E-002    -8.8463062420487404E-003
   1.3100000000000001E-002    -1.0456581600010395E-002
   1.4200000000000018E-002    -1.2335525825619698E-002
   1.5300000000000008E-002    -1.4516918919980526E-002
   1.6400000000000026E-002    -1.7034739255905151E-002
   1.7500000000000016E-002    -1.9924845546483994E-002
   1.8600000000000005E-002    -2.3226886987686157E-002
   1.9700000000000023E-002    -2.6985764503479004E-002
   2.0800000000000013E-002    -3.1252298504114151E-002
   2.1900000000000003E-002    -3.6082979291677475E-002
   2.3000000000000020E-002    -4.1538860648870468E-002
   2.4100000000000010E-002    -4.7683637589216232E-002
   2.5200000000000000E-002    -5.4581116884946823E-002
   2.6300000000000018E-002    -6.2292691320180893E-002
   2.7400000000000008E-002    -7.0875577628612518E-002
   2.8500000000000025E-002    -8.0382525920867920E-002
   2.9600000000000015E-002    -9.0863153338432312E-002
   3.0700000000000005E-002   -0.10236590355634689
   3.1800000000000023E-002   -0.11493913084268570
   3.2900000000000013E-002   -0.12862986326217651
   3.4000000000000002E-002   -0.14347973465919495
   3.5100000000000020E-002   -0.15951888263225555
   3.6200000000000010E-002   -0.17675997316837311
   3.7300000000000028E-002   -0.19519415497779846
   3.8400000000000017E-002   -0.21478980779647827
   3.9500000000000007E-002   -0.23549377918243408
   4.0600000000000025E-002   -0.25723344087600708
   4.1700000000000015E-002   -0.27991759777069092
   4.2800000000000005E-002   -0.30343478918075562
   4.3900000000000022E-002   -0.32764923572540283
   4.5000000000000012E-002   -0.35239553451538086
   4.6100000000000002E-002   -0.37747323513031006
   4.7200000000000020E-002   -0.40264382958412170
   4.8300000000000010E-002   -0.42763072252273560
   4.9400000000000027E-002   -0.45212152600288391
   5.0500000000000017E-002   -0.47577187418937683
   5.1600000000000007E-002   -0.49820959568023682
   5.2700000000000025E-002   -0.51903855800628662
   5.3800000000000014E-002   -0.53784197568893433
   5.4900000000000004E-002   -0.55418533086776733
   5.6000000000000022E-002   -0.56761825084686279
   5.7100000000000012E-002   -0.57767760753631592
   5.8200000000000002E-002   -0.58389151096343994
   5.9300000000000019E-002   -0.58578449487686157
   6.0400000000000009E-002   -0.58288609981536865
   6.1500000000000027E-002   -0.57474207878112793
   6.2600000000000017E-002   -0.56092828512191772
   6.3700000000000007E-002   -0.54106384515762329
   6.4800000000000024E-002   -0.51482206583023071
   6.5900000000000014E-002   -0.48193812370300293
   6.7000000000000004E-002   -0.44221457839012146
   6.8100000000000022E-002   -0.39552608132362366
   6.9200000000000012E-002   -0.34182497859001160
   7.0300000000000029E-002   -0.28114950656890869
   7.1400000000000019E-002   -0.21363243460655212
   7.2500000000000009E-002   -0.13950937986373901
   7.3600000000000027E-002    -5.9125769883394241E-002
   7.4700000000000016E-002     2.7059573680162430E-002
   7.5800000000000006E-002    0.11847442388534546
   7.6900000000000024E-002    0.21443572640419006
   7.8000000000000014E-002    0.31415611505508423
   7.9100000000000004E-002    0.41675186157226562
   8.0200000000000021E-002    0.52125179767608643
   8.1300000000000011E-002    0.62660729885101318
   8.2400000000000029E-002    0.73170381784439087
   8.3500000000000019E-002    0.83537483215332031
   8.4600000000000009E-002    0.93641746044158936
   8.5700000000000026E-002     1.0336090326309204
   8.6800000000000016E-002     1.1257247924804688
   8.7900000000000006E-002     1.2115541696548462
   8.9000000000000024E-002     1.2899185419082642
   9.0100000000000013E-002     1.3596917390823364
   9.1200000000000003E-002     1.4198216199874878
   9.2300000000000021E-002     1.4693516492843628
   9.3400000000000011E-002     1.5074405670166016
   9.4500000000000028E-002     1.5333783626556396
   9.5600000000000018E-002     1.5465978384017944
   9.6700000000000008E-002     1.5466835498809814
   9.7800000000000026E-002     1.5333795547485352
   9.8900000000000016E-002     1.5065960884094238
  0.10000000000000001          1.4664138555526733
  0.10110000000000002          1.4130848646163940
  0.10220000000000001          1.3470299243927002
  0.10330000000000003          1.2688342332839966
  0.10440000000000002          1.1792405843734741
  0.10550000000000001          1.0791394710540771
  0.10660000000000003         0.96955460309982300
  0.10770000000000002         0.85162562131881714
  0.10880000000000001         0.72659045457839966
  0.10990000000000003         0.59576648473739624
  0.11100000000000002         0.46053206920623779
  0.11210000000000001         0.32230681180953979
  0.11320000000000002         0.18252909183502197
  0.11430000000000001          4.2632639408111572E-002
  0.11540000000000003         -9.5974110066890717E-002
  0.11650000000000002        -0.23192614316940308
  0.11760000000000001        -0.36391735076904297
  0.11870000000000003        -0.49071401357650757
  0.11980000000000002        -0.61116808652877808
  0.12090000000000001        -0.72422957420349121
  0.12200000000000003        -0.82895839214324951
  0.12310000000000001        -0.92453294992446899
  0.12420000000000003         -1.0102550983428955
  0.12530000000000002         -1.0855511426925659
  0.12640000000000001         -1.1499738693237305
  0.12750000000000003         -1.2032028436660767
  0.12860000000000002         -1.2450408935546875
  0.12970000000000001         -1.2754074335098267
  0.13080000000000003         -1.2943284511566162
  0.13190000000000002         -1.3019272089004517
  0.13300000000000001         -1.2984166145324707
  0.13410000000000000         -1.2840934991836548
  0.13520000000000004         -1.2593320608139038
  0.13630000000000003         -1.2245757579803467
  0.13740000000000002         -1.1803282499313354
  0.13850000000000001         -1.1271437406539917
  0.13960000000000000         -1.0656199455261230
  0.14070000000000005        -0.99639141559600830
  0.14180000000000004        -0.92012292146682739
  0.14290000000000003        -0.83750331401824951
  0.14400000000000002        -0.74924069643020630
  0.14510000000000001        -0.65605938434600830
  0.14620000000000000        -0.55869895219802856
  0.14730000000000004        -0.45791429281234741
  0.14840000000000003        -0.35447394847869873
  0.14950000000000002        -0.24915751814842224
  0.15060000000000001        -0.14275345206260681
  0.15170000000000000         -3.6058474332094193E-002
  0.15280000000000005          7.0123076438903809E-002
  0.15390000000000004         0.17497976124286652
  0.15500000000000003         0.27769547700881958
  0.15610000000000002         0.37745469808578491
  0.15720000000000001         0.47344839572906494
  0.15830000000000000         0.56487810611724854
  0.15940000000000004         0.65095919370651245
  0.16050000000000003         0.73092633485794067
  0.16160000000000002         0.80404096841812134
  0.16270000000000001         0.86960041522979736
  0.16380000000000000         0.92694753408432007
  0.16490000000000005         0.97547894716262817
  0.16600000000000004          1.0146520137786865
  0.16710000000000003          1.0439925193786621
  0.16820000000000002          1.0631031990051270
  0.16930000000000001          1.0716737508773804
  0.17040000000000000          1.0694894790649414
  0.17150000000000004          1.0564377307891846
  0.17260000000000003          1.0325125455856323
  0.17370000000000002         0.99781829118728638
  0.17480000000000001         0.95257228612899780
  0.17590000000000000         0.89710575342178345
  0.17700000000000005         0.83186209201812744
  0.17810000000000004         0.75739228725433350
  0.17920000000000003         0.67435061931610107
  0.18030000000000002         0.58349072933197021
  0.18140000000000001         0.48565998673439026
  0.18250000000000000         0.38179183006286621
  0.18360000000000004         0.27289506793022156
  0.18470000000000003         0.16003978252410889
  0.18580000000000002          4.4344589114189148E-002
  0.18690000000000001         -7.3034666478633881E-002
  0.18800000000000000        -0.19091659784317017
  0.18910000000000005        -0.30810779333114624
  0.19020000000000004        -0.42341998219490051
  0.19130000000000003        -0.53568619489669800
  0.19240000000000002        -0.64377278089523315
  0.19350000000000001        -0.74658930301666260
  0.19460000000000005        -0.84309691190719604
  0.19570000000000004        -0.93231832981109619
  0.19680000000000003         -1.0133514404296875
  0.19790000000000002         -1.0853804349899292
  0.19900000000000001         -1.1476835012435913
  0.20010000000000000         -1.1996362209320068
  0.20120000000000005         -1.2407138347625732
  0.20230000000000004         -1.2704955339431763
  0.20340000000000003         -1.2886711359024048
  0.20450000000000002         -1.2950465679168701
  0.20560000000000000         -1.2895444631576538
  0.20670000000000005         -1.2721999883651733
  0.20780000000000004         -1.2431559562683105
  0.20890000000000003         -1.2026604413986206
