 -0.12000000000000000          0.0000000000000000     
 -0.11889999999999999          0.0000000000000000     
 -0.11780000000000000          0.0000000000000000     
 -0.11670000000000000          0.0000000000000000     
 -0.11559999999999999          0.0000000000000000     
 -0.11449999999999999          0.0000000000000000     
 -0.11340000000000000         -1.3827173850344820E-009
 -0.11230000000000000         -1.0714922282772932E-008
 -0.11119999999999999         -3.1083469131942820E-010
 -0.11009999999999999          2.3058704812228825E-007
 -0.10900000000000000          9.3477569862443488E-007
 -0.10790000000000000          1.0984416576320655E-006
 -0.10679999999999999         -3.4698396120802499E-006
 -0.10569999999999999         -1.7027450667228550E-005
 -0.10460000000000000         -2.9152617571526207E-005
 -0.10349999999999999          7.6964994377703988E-007
 -0.10239999999999999          1.1852293391712010E-004
 -0.10130000000000000          2.7677280013449490E-004
 -0.10020000000000000          2.3492846230510622E-004
  -9.9099999999999994E-002    -3.3342349343001842E-004
  -9.7999999999999990E-002    -1.3773911632597446E-003
  -9.6899999999999986E-002    -1.9434815039858222E-003
  -9.5799999999999996E-002    -4.1456200415268540E-004
  -9.4699999999999993E-002     3.8575881626456976E-003
  -9.3599999999999989E-002     8.3686867728829384E-003
  -9.2499999999999999E-002     7.3732719756662846E-003
  -9.1399999999999995E-002    -3.7676787469536066E-003
  -9.0299999999999991E-002    -2.1467616781592369E-002
  -8.9200000000000002E-002    -3.0993485823273659E-002
  -8.8099999999999984E-002    -1.5022695995867252E-002
  -8.6999999999999994E-002     2.8116330504417419E-002
  -8.5899999999999990E-002     7.1765542030334473E-002
  -8.4799999999999986E-002     7.2561800479888916E-002
  -8.3699999999999997E-002     7.6692984439432621E-003
  -8.2599999999999993E-002    -9.0651512145996094E-002
  -8.1499999999999989E-002   -0.14381296932697296     
  -8.0399999999999999E-002    -9.0235874056816101E-002
  -7.9299999999999995E-002     4.3427847325801849E-002
  -7.8199999999999992E-002    0.14107224345207214     
  -7.7100000000000002E-002     9.7635686397552490E-002
  -7.5999999999999984E-002    -5.2611272782087326E-002
  -7.4899999999999994E-002   -0.12103230506181717     
  -7.3799999999999991E-002     6.5657623112201691E-002
  -7.2699999999999987E-002    0.42660328745841980     
  -7.1599999999999997E-002    0.57286262512207031     
  -7.0499999999999993E-002     9.7916156053543091E-002
  -6.9399999999999989E-002   -0.94913142919540405     
  -6.8300000000000000E-002    -1.8508098125457764     
  -6.7199999999999996E-002    -1.6225693225860596     
  -6.6099999999999992E-002    0.12786208093166351     
  -6.5000000000000002E-002     2.5769538879394531     
  -6.3899999999999985E-002     3.9980106353759766     
  -6.2799999999999995E-002     3.0041155815124512     
  -6.1699999999999991E-002   -0.19341361522674561     
  -6.0599999999999994E-002    -3.6705627441406250     
  -5.9499999999999990E-002    -5.1439361572265625     
  -5.8399999999999994E-002    -3.7843637466430664     
  -5.7299999999999990E-002   -0.88145011663436890     
  -5.6199999999999986E-002     1.3744341135025024     
  -5.5099999999999996E-002     1.9772496223449707     
  -5.3999999999999992E-002     2.0361545085906982     
  -5.2899999999999989E-002     3.4302427768707275     
  -5.1799999999999985E-002     6.2862524986267090     
  -5.0699999999999995E-002     7.8608431816101074     
  -4.9599999999999991E-002     4.4712128639221191     
  -4.8499999999999988E-002    -4.7351107597351074     
  -4.7399999999999998E-002    -15.581757545471191     
  -4.6299999999999994E-002    -20.838808059692383     
  -4.5199999999999990E-002    -15.442514419555664     
  -4.4099999999999986E-002   -0.82588964700698853     
  -4.2999999999999997E-002     15.494992256164551     
  -4.1899999999999993E-002     25.043418884277344     
  -4.0799999999999989E-002     24.046098709106445     
  -3.9699999999999985E-002     14.992539405822754     
  -3.8599999999999995E-002     3.2319726943969727     
  -3.7499999999999992E-002    -7.7082710266113281     
  -3.6399999999999988E-002    -17.512224197387695     
  -3.5299999999999984E-002    -26.288789749145508     
  -3.4199999999999994E-002    -31.291725158691406     
  -3.3099999999999991E-002    -27.511045455932617     
  -3.1999999999999987E-002    -12.371933937072754     
  -3.0899999999999997E-002     10.024108886718750     
  -2.9799999999999993E-002     29.976724624633789     
  -2.8699999999999989E-002     38.474136352539062     
  -2.7599999999999986E-002     33.198513031005859     
  -2.6499999999999996E-002     18.695337295532227     
  -2.5399999999999992E-002    0.91863304376602173     
  -2.4299999999999988E-002    -17.799339294433594     
  -2.3199999999999985E-002    -37.755348205566406     
  -2.2099999999999995E-002    -56.063537597656250     
  -2.0999999999999991E-002    -63.398372650146484     
  -1.9899999999999987E-002    -49.060340881347656     
  -1.8799999999999983E-002    -11.348095893859863     
  -1.7699999999999994E-002     37.018398284912109     
  -1.6599999999999990E-002     75.952774047851562     
  -1.5499999999999986E-002     93.535675048828125     
  -1.4399999999999996E-002     96.536132812500000     
  -1.3299999999999992E-002     105.27833557128906     
  -1.2199999999999989E-002     136.21722412109375     
  -1.1099999999999985E-002     187.84494018554688     
  -9.9999999999999950E-003     243.55441284179688     
  -8.8999999999999913E-003     289.54516601562500     
  -7.7999999999999875E-003     331.19277954101562     
  -6.6999999999999837E-003     392.08834838867188     
  -5.5999999999999939E-003     496.24807739257812     
  -4.4999999999999901E-003     650.29089355468750     
  -3.3999999999999864E-003     842.62939453125000     
  -2.2999999999999826E-003     1060.2045898437500     
  -1.1999999999999927E-003     1306.2813720703125     
  -9.9999999999988987E-005     1602.2827148437500     
   1.0000000000000148E-003     1973.0723876953125     
   2.1000000000000185E-003     2431.8857421875000     
   3.2000000000000084E-003     2980.9975585937500     
   4.3000000000000121E-003     3626.9921875000000     
   5.4000000000000159E-003     4393.9550781250000     
   6.5000000000000058E-003     5319.8676757812500     
   7.6000000000000234E-003     6439.8144531250000     
   8.7000000000000133E-003     7775.0034179687500     
   9.8000000000000032E-003     9340.9443359375000     
   1.0900000000000021E-002     11167.833984375000     
   1.2000000000000011E-002     13311.320312500000     
   1.3100000000000001E-002     15840.297851562500     
   1.4200000000000018E-002     18813.082031250000     
   1.5300000000000008E-002     22267.390625000000     
   1.6400000000000026E-002     26238.035156250000     
   1.7500000000000016E-002     30786.695312500000     
   1.8600000000000005E-002     36014.167968750000     
   1.9700000000000023E-002     42039.042968750000     
   2.0800000000000013E-002     48961.714843750000     
   2.1900000000000003E-002     56848.816406250000     
   2.3000000000000020E-002     65755.906250000000     
   2.4100000000000010E-002     75767.359375000000     
   2.5200000000000000E-002     87015.000000000000     
   2.6300000000000018E-002     99652.570312500000     
   2.7400000000000008E-002     113810.78125000000     
   2.8500000000000025E-002     129572.45312500000     
   2.9600000000000015E-002     146991.46875000000     
   3.0700000000000005E-002     166137.26562500000     
   3.1800000000000023E-002     187116.21875000000     
   3.2900000000000013E-002     210050.45312500000     
   3.4000000000000002E-002     235035.40625000000     
   3.5100000000000020E-002     262114.03125000000     
   3.6200000000000010E-002     291293.37500000000     
   3.7300000000000028E-002     322577.46875000000     
   3.8400000000000017E-002     355972.75000000000     
   3.9500000000000007E-002     391454.43750000000     
   4.0600000000000025E-002     428918.93750000000     
   4.1700000000000015E-002     468178.93750000000     
   4.2800000000000005E-002     509001.37500000000     
   4.3900000000000022E-002     551159.25000000000     
   4.5000000000000012E-002     594431.43750000000     
   4.6100000000000002E-002     638551.81250000000     
   4.7200000000000020E-002     683141.50000000000     
   4.8300000000000010E-002     727704.87500000000     
   4.9400000000000027E-002     771666.31250000000     
   5.0500000000000017E-002     814449.81250000000     
   5.1600000000000007E-002     855487.81250000000     
   5.2700000000000025E-002     894165.62500000000     
   5.3800000000000014E-002     929762.00000000000     
   5.4900000000000004E-002     961443.81250000000     
   5.6000000000000022E-002     988329.50000000000     
   5.7100000000000012E-002     1009577.0625000000     
   5.8200000000000002E-002     1024395.4375000000     
   5.9300000000000019E-002     1032006.1875000000     
   6.0400000000000009E-002     1031571.0625000000     
   6.1500000000000027E-002     1022224.8125000000     
   6.2600000000000017E-002     1003137.8750000000     
   6.3700000000000007E-002     973591.37500000000     
   6.4800000000000024E-002     932979.93750000000     
   6.5900000000000014E-002     880782.68750000000     
   6.7000000000000004E-002     816516.56250000000     
   6.8100000000000022E-002     739766.06250000000     
   6.9200000000000012E-002     650296.43750000000     
   7.0300000000000029E-002     548088.62500000000     
   7.1400000000000019E-002     433371.62500000000     
   7.2500000000000009E-002     306527.15625000000     
   7.3600000000000027E-002     168010.10937500000     
   7.4700000000000016E-002     18417.310546875000     
   7.5800000000000006E-002    -141440.21875000000     
   7.6900000000000024E-002    -310460.03125000000     
   7.8000000000000014E-002    -487265.75000000000     
   7.9100000000000004E-002    -670343.37500000000     
   8.0200000000000021E-002    -858100.62500000000     
   8.1300000000000011E-002    -1048872.1250000000     
   8.2400000000000029E-002    -1240815.6250000000     
   8.3500000000000019E-002    -1431870.7500000000     
   8.4600000000000009E-002    -1619804.3750000000     
   8.5700000000000026E-002    -1802361.1250000000     
   8.6800000000000016E-002    -1977374.8750000000     
   8.7900000000000006E-002    -2142781.7500000000     
   8.9000000000000024E-002    -2296522.5000000000     
   9.0100000000000013E-002    -2436511.2500000000     
   9.1200000000000003E-002    -2560697.5000000000     
   9.2300000000000021E-002    -2667188.2500000000     
   9.3400000000000011E-002    -2754374.5000000000     
   9.4500000000000028E-002    -2820932.2500000000     
   9.5600000000000018E-002    -2865737.7500000000     
   9.6700000000000008E-002    -2887821.7500000000     
   9.7800000000000026E-002    -2886428.2500000000     
   9.8900000000000016E-002    -2861127.5000000000     
  0.10000000000000001         -2811920.5000000000     
  0.10110000000000002         -2739178.7500000000     
  0.10220000000000001         -2643550.2500000000     
  0.10330000000000003         -2525841.7500000000     
  0.10440000000000002         -2387066.2500000000     
  0.10550000000000001         -2228554.5000000000     
  0.10660000000000003         -2051985.7500000000     
  0.10770000000000002         -1859342.2500000000     
  0.10880000000000001         -1652775.1250000000     
  0.10990000000000003         -1434461.1250000000     
  0.11100000000000002         -1206645.5000000000     
  0.11210000000000001         -971703.25000000000     
  0.11320000000000002         -732160.00000000000     
  0.11430000000000001         -490649.25000000000     
  0.11540000000000003         -249730.15625000000     
  0.11650000000000002         -11734.242187500000     
  0.11760000000000001          221137.84375000000     
  0.11870000000000003          446800.09375000000     
  0.11980000000000002          663166.87500000000     
  0.12090000000000001          868221.68750000000     
  0.12200000000000003          1060203.7500000000     
  0.12310000000000001          1237683.3750000000     
  0.12420000000000003          1399563.2500000000     
  0.12530000000000002          1544929.5000000000     
  0.12640000000000001          1672949.8750000000     
  0.12750000000000003          1782946.2500000000     
  0.12860000000000002          1874458.5000000000     
  0.12970000000000001          1947385.3750000000     
  0.13080000000000003          2001927.5000000000     
  0.13190000000000002          2038485.0000000000     
  0.13300000000000001          2057556.5000000000     
  0.13410000000000000          2059636.6250000000     
  0.13520000000000004          2045341.8750000000     
  0.13630000000000003          2015558.2500000000     
  0.13740000000000002          1971388.1250000000     
  0.13850000000000001          1914080.6250000000     
  0.13960000000000000          1844848.5000000000     
  0.14070000000000005          1764791.6250000000     
  0.14180000000000004          1675007.1250000000     
  0.14290000000000003          1576748.5000000000     
  0.14400000000000002          1471459.1250000000     
  0.14510000000000001          1360634.2500000000     
  0.14620000000000000          1245624.5000000000     
  0.14730000000000004          1127584.1250000000     
  0.14840000000000003          1007759.5625000000     
  0.14950000000000002          887240.00000000000     
  0.15060000000000001          767367.68750000000     
  0.15170000000000000          649335.87500000000     
  0.15280000000000005          534227.25000000000     
  0.15390000000000004          423003.28125000000     
  0.15500000000000003          316450.87500000000     
  0.15610000000000002          215441.84375000000     
  0.15720000000000001          120760.22656250000     
  0.15830000000000000          33161.148437500000     
  0.15940000000000004         -46866.183593750000     
  0.16050000000000003         -118935.02343750000     
  0.16160000000000002         -182730.29687500000     
  0.16270000000000001         -238082.53125000000     
  0.16380000000000000         -284808.78125000000     
  0.16490000000000005         -322852.21875000000     
  0.16600000000000004         -352395.40625000000     
  0.16710000000000003         -373695.81250000000     
  0.16820000000000002         -387155.25000000000     
  0.16930000000000001         -393185.25000000000     
  0.17040000000000000         -392280.50000000000     
  0.17150000000000004         -384981.71875000000     
  0.17260000000000003         -371986.68750000000     
  0.17370000000000002         -354088.46875000000     
  0.17480000000000001         -332081.68750000000     
  0.17590000000000000         -306716.21875000000     
  0.17700000000000005         -278707.87500000000     
  0.17810000000000004         -248788.31250000000     
  0.17920000000000003         -217784.17187500000     
  0.18030000000000002         -186530.20312500000     
  0.18140000000000001         -155798.87500000000     
  0.18250000000000000         -126151.02343750000     
  0.18360000000000004         -98105.835937500000     
  0.18470000000000003         -72046.460937500000     
  0.18580000000000002         -48393.410156250000     
  0.18690000000000001         -27582.070312500000     
  0.18800000000000000         -9979.8261718750000     
  0.18910000000000005          4292.8745117187500     
  0.19020000000000004          15257.658203125000     
  0.19130000000000003          22987.949218750000     
  0.19240000000000002          27623.435546875000     
  0.19350000000000001          29246.652343750000     
  0.19460000000000005          27992.322265625000     
  0.19570000000000004          24093.607421875000     
  0.19680000000000003          17940.359375000000     
  0.19790000000000002          10022.228515625000     
  0.19900000000000001          632.10406494140625     
  0.20010000000000000         -9981.2099609375000     
  0.20120000000000005         -21517.177734375000     
  0.20230000000000004         -33595.476562500000     
  0.20340000000000003         -45705.136718750000     
  0.20450000000000002         -57492.066406250000     
  0.20560000000000000         -68683.414062500000     
  0.20670000000000005         -79204.625000000000     
  0.20780000000000004         -88941.109375000000     
  0.20890000000000003         -97613.164062500000     
