 -0.12000000000000000          0.0000000000000000     
 -0.11889999999999999          0.0000000000000000     
 -0.11780000000000000          0.0000000000000000     
 -0.11670000000000000          0.0000000000000000     
 -0.11559999999999999          0.0000000000000000     
 -0.11449999999999999          0.0000000000000000     
 -0.11340000000000000          0.0000000000000000     
 -0.11230000000000000          0.0000000000000000     
 -0.11119999999999999          0.0000000000000000     
 -0.11009999999999999          0.0000000000000000     
 -0.10900000000000000         -3.5118708534599264E-027
 -0.10790000000000000          7.4504985084609096E-027
 -0.10679999999999999          1.4866711149828651E-025
 -0.10569999999999999          1.3379401427291106E-026
 -0.10460000000000000         -3.3986667929036000E-024
 -0.10349999999999999         -1.0345615737995017E-023
 -0.10239999999999999          1.3728257610469958E-023
 -0.10130000000000000          1.4490425671468825E-022
 -0.10020000000000000          2.4791310787327276E-022
  -9.9099999999999994E-002    -5.4806142944666004E-022
  -9.7999999999999990E-002    -3.1556540511082367E-021
  -9.6899999999999986E-002    -3.9838936810275310E-021
  -9.5799999999999996E-002     9.9147766535488221E-021
  -9.4699999999999993E-002     4.6280626025371187E-020
  -9.3599999999999989E-002     5.5445793674807269E-020
  -9.2499999999999999E-002    -1.0307765154252650E-019
  -9.1399999999999995E-002    -4.9576346230329730E-019
  -9.0299999999999991E-002    -6.5829049399713040E-019
  -8.9200000000000002E-002     6.2556392024208242E-019
  -8.8099999999999984E-002     4.0120315252644037E-018
  -8.6999999999999994E-002     6.3014172386758870E-018
  -8.5899999999999990E-002    -1.2064908998841189E-018
  -8.4799999999999986E-002    -2.4720107317690020E-017
  -8.3699999999999997E-002    -4.7688067426980416E-017
  -8.2599999999999993E-002    -1.8188050617538423E-017
  -8.1499999999999989E-002     1.1289571434871555E-016
  -8.0399999999999999E-002     2.8467167994617251E-016
  -7.9299999999999995E-002     2.3941163907994145E-016
  -7.8199999999999992E-002    -3.3782013865018288E-016
  -7.7100000000000002E-002    -1.3328104717902594E-015
  -7.5999999999999984E-002    -1.6960936913843275E-015
  -7.4899999999999994E-002     2.1442374361946596E-016
  -7.3799999999999991E-002     4.7604301956546274E-015
  -7.2699999999999987E-002     8.5543957984920982E-015
  -7.1599999999999997E-002     4.5954048841234402E-015
  -7.0499999999999993E-002    -1.1735645719373067E-014
  -6.9399999999999989E-002    -3.2586143527447986E-014
  -6.8300000000000000E-002    -3.3624334870238637E-014
  -6.7199999999999996E-002     1.0748072218477386E-014
  -6.6099999999999992E-002     9.2858460178958657E-014
  -6.5000000000000002E-002     1.4520857931875353E-013
  -6.3899999999999985E-002     6.6978086759542782E-014
  -6.2799999999999995E-002    -1.7779596967869987E-013
  -6.1699999999999991E-002    -4.4935797162241886E-013
  -6.0599999999999994E-002    -4.4031076527895063E-013
  -5.9499999999999990E-002     9.8530938182767036E-014
  -5.8399999999999994E-002     1.0039694769981011E-012
  -5.7299999999999990E-002     1.5430287256257280E-012
  -5.6199999999999986E-002     8.0353844238156835E-013
  -5.5099999999999996E-002    -1.3975188194181865E-012
  -5.3999999999999992E-002    -3.7543319147959053E-012
  -5.2899999999999989E-002    -3.8436831842347807E-012
  -5.1799999999999985E-002    -3.7689035919941105E-015
  -5.0699999999999995E-002     6.3580607792546040E-012
  -4.9599999999999991E-002     1.0296534458387185E-011
  -4.8499999999999988E-002     6.3645829058434078E-012
  -4.7399999999999998E-002    -6.0050601644046075E-012
  -4.6299999999999994E-002    -1.9159522926526229E-011
  -4.5199999999999990E-002    -2.0606877315643146E-011
  -4.4099999999999986E-002    -3.1908937297986384E-012
  -4.2999999999999997E-002     2.5028317959807644E-011
  -4.1899999999999993E-002     4.1598353234251206E-011
  -4.0799999999999989E-002     2.5569336578601387E-011
  -3.9699999999999985E-002    -2.0796465244332651E-011
  -3.8599999999999995E-002    -6.4166616464689241E-011
  -3.7499999999999992E-002    -6.0478302921218585E-011
  -3.6399999999999988E-002     4.9021967041262826E-012
  -3.5299999999999984E-002     8.9783167012136289E-011
  -3.4199999999999994E-002     1.1420267509443249E-010
  -3.3099999999999991E-002     2.6430670152510771E-011
  -3.1999999999999987E-002    -1.3146791988383200E-010
  -3.0899999999999997E-002    -2.2548517220055686E-010
  -2.9799999999999993E-002    -1.2559786544130702E-010
  -2.8699999999999989E-002     1.6113638201531444E-010
  -2.7599999999999986E-002     4.3720604914199157E-010
  -2.6499999999999996E-002     4.2555006740663259E-010
  -2.5399999999999992E-002     1.9732548928175220E-012
  -2.4299999999999988E-002    -6.2626365204820900E-010
  -2.3199999999999985E-002    -9.8277752602626833E-010
  -2.2099999999999995E-002    -6.5148952899107826E-010
  -2.0999999999999991E-002     3.3806921151402491E-010
  -1.9899999999999987E-002     1.3964049916381782E-009
  -1.8799999999999983E-002     1.7088328529979435E-009
  -1.7699999999999994E-002     8.4759610441409450E-010
  -1.6599999999999990E-002    -7.9629902671740638E-010
  -1.5499999999999986E-002    -2.1671806571532670E-009
  -1.4399999999999996E-002    -2.2689252698882001E-009
  -1.3299999999999992E-002    -9.4885477253114914E-010
  -1.2199999999999989E-002     9.1021179482453363E-010
  -1.1099999999999985E-002     2.0334522954357226E-009
  -9.9999999999999950E-003     1.7817749498050262E-009
  -8.8999999999999913E-003     7.0269384755405895E-010
  -7.7999999999999875E-003     4.1351838619974046E-011
  -6.6999999999999837E-003     5.1422044400339928E-010
  -5.5999999999999939E-003     1.3974914558900764E-009
  -4.4999999999999901E-003     9.0618479386961326E-010
  -3.3999999999999864E-003    -2.1602446498292238E-009
  -2.2999999999999826E-003    -6.7382810442495611E-009
  -1.1999999999999927E-003    -9.3902867703832271E-009
  -9.9999999999988987E-005    -6.3899046054416431E-009
   1.0000000000000148E-003     3.1325368965440248E-009
   2.1000000000000185E-003     1.5321127477818663E-008
   3.2000000000000084E-003     2.2865370041813549E-008
   4.3000000000000121E-003     1.9207716306368638E-008
   5.4000000000000159E-003     3.2064697563782829E-009
   6.5000000000000058E-003    -1.8974134263771703E-008
   7.6000000000000234E-003    -3.6430037653190084E-008
   8.7000000000000133E-003    -3.9304474341861351E-008
   9.8000000000000032E-003    -2.4307048818172916E-008
   1.0900000000000021E-002     3.4349207922446112E-009
   1.2000000000000011E-002     3.3146207556455920E-008
   1.3100000000000001E-002     5.3699906743531756E-008
   1.4200000000000018E-002     5.7952288301521548E-008
   1.5300000000000008E-002     4.3913694014463545E-008
   1.6400000000000026E-002     1.3428426370865054E-008
   1.7500000000000016E-002    -2.8948990760113702E-008
   1.8600000000000005E-002    -7.4919455528288381E-008
   1.9700000000000023E-002    -1.1037425196036565E-007
   2.0800000000000013E-002    -1.1621951045981405E-007
   2.1900000000000003E-002    -7.5495940166092623E-008
   2.3000000000000020E-002     1.4367373069035239E-008
   2.4100000000000010E-002     1.3117251285166276E-007
   2.5200000000000000E-002     2.2874922933624475E-007
   2.6300000000000018E-002     2.5367941702825192E-007
   2.7400000000000008E-002     1.7272066088480642E-007
   2.8500000000000025E-002    -3.4894398481810640E-009
   2.9600000000000015E-002    -2.1610205180877529E-007
   3.0700000000000005E-002    -3.7937454067105136E-007
   3.1800000000000023E-002    -4.1873272493830882E-007
   3.2900000000000013E-002    -3.0559871788682358E-007
   3.4000000000000002E-002    -7.0177691213757498E-008
   3.5100000000000020E-002     2.1322074417184922E-007
   3.6200000000000010E-002     4.5722032382400357E-007
   3.7300000000000028E-002     5.8985898476748844E-007
   3.8400000000000017E-002     5.6800814718371839E-007
   3.9500000000000007E-002     3.7814351117049227E-007
   4.0600000000000025E-002     3.7276947750797262E-008
   4.1700000000000015E-002    -3.9715735056233825E-007
   4.2800000000000005E-002    -8.1578986055319547E-007
   4.3900000000000022E-002    -1.0655579671947635E-006
   4.5000000000000012E-002    -9.9562078048620606E-007
   4.6100000000000002E-002    -5.3456903970072744E-007
   4.7200000000000020E-002     2.3823938022360380E-007
   4.8300000000000010E-002     1.0778819614642998E-006
   4.9400000000000027E-002     1.6464503005408915E-006
   5.0500000000000017E-002     1.6563895997023792E-006
   5.1600000000000007E-002     1.0199041753367055E-006
   5.2700000000000025E-002    -7.6865376286150422E-008
   5.3800000000000014E-002    -1.2257514754310250E-006
   5.4900000000000004E-002    -1.9613248696259689E-006
   5.6000000000000022E-002    -1.9634696855064249E-006
   5.7100000000000012E-002    -1.1999833304798813E-006
   5.8200000000000002E-002     5.7953116083808709E-008
   5.9300000000000019E-002     1.3483322618412785E-006
   6.0400000000000009E-002     2.1969563022139482E-006
   6.1500000000000027E-002     2.2767244445276447E-006
   6.2600000000000017E-002     1.4883473795634927E-006
   6.3700000000000007E-002    -4.2173724068561569E-008
   6.4800000000000024E-002    -2.0090942598471884E-006
   6.5900000000000014E-002    -3.9692667996860109E-006
   6.7000000000000004E-002    -5.3679591474065091E-006
   6.8100000000000022E-002    -5.5777072702767327E-006
   6.9200000000000012E-002    -3.9949791243998334E-006
   7.0300000000000029E-002    -2.0814673007407691E-007
   7.1400000000000019E-002     5.8118826018471736E-006
   7.2500000000000009E-002     1.3598164514405653E-005
   7.3600000000000027E-002     2.2250475012697279E-005
   7.4700000000000016E-002     3.0708943086210638E-005
   7.5800000000000006E-002     3.8172740460140631E-005
   7.6900000000000024E-002     4.4513613829622045E-005
   7.8000000000000014E-002     5.0512207963038236E-005
   7.9100000000000004E-002     5.7801669754553586E-005
   8.0200000000000021E-002     6.8515240855049342E-005
   8.1300000000000011E-002     8.4756204159930348E-005
   8.2400000000000029E-002     1.0808929800987244E-004
   8.3500000000000019E-002     1.3925867096986622E-004
   8.4600000000000009E-002     1.7826324619818479E-004
   8.5700000000000026E-002     2.2478663595393300E-004
   8.6800000000000016E-002     2.7883588336408138E-004
   8.7900000000000006E-002     3.4134872839786112E-004
   8.9000000000000024E-002     4.1453432640992105E-004
   9.0100000000000013E-002     5.0182826817035675E-004
   9.1200000000000003E-002     6.0752220451831818E-004
   9.2300000000000021E-002     7.3628296377137303E-004
   9.3400000000000011E-002     8.9281779946759343E-004
   9.4500000000000028E-002     1.0818516602739692E-003
   9.5600000000000018E-002     1.3083999510854483E-003
   9.6700000000000008E-002     1.5781461261212826E-003
   9.7800000000000026E-002     1.8977089785039425E-003
   9.8900000000000016E-002     2.2746922913938761E-003
  0.10000000000000001          2.7175783179700375E-003
  0.10110000000000002          3.2356732990592718E-003
  0.10220000000000001          3.8392951246351004E-003
  0.10330000000000003          4.5402143150568008E-003
  0.10440000000000002          5.3521520458161831E-003
  0.10550000000000001          6.2910397537052631E-003
  0.10660000000000003          7.3748496361076832E-003
  0.10770000000000002          8.6230179294943810E-003
  0.10880000000000001          1.0055726394057274E-002
  0.10990000000000003          1.1693498119711876E-002
  0.11100000000000002          1.3557320460677147E-002
  0.11210000000000001          1.5669181942939758E-002
  0.11320000000000002          1.8052719533443451E-002
  0.11430000000000001          2.0733483135700226E-002
  0.11540000000000003          2.3738566786050797E-002
  0.11650000000000002          2.7095723897218704E-002
  0.11760000000000001          3.0832314863801003E-002
  0.11870000000000003          3.4974459558725357E-002
  0.11980000000000002          3.9546735584735870E-002
  0.12090000000000001          4.4572159647941589E-002
  0.12200000000000003          5.0071891397237778E-002
  0.12310000000000001          5.6064728647470474E-002
  0.12420000000000003          6.2566056847572327E-002
  0.12530000000000002          6.9586478173732758E-002
  0.12640000000000001          7.7130660414695740E-002
  0.12750000000000003          8.5196629166603088E-002
  0.12860000000000002          9.3775153160095215E-002
  0.12970000000000001         0.10284908115863800     
  0.13080000000000003         0.11239210516214371     
  0.13190000000000002         0.12236748635768890     
  0.13300000000000001         0.13272649049758911     
  0.13410000000000000         0.14340700209140778     
  0.13520000000000004         0.15433332324028015     
  0.13630000000000003         0.16541604697704315     
  0.13740000000000002         0.17655260860919952     
  0.13850000000000001         0.18762724101543427     
  0.13960000000000000         0.19851082563400269     
  0.14070000000000005         0.20906119048595428     
  0.14180000000000004         0.21912255883216858     
  0.14290000000000003         0.22852607071399689     
  0.14400000000000002         0.23709154129028320     
  0.14510000000000001         0.24462895095348358     
  0.14620000000000000         0.25094106793403625     
  0.14730000000000004         0.25582593679428101     
  0.14840000000000003         0.25907978415489197     
  0.14950000000000002         0.26049938797950745     
  0.15060000000000001         0.25988548994064331     
  0.15170000000000000         0.25704786181449890     
  0.15280000000000005         0.25180831551551819     
  0.15390000000000004         0.24400454759597778     
  0.15500000000000003         0.23349365592002869     
  0.15610000000000002         0.22015649080276489     
  0.15720000000000001         0.20390136539936066     
  0.15830000000000000         0.18466719985008240     
  0.15940000000000004         0.16242760419845581     
  0.16050000000000003         0.13719527423381805     
  0.16160000000000002         0.10902690142393112     
  0.16270000000000001          7.8023388981819153E-002
  0.16380000000000000          4.4331438839435577E-002
  0.16490000000000005          8.1430245190858841E-003
  0.16600000000000004         -3.0305931344628334E-002
  0.16710000000000003         -7.0734955370426178E-002
  0.16820000000000002        -0.11282118409872055     
  0.16930000000000001        -0.15619966387748718     
  0.17040000000000000        -0.20046764612197876     
  0.17150000000000004        -0.24518905580043793     
  0.17260000000000003        -0.28989782929420471     
  0.17370000000000002        -0.33410638570785522     
  0.17480000000000001        -0.37731307744979858     
  0.17590000000000000        -0.41900885105133057     
  0.17700000000000005        -0.45868512988090515     
  0.17810000000000004        -0.49584066867828369     
  0.17920000000000003        -0.52998954057693481     
  0.18030000000000002        -0.56066936254501343     
  0.18140000000000001        -0.58744889497756958     
  0.18250000000000000        -0.60993653535842896     
  0.18360000000000004        -0.62778854370117188     
  0.18470000000000003        -0.64071500301361084     
  0.18580000000000002        -0.64848548173904419     
  0.18690000000000001        -0.65093350410461426     
  0.18800000000000000        -0.64795958995819092     
  0.18910000000000005        -0.63953381776809692     
  0.19020000000000004        -0.62569761276245117     
  0.19130000000000003        -0.60656368732452393     
  0.19240000000000002        -0.58231586217880249     
  0.19350000000000001        -0.55320680141448975     
  0.19460000000000005        -0.51955282688140869     
  0.19570000000000004        -0.48172983527183533     
  0.19680000000000003        -0.44016584753990173     
  0.19790000000000002        -0.39533454179763794     
  0.19900000000000001        -0.34774881601333618     
  0.20010000000000000        -0.29795119166374207     
  0.20120000000000005        -0.24650681018829346     
  0.20230000000000004        -0.19399441778659821     
  0.20340000000000003        -0.14099624752998352     
  0.20450000000000002         -8.8089391589164734E-002
  0.20560000000000000         -3.5835996270179749E-002
  0.20670000000000005          1.5224514529109001E-002
  0.20780000000000004          6.4582958817481995E-002
  0.20890000000000003         0.11176809668540955     
