 -0.12000000000000000          0.0000000000000000
 -0.11889999999999999          0.0000000000000000
 -0.11780000000000000          0.0000000000000000
 -0.11670000000000000          0.0000000000000000
 -0.11559999999999999          0.0000000000000000
 -0.11449999999999999          0.0000000000000000
 -0.11340000000000000         -3.2083377621283660E-010
 -0.11230000000000000          9.7563279677359560E-010
 -0.11119999999999999          1.2221483380869813E-008
 -0.11009999999999999          2.2307911962116123E-008
 -0.10900000000000000         -6.5436907448201964E-008
 -0.10790000000000000         -3.6238705547475547E-007
 -0.10679999999999999         -5.2413548701224499E-007
 -0.10569999999999999          6.7016082994086901E-007
 -0.10460000000000000          4.0067129702947568E-006
 -0.10349999999999999          6.0316401686577592E-006
 -0.10239999999999999         -2.6160275865549920E-006
 -0.10130000000000000         -2.7313477403367870E-005
 -0.10020000000000000         -4.7640893171774223E-005
  -9.9099999999999994E-002    -1.0065553396998439E-005
  -9.7999999999999990E-002     1.2300805246923119E-004
  -9.6899999999999986E-002     2.7172465343028307E-004
  -9.5799999999999996E-002     1.9561538647394627E-004
  -9.4699999999999993E-002    -3.2817290048114955E-004
  -9.3599999999999989E-002    -1.1087601305916905E-003
  -9.2499999999999999E-002    -1.2981467880308628E-003
  -9.1399999999999995E-002     1.3342431338969618E-004
  -9.0299999999999991E-002     3.1083794310688972E-003
  -8.9200000000000002E-002     5.3458190523087978E-003
  -8.8099999999999984E-002     3.1856340356171131E-003
  -8.6999999999999994E-002    -4.9767759628593922E-003
  -8.5899999999999990E-002    -1.4832047745585442E-002
  -8.4799999999999986E-002    -1.6417289152741432E-002
  -8.3699999999999997E-002    -1.3904209481552243E-003
  -8.2599999999999993E-002     2.6256434619426727E-002
  -8.1499999999999989E-002     4.6183269470930099E-002
  -8.0399999999999999E-002     3.3261947333812714E-002
  -7.9299999999999995E-002    -1.8805578351020813E-002
  -7.8199999999999992E-002    -8.0794885754585266E-002
  -7.7100000000000002E-002    -9.9639445543289185E-002
  -7.5999999999999984E-002    -3.9907239377498627E-002
  -7.4899999999999994E-002     7.4596367776393890E-002
  -7.3799999999999991E-002    0.16172620654106140
  -7.2699999999999987E-002    0.13981091976165771
  -7.1599999999999997E-002     5.3448034450411797E-003
  -7.0499999999999993E-002   -0.14318467676639557
  -6.9399999999999989E-002   -0.17698295414447784
  -6.8300000000000000E-002    -5.9584081172943115E-002
  -6.7199999999999996E-002     9.2733308672904968E-002
  -6.6099999999999992E-002     9.7365379333496094E-002
  -6.5000000000000002E-002   -0.10545264929533005
  -6.3899999999999985E-002   -0.33085489273071289
  -6.2799999999999995E-002   -0.25396034121513367
  -6.1699999999999991E-002    0.28275510668754578
  -6.0599999999999994E-002     1.0043576955795288
  -5.9499999999999990E-002     1.2716275453567505
  -5.8399999999999994E-002    0.54296231269836426
  -5.7299999999999990E-002    -1.0717173814773560
  -5.6199999999999986E-002    -2.6480324268341064
  -5.5099999999999996E-002    -2.9402852058410645
  -5.3999999999999992E-002    -1.2847584486007690
  -5.2899999999999989E-002     1.7390714883804321
  -5.1799999999999985E-002     4.4660549163818359
  -5.0699999999999995E-002     5.1295084953308105
  -4.9599999999999991E-002     3.0336704254150391
  -4.8499999999999988E-002   -0.92092937231063843
  -4.7399999999999998E-002    -4.7511978149414062
  -4.6299999999999994E-002    -6.5822124481201172
  -4.5199999999999990E-002    -5.6806368827819824
  -4.4099999999999986E-002    -2.6688416004180908
  -4.2999999999999997E-002     1.0921959877014160
  -4.1899999999999993E-002     4.3760542869567871
  -4.0799999999999989E-002     6.5682458877563477
  -3.9699999999999985E-002     7.5244903564453125
  -3.8599999999999995E-002     7.1142592430114746
  -3.7499999999999992E-002     4.9561200141906738
  -3.6399999999999988E-002    0.62937533855438232
  -3.5299999999999984E-002    -5.7573046684265137
  -3.4199999999999994E-002    -13.030130386352539
  -3.3099999999999991E-002    -18.843828201293945
  -3.1999999999999987E-002    -20.215564727783203
  -3.0899999999999997E-002    -14.647102355957031
  -2.9799999999999993E-002    -1.4953157901763916
  -2.8699999999999989E-002     17.007356643676758
  -2.7599999999999986E-002     35.753273010253906
  -2.6499999999999996E-002     48.144943237304688
  -2.5399999999999992E-002     48.545719146728516
  -2.4299999999999988E-002     34.755004882812500
  -2.3199999999999985E-002     9.2139806747436523
  -2.2099999999999995E-002    -21.870780944824219
  -2.0999999999999991E-002    -51.310226440429688
  -1.9899999999999987E-002    -74.523300170898438
  -1.8799999999999983E-002    -92.449234008789062
  -1.7699999999999994E-002    -112.52074432373047
  -1.6599999999999990E-002    -147.05966186523438
  -1.5499999999999986E-002    -209.29808044433594
  -1.4399999999999996E-002    -308.23510742187500
  -1.3299999999999992E-002    -444.51257324218750
  -1.2199999999999989E-002    -609.81225585937500
  -1.1099999999999985E-002    -791.20050048828125
  -9.9999999999999950E-003    -979.33422851562500
  -8.8999999999999913E-003    -1176.7060546875000
  -7.7999999999999875E-003    -1401.1719970703125
  -6.6999999999999837E-003    -1682.1517333984375
  -5.5999999999999939E-003    -2051.2543945312500
  -4.4999999999999901E-003    -2532.9162597656250
  -3.3999999999999864E-003    -3141.0124511718750
  -2.2999999999999826E-003    -3883.7495117187500
  -1.1999999999999927E-003    -4773.7773437500000
  -9.9999999999988987E-005    -5837.0888671875000
   1.0000000000000148E-003    -7115.3359375000000
   2.1000000000000185E-003    -8660.7568359375000
   3.2000000000000084E-003    -10527.859375000000
   4.3000000000000121E-003    -12767.912109375000
   5.4000000000000159E-003    -15430.209960937500
   6.5000000000000058E-003    -18569.574218750000
   7.6000000000000234E-003    -22256.107421875000
   8.7000000000000133E-003    -26581.798828125000
   9.8000000000000032E-003    -31661.197265625000
   1.0900000000000021E-002    -37626.382812500000
   1.2000000000000011E-002    -44620.007812500000
   1.3100000000000001E-002    -52790.339843750000
   1.4200000000000018E-002    -62291.171875000000
   1.5300000000000008E-002    -73286.015625000000
   1.6400000000000026E-002    -85953.640625000000
   1.7500000000000016E-002    -100491.99218750000
   1.8600000000000005E-002    -117118.50000000000
   1.9700000000000023E-002    -136069.20312500000
   2.0800000000000013E-002    -157598.21875000000
   2.1900000000000003E-002    -181979.04687500000
   2.3000000000000020E-002    -209504.84375000000
   2.4100000000000010E-002    -240484.32812500000
   2.5200000000000000E-002    -275231.46875000000
   2.6300000000000018E-002    -314052.31250000000
   2.7400000000000008E-002    -357233.43750000000
   2.8500000000000025E-002    -405040.06250000000
   2.9600000000000015E-002    -457721.00000000000
   3.0700000000000005E-002    -515517.96875000000
   3.1800000000000023E-002    -578669.43750000000
   3.2900000000000013E-002    -647400.00000000000
   3.4000000000000002E-002    -721902.56250000000
   3.5100000000000020E-002    -802310.62500000000
   3.6200000000000010E-002    -888671.00000000000
   3.7300000000000028E-002    -980926.81250000000
   3.8400000000000017E-002    -1078905.8750000000
   3.9500000000000007E-002    -1182323.7500000000
   4.0600000000000025E-002    -1290792.1250000000
   4.1700000000000015E-002    -1403819.7500000000
   4.2800000000000005E-002    -1520814.1250000000
   4.3900000000000022E-002    -1641064.2500000000
   4.5000000000000012E-002    -1763709.3750000000
   4.6100000000000002E-002    -1887715.8750000000
   4.7200000000000020E-002    -2011862.8750000000
   4.8300000000000010E-002    -2134733.0000000000
   4.9400000000000027E-002    -2254730.7500000000
   5.0500000000000017E-002    -2370090.5000000000
   5.1600000000000007E-002    -2478906.2500000000
   5.2700000000000025E-002    -2579147.5000000000
   5.3800000000000014E-002    -2668681.0000000000
   5.4900000000000004E-002    -2745296.2500000000
   5.6000000000000022E-002    -2806716.2500000000
   5.7100000000000012E-002    -2850610.7500000000
   5.8200000000000002E-002    -2874599.5000000000
   5.9300000000000019E-002    -2876292.7500000000
   6.0400000000000009E-002    -2853323.2500000000
   6.1500000000000027E-002    -2803426.2500000000
   6.2600000000000017E-002    -2724496.0000000000
   6.3700000000000007E-002    -2614655.2500000000
   6.4800000000000024E-002    -2472297.7500000000
   6.5900000000000014E-002    -2296129.7500000000
   6.7000000000000004E-002    -2085195.2500000000
   6.8100000000000022E-002    -1838944.1250000000
   6.9200000000000012E-002    -1557221.6250000000
   7.0300000000000029E-002    -1240303.0000000000
   7.1400000000000019E-002    -888942.12500000000
   7.2500000000000009E-002    -504431.84375000000
   7.3600000000000027E-002    -88618.734375000000
   7.4700000000000016E-002     356082.00000000000
   7.5800000000000006E-002     826639.06250000000
   7.6900000000000024E-002     1319515.2500000000
   7.8000000000000014E-002     1830639.6250000000
   7.9100000000000004E-002     2355477.5000000000
   8.0200000000000021E-002     2889040.5000000000
   8.1300000000000011E-002     3425960.5000000000
   8.2400000000000029E-002     3960538.0000000000
   8.3500000000000019E-002     4486834.5000000000
   8.4600000000000009E-002     4998721.0000000000
   8.5700000000000026E-002     5490025.0000000000
   8.6800000000000016E-002     5954541.5000000000
   8.7900000000000006E-002     6386160.5000000000
   8.9000000000000024E-002     6778969.0000000000
   9.0100000000000013E-002     7127379.0000000000
   9.1200000000000003E-002     7426206.5000000000
   9.2300000000000021E-002     7670803.5000000000
   9.3400000000000011E-002     7857098.5000000000
   9.4500000000000028E-002     7981674.0000000000
   9.5600000000000018E-002     8041838.5000000000
   9.6700000000000008E-002     8035701.5000000000
   9.7800000000000026E-002     7962238.5000000000
   9.8900000000000016E-002     7821301.5000000000
  0.10000000000000001          7613632.5000000000
  0.10110000000000002          7340826.5000000000
  0.10220000000000001          7005328.0000000000
  0.10330000000000003          6610413.5000000000
  0.10440000000000002          6160165.0000000000
  0.10550000000000001          5659425.5000000000
  0.10660000000000003          5113675.0000000000
  0.10770000000000002          4528972.0000000000
  0.10880000000000001          3911838.0000000000
  0.10990000000000003          3269153.7500000000
  0.11100000000000002          2608086.7500000000
  0.11210000000000001          1935939.7500000000
  0.11320000000000002          1260040.1250000000
  0.11430000000000001          587626.93750000000
  0.11540000000000003         -74275.375000000000
  0.11650000000000002         -718917.43750000000
  0.11760000000000001         -1339929.5000000000
  0.11870000000000003         -1931371.6250000000
  0.11980000000000002         -2487899.7500000000
  0.12090000000000001         -3004768.7500000000
  0.12200000000000003         -3477935.2500000000
  0.12310000000000001         -3904040.0000000000
  0.12420000000000003         -4280477.5000000000
  0.12530000000000002         -4605309.0000000000
  0.12640000000000001         -4877435.5000000000
  0.12750000000000003         -5096469.0000000000
  0.12860000000000002         -5262708.5000000000
  0.12970000000000001         -5377110.5000000000
  0.13080000000000003         -5441203.0000000000
  0.13190000000000002         -5457054.5000000000
  0.13300000000000001         -5427261.0000000000
  0.13410000000000000         -5354847.5000000000
  0.13520000000000004         -5243222.5000000000
  0.13630000000000003         -5096097.0000000000
  0.13740000000000002         -4917326.5000000000
  0.13850000000000001         -4710886.0000000000
  0.13960000000000000         -4480860.0000000000
  0.14070000000000005         -4231340.5000000000
  0.14180000000000004         -3966380.5000000000
  0.14290000000000003         -3689920.2500000000
  0.14400000000000002         -3405687.0000000000
  0.14510000000000001         -3117197.7500000000
  0.14620000000000000         -2827733.7500000000
  0.14730000000000004         -2540286.7500000000
  0.14840000000000003         -2257581.2500000000
  0.14950000000000002         -1982059.3750000000
  0.15060000000000001         -1715813.0000000000
  0.15170000000000000         -1460585.5000000000
  0.15280000000000005         -1217799.2500000000
  0.15390000000000004         -988574.56250000000
  0.15500000000000003         -773723.68750000000
  0.15610000000000002         -573729.56250000000
  0.15720000000000001         -388834.34375000000
  0.15830000000000000         -219019.64062500000
  0.15940000000000004         -64047.894531250000
  0.16050000000000003          76520.578125000000
  0.16160000000000002          203281.89062500000
  0.16270000000000001          317023.68750000000
  0.16380000000000000          418676.21875000000
  0.16490000000000005          509241.96875000000
  0.16600000000000004          589810.56250000000
  0.16710000000000003          661517.31250000000
  0.16820000000000002          725532.75000000000
  0.16930000000000001          783054.81250000000
  0.17040000000000000          835281.81250000000
  0.17150000000000004          883380.06250000000
  0.17260000000000003          928452.81250000000
  0.17370000000000002          971555.62500000000
  0.17480000000000001          1013693.5625000000
  0.17590000000000000          1055796.3750000000
  0.17700000000000005          1098698.1250000000
  0.17810000000000004          1143109.0000000000
  0.17920000000000003          1189617.0000000000
  0.18030000000000002          1238707.6250000000
  0.18140000000000001          1290747.0000000000
  0.18250000000000000          1345981.8750000000
  0.18360000000000004          1404464.0000000000
  0.18470000000000003          1466127.7500000000
  0.18580000000000002          1530770.5000000000
  0.18690000000000001          1598022.7500000000
  0.18800000000000000          1667417.5000000000
  0.18910000000000005          1738299.5000000000
  0.19020000000000004          1809814.8750000000
  0.19130000000000003          1880955.7500000000
  0.19240000000000002          1950652.0000000000
  0.19350000000000001          2017692.2500000000
  0.19460000000000005          2080735.5000000000
  0.19570000000000004          2138373.2500000000
  0.19680000000000003          2189000.0000000000
  0.19790000000000002          2230933.5000000000
  0.19900000000000001          2262454.2500000000
  0.20010000000000000          2281887.0000000000
  0.20120000000000005          2287534.5000000000
  0.20230000000000004          2277731.2500000000
  0.20340000000000003          2250777.5000000000
  0.20450000000000002          2205078.5000000000
  0.20560000000000000          2139173.0000000000
  0.20670000000000005          2051796.6250000000
  0.20780000000000004          1941893.6250000000
  0.20890000000000003          1808560.1250000000
