 -0.12000000000000000          0.0000000000000000
 -0.11889999999999999          0.0000000000000000
 -0.11780000000000000          0.0000000000000000
 -0.11670000000000000          0.0000000000000000
 -0.11559999999999999          0.0000000000000000
 -0.11449999999999999          0.0000000000000000
 -0.11340000000000000         -6.3657398796657105E-011
 -0.11230000000000000         -6.3657398796657105E-011
 -0.11119999999999999          1.2731479759331421E-010
 -0.11009999999999999          0.0000000000000000
 -0.10900000000000000         -3.8194439277994263E-010
 -0.10790000000000000         -3.8194439277994263E-010
 -0.10679999999999999          0.0000000000000000
 -0.10569999999999999          5.0925919037325684E-010
 -0.10460000000000000          7.6388878555988526E-010
 -0.10349999999999999          1.2731480314442933E-009
 -0.10239999999999999          1.2731480314442933E-009
 -0.10130000000000000          2.5462965069777965E-010
 -0.10020000000000000         -1.2731479204219909E-009
  -9.9099999999999994E-002    -3.3101847929373207E-009
  -9.7999999999999990E-002    -3.3101847929373207E-009
  -9.6899999999999986E-002    -2.5462965069777965E-010
  -9.5799999999999996E-002     1.7824071107952477E-009
  -9.4699999999999993E-002     1.7824071107952477E-009
  -9.3599999999999989E-002     1.7824071107952477E-009
  -9.2499999999999999E-002     1.7824071107952477E-009
  -9.1399999999999995E-002     1.7824071107952477E-009
  -9.0299999999999991E-002     1.7824071107952477E-009
  -8.9200000000000002E-002     9.9305541567673572E-009
  -8.8099999999999984E-002     1.4004627679753412E-008
  -8.6999999999999994E-002    -6.3657399351768618E-009
  -8.5899999999999990E-002    -1.4513886981148971E-008
  -8.4799999999999986E-002    -6.3657399351768618E-009
  -8.3699999999999997E-002    -6.3657399351768618E-009
  -8.2599999999999993E-002     1.7824071107952477E-009
  -8.1499999999999989E-002     9.9305541567673572E-009
  -8.0399999999999999E-002    -6.3657399351768618E-009
  -7.9299999999999995E-002    -3.8958326342708460E-008
  -7.8199999999999992E-002    -8.7847212171254796E-008
  -7.7100000000000002E-002    -2.2662042908905278E-008
  -7.5999999999999984E-002     1.4030089801053691E-007
  -7.4899999999999994E-002     1.0770830982664847E-007
  -7.3799999999999991E-002    -2.2662042908905278E-008
  -7.2699999999999987E-002    -5.5254631092793716E-008
  -7.1599999999999997E-002     9.9305452749831602E-009
  -7.0499999999999993E-002     1.4030089801053691E-007
  -6.9399999999999989E-002     1.4030089801053691E-007
  -6.8300000000000000E-002     7.5115721642760036E-008
  -6.7199999999999996E-002    -5.5254631092793716E-008
  -6.6099999999999992E-002    -3.1599535077475593E-007
  -6.5000000000000002E-002    -3.8118054135338753E-007
  -6.3899999999999985E-002    -1.8562499803920218E-007
  -6.2799999999999995E-002     3.3585641290301282E-007
  -6.1699999999999991E-002     5.9659714679582976E-007
  -6.0599999999999994E-002     3.3585644132472225E-007
  -5.9499999999999990E-002     7.5115735853614751E-008
  -5.8399999999999994E-002    -3.1599532235304650E-007
  -5.7299999999999990E-002    -3.1599535077475593E-007
  -5.6199999999999986E-002    -5.5254645303648431E-008
  -5.5099999999999996E-002    -5.7673605624586344E-007
  -5.3999999999999992E-002    -1.0982174671880784E-006
  -5.2899999999999989E-002    -5.7673605624586344E-007
  -5.1799999999999985E-002    -8.3747676171697094E-007
  -5.0699999999999995E-002    -1.6196988781302935E-006
  -4.9599999999999991E-002    -5.5254645303648431E-008
  -4.8499999999999988E-002     1.7699303498375230E-006
  -4.7399999999999998E-002     2.0306711121520493E-006
  -4.6299999999999994E-002     1.5091897012098343E-006
  -4.5199999999999990E-002     1.2484490525821457E-006
  -4.4099999999999986E-002    -5.5254417929972988E-008
  -4.2999999999999997E-002    -1.8804394130711444E-006
  -4.1899999999999993E-002    -1.6196987644434557E-006
  -4.0799999999999989E-002    -3.1599523708791821E-007
  -3.9699999999999985E-002     1.2484490525821457E-006
  -3.8599999999999995E-002     1.7699303498375230E-006
  -3.7499999999999992E-002     9.8770817658078158E-007
  -3.6399999999999988E-002    -5.7673605624586344E-007
  -3.5299999999999984E-002    -1.6196988781302935E-006
  -3.4199999999999994E-002    -1.0982174671880784E-006
  -3.3099999999999991E-002    -5.7673605624586344E-007
  -3.1999999999999987E-002    -2.1411801753856707E-006
  -3.0899999999999997E-002    -2.1411801753856707E-006
  -2.9799999999999993E-002     1.5091897012098343E-006
  -2.8699999999999989E-002     3.8558559936063830E-006
  -2.7599999999999986E-002     3.5951152312918566E-006
  -2.6499999999999996E-002    -5.5254758990486152E-008
  -2.5399999999999992E-002    -4.6182171899999958E-006
  -2.4299999999999988E-002    -6.3130319176707417E-006
  -2.3199999999999985E-002    -2.4345140445802826E-006
  -2.2099999999999995E-002     5.3551148084807210E-006
  -2.0999999999999991E-002     9.4617807917529717E-006
  -1.9899999999999987E-002     5.6158555707952473E-006
  -1.8799999999999983E-002    -3.9011802073218860E-006
  -1.7699999999999994E-002    -9.3767348516848870E-006
  -1.6599999999999990E-002    -5.7263646340288687E-006
  -1.5499999999999986E-002     2.8780787033610977E-006
  -1.4399999999999996E-002     8.0928930401569232E-006
  -1.3299999999999992E-002     7.0499304456461687E-006
  -1.2199999999999989E-002    -7.7229060480021872E-007
  -1.1099999999999985E-002    -1.2766362488036975E-005
  -9.9999999999999950E-003    -1.5373769201687537E-005
  -8.8999999999999913E-003    -3.3796968637034297E-006
  -7.7999999999999875E-003     1.1743264622054994E-005
  -6.6999999999999837E-003     1.4350671335705556E-005
  -5.5999999999999939E-003     3.9210435716086067E-006
  -4.4999999999999901E-003    -5.4656215979775880E-006
  -3.3999999999999864E-003    -3.9011774788377807E-006
  -2.2999999999999826E-003     3.3995622743532294E-006
  -1.1999999999999927E-003     6.5284507400065195E-006
  -9.9999999999988987E-005     3.3995622743532294E-006
   1.0000000000000148E-003    -5.9871031226066407E-006
   2.1000000000000185E-003    -1.3287843103171326E-005
   3.2000000000000084E-003    -1.0158954864891712E-005
   4.3000000000000121E-003     2.7067335395258851E-007
   5.4000000000000159E-003     8.0928948591463268E-006
   6.5000000000000058E-003     7.5714137892646249E-006
   7.6000000000000234E-003     1.3136368579580449E-006
   8.7000000000000133E-003    -1.8152516076952452E-006
   9.8000000000000032E-003     2.7067403607361484E-007
   1.0900000000000021E-002     3.3995625017269049E-006
   1.2000000000000011E-002     1.8351181552134221E-006
   1.3100000000000001E-002    -3.3796959542087279E-006
   1.4200000000000018E-002    -5.4656215979775880E-006
   1.5300000000000008E-002    -3.9011774788377807E-006
   1.6400000000000026E-002    -1.0330297754990170E-006
   1.7500000000000016E-002    -5.1154836455680197E-007
   1.8600000000000005E-002    -2.8582146569533506E-006
   1.9700000000000023E-002    -4.0315480873687193E-006
   2.0800000000000013E-002     5.9659942053258419E-007
   2.1900000000000003E-002     9.9669687187997624E-006
   2.3000000000000020E-002     1.7544745787745342E-005
   2.4100000000000010E-002     1.3861783372703940E-005
   2.5200000000000000E-002     3.0326646083267406E-007
   2.6300000000000018E-002    -1.1169324352522381E-005
   2.7400000000000008E-002    -8.6922873379080556E-006
   2.8500000000000025E-002     1.9980816432507709E-006
   2.9600000000000015E-002     6.1699329307884909E-006
   3.0700000000000005E-002    -1.3915478120907210E-006
   3.1800000000000023E-002    -1.4428583199332934E-005
   3.2900000000000013E-002    -1.9382656319066882E-005
   3.4000000000000002E-002    -8.4315461208461784E-006
   3.5100000000000020E-002     1.1384748177079018E-005
   3.6200000000000010E-002     2.2075117158237845E-005
   3.7300000000000028E-002     1.4513636415358633E-005
   3.8400000000000017E-002    -1.9130284272250719E-006
   3.9500000000000007E-002    -9.9959906947333366E-006
   4.0600000000000025E-002    -5.3026578825665638E-006
   4.1700000000000015E-002     3.3017854548234027E-006
   4.2800000000000005E-002     3.5625259897642536E-006
   4.3900000000000022E-002    -5.3026583373139147E-006
   4.5000000000000012E-002    -1.2864139534940477E-005
   4.6100000000000002E-002    -8.9530294644646347E-006
   4.7200000000000020E-002     5.6484500419173855E-006
   4.8300000000000010E-002     1.6338817658834159E-005
   4.9400000000000027E-002     1.3209930330049247E-005
   5.0500000000000017E-002     1.7289494280703366E-007
   5.1600000000000007E-002    -9.4745118985883892E-006
   5.2700000000000025E-002    -6.8671051849378273E-006
   5.3800000000000014E-002     4.8662268454791047E-006
   5.4900000000000004E-002     1.1906226063729264E-005
   5.6000000000000022E-002     3.1714125725557096E-006
   5.7100000000000012E-002    -1.4428585018322337E-005
   5.8200000000000002E-002    -2.2511547285830602E-005
   5.9300000000000019E-002    -1.1038957381970249E-005
   6.0400000000000009E-002     1.1906224244739860E-005
   6.1500000000000027E-002     2.5855852072709240E-005
   6.2600000000000017E-002     1.8164000721299089E-005
   6.3700000000000007E-002    -2.3041448002913967E-006
   6.4800000000000024E-002    -1.5015253666206263E-005
   6.5900000000000014E-002    -8.2359947555232793E-006
   6.7000000000000004E-002     9.0380772235221229E-006
   6.8100000000000022E-002     1.7512149497633800E-005
   6.9200000000000012E-002     6.2351127780857496E-006
   7.0300000000000029E-002    -1.5406367310788482E-005
   7.1400000000000019E-002    -2.6422661903779954E-005
   7.2500000000000009E-002    -1.6384145055781119E-005
   7.3600000000000027E-002     5.6158523875637911E-006
   7.4700000000000016E-002     2.0543258870020509E-005
   7.5800000000000006E-002     1.6306221368722618E-005
   7.6900000000000024E-002    -5.7673878472996876E-007
   7.8000000000000014E-002    -1.2782662452082150E-005
   7.9100000000000004E-002    -9.8330328910378739E-006
   8.0200000000000021E-002     4.0188165257859509E-006
   8.1300000000000011E-002     1.3812888937536627E-005
   8.2400000000000029E-002     8.7691860244376585E-006
   8.3500000000000019E-002    -6.7204409788246267E-006
   8.4600000000000009E-002    -1.8853032088372856E-005
   8.5700000000000026E-002    -1.7060439859051257E-005
   8.6800000000000016E-002    -3.6567380448104814E-006
   8.7900000000000006E-002     9.2051122919656336E-006
   8.9000000000000024E-002     1.2647704352275468E-005
   9.0100000000000013E-002     7.9380752140423283E-006
   9.1200000000000003E-002     3.3710387015162269E-006
   9.2300000000000021E-002     4.6890013436495792E-006
   9.3400000000000011E-002     8.4514076661434956E-006
   9.4500000000000028E-002     6.6608517954591662E-006
   9.5600000000000018E-002    -2.8205356557009509E-006
   9.6700000000000008E-002    -1.3322478480404243E-005
   9.7800000000000026E-002    -1.5482755770790391E-005
   9.8900000000000016E-002    -7.1400722845282871E-006
  0.10000000000000001          3.7371946746134199E-006
  0.10110000000000002          7.0718242568545975E-006
  0.10220000000000001          8.8076012616511434E-007
  0.10330000000000003         -6.4561372710159048E-006
  0.10440000000000002         -5.3978965297574177E-006
  0.10550000000000001          4.4364078348735347E-006
  0.10660000000000003          1.3574300282925833E-005
  0.10770000000000002          1.1877194992848672E-005
  0.10880000000000001         -1.1766455827455502E-006
  0.10990000000000003         -1.5527188224950805E-005
  0.11100000000000002         -1.9364391846465878E-005
  0.11210000000000001         -9.5032237368286587E-006
  0.11320000000000002          5.7091115195362363E-006
  0.11430000000000001          1.4061120964470319E-005
  0.11540000000000003          1.0252212632622104E-005
  0.11650000000000002         -3.4852610042435117E-007
  0.11760000000000001         -7.1942745307751466E-006
  0.11870000000000003         -4.1119037632597610E-006
  0.11980000000000002          5.7338429542141967E-006
  0.12090000000000001          1.3434621905616950E-005
  0.12200000000000003          1.2106855137972161E-005
  0.12310000000000001          2.3022071218292695E-006
  0.12420000000000003         -8.8900524133350700E-006
  0.12530000000000002         -1.3891948583477642E-005
  0.12640000000000001         -1.0351801392971538E-005
  0.12750000000000003         -2.2723252186551690E-006
  0.12860000000000002          3.6588812690752093E-006
  0.12970000000000001          3.7553063521045260E-006
  0.13080000000000003         -3.0390333449759055E-007
  0.13190000000000002         -3.6214842111803591E-006
  0.13300000000000001         -2.1272817321005277E-006
  0.13410000000000000          3.9963092604011763E-006
  0.13520000000000004          1.0137428944290150E-005
  0.13630000000000003          1.0624857168295421E-005
  0.13740000000000002          3.3820347198343370E-006
  0.13850000000000001         -7.6641354098683223E-006
  0.13960000000000000         -1.5005836758064106E-005
  0.14070000000000005         -1.3263541404739954E-005
  0.14180000000000004         -3.4939525903610047E-006
  0.14290000000000003          7.4938234320143238E-006
  0.14400000000000002          1.2362901543383487E-005
  0.14510000000000001          8.8875294750323519E-006
  0.14620000000000000          1.2047262316627894E-006
  0.14730000000000004         -4.0081777115119621E-006
  0.14840000000000003         -3.0630601486336673E-006
  0.14950000000000002          2.0254576611478115E-006
  0.15060000000000001          5.8167352108284831E-006
  0.15170000000000000          4.3604368329397403E-006
  0.15280000000000005         -1.6696174043318024E-006
  0.15390000000000004         -8.0004501796793193E-006
  0.15500000000000003         -1.0289161764376331E-005
  0.15610000000000002         -7.2273842306458391E-006
  0.15720000000000001         -1.0464673323440365E-006
  0.15830000000000000          4.3898626245209016E-006
  0.15940000000000004          6.1336454564298037E-006
  0.16050000000000003          3.9747283153701574E-006
  0.16160000000000002          2.1075379663670901E-007
  0.16270000000000001         -1.9946567135775695E-006
  0.16380000000000000         -6.4116920839296654E-007
  0.16490000000000005          3.5012683383683907E-006
  0.16600000000000004          6.9512766458501574E-006
  0.16710000000000003          5.8611194617697038E-006
  0.16820000000000002         -7.4336367106297985E-007
  0.16930000000000001         -9.3622611530008726E-006
  0.17040000000000000         -1.4000797818880528E-005
  0.17150000000000004         -1.0701734936446883E-005
  0.17260000000000003         -1.0321778063371312E-006
  0.17370000000000002          8.7316784629365429E-006
  0.17480000000000001          1.2475907169573475E-005
  0.17590000000000000          8.9629975263960660E-006
  0.17700000000000005          2.3599977794219740E-006
  0.17810000000000004         -1.7913976080308203E-006
  0.17920000000000003         -1.3701746865990572E-006
  0.18030000000000002          9.8349812560627470E-007
  0.18140000000000001          9.8608097687247209E-007
  0.18250000000000000         -2.9272396204760298E-006
  0.18360000000000004         -8.0541267379885539E-006
  0.18470000000000003         -9.8849377536680549E-006
  0.18580000000000002         -6.1305709095904604E-006
  0.18690000000000001          1.3123337794240797E-006
  0.18800000000000000          8.0151212387136184E-006
  0.18910000000000005          1.0315166036889423E-005
  0.19020000000000004          7.5224597821943462E-006
  0.19130000000000003          1.8074385934596648E-006
  0.19240000000000002         -3.5165937788406154E-006
  0.19350000000000001         -5.8826467466133181E-006
  0.19460000000000005         -4.6422665036516264E-006
  0.19570000000000004         -1.3209618145992863E-006
  0.19680000000000003          1.1736403848772170E-006
  0.19790000000000002          4.5277602112037130E-007
  0.19900000000000001         -3.2223606467596255E-006
  0.20010000000000000         -6.4887813095992897E-006
  0.20120000000000005         -5.2543568926921580E-006
  0.20230000000000004          1.4191587069944944E-006
  0.20340000000000003          9.3293147074291483E-006
  0.20450000000000002          1.1935806469409727E-005
  0.20560000000000000          6.1688915593549609E-006
  0.20670000000000005         -3.9806118365959264E-006
  0.20780000000000004         -1.0116959856532048E-005
  0.20890000000000003         -6.9103016357985325E-006
