 -0.12000000000000000          0.0000000000000000     
 -0.11889999999999999          0.0000000000000000     
 -0.11780000000000000          0.0000000000000000     
 -0.11670000000000000          0.0000000000000000     
 -0.11559999999999999          0.0000000000000000     
 -0.11449999999999999          0.0000000000000000     
 -0.11340000000000000          5.7026497239653917E-013
 -0.11230000000000000         -5.3162092783498593E-012
 -0.11119999999999999         -4.6963443550707140E-011
 -0.11009999999999999         -1.1170191160925214E-010
 -0.10900000000000000          5.4967662366234293E-011
 -0.10790000000000000          8.9497803612559323E-010
 -0.10679999999999999          2.0116617260867997E-009
 -0.10569999999999999          7.8520079327404346E-010
 -0.10460000000000000         -6.0685056979536967E-009
 -0.10349999999999999         -1.5575992051708454E-008
 -0.10239999999999999         -1.2706361296466184E-008
 -0.10130000000000000          1.8978617788434349E-008
 -0.10020000000000000          6.6547215737955412E-008
  -9.9099999999999994E-002     6.9677845715432341E-008
  -9.7999999999999990E-002    -3.2192822629895090E-008
  -9.6899999999999986E-002    -1.9280273022559413E-007
  -9.5799999999999996E-002    -2.1440138198158820E-007
  -9.4699999999999993E-002     8.3863753275181807E-008
  -9.3599999999999989E-002     5.4055078635428799E-007
  -9.2499999999999999E-002     5.5221971706487238E-007
  -9.1399999999999995E-002    -4.0210846918853349E-007
  -9.0299999999999991E-002    -1.8311217218069942E-006
  -8.9200000000000002E-002    -1.9614928987721214E-006
  -8.8099999999999984E-002     8.4177150938558043E-007
  -8.6999999999999994E-002     5.5454574976465665E-006
  -8.5899999999999990E-002     7.4829390541708563E-006
  -8.4799999999999986E-002     1.5775931387906894E-006
  -8.3699999999999997E-002    -1.1339604498061817E-005
  -8.2599999999999993E-002    -2.1127902073203586E-005
  -8.1499999999999989E-002    -1.4223421203496400E-005
  -8.0399999999999999E-002     1.2420869097695686E-005
  -7.9299999999999995E-002     4.1340972529724240E-005
  -7.8199999999999992E-002     4.2767685954459012E-005
  -7.7100000000000002E-002     1.4692180911879404E-006
  -7.5999999999999984E-002    -5.9052072174381465E-005
  -7.4899999999999994E-002    -8.3954240835737437E-005
  -7.3799999999999991E-002    -3.2653762900736183E-005
  -7.2699999999999987E-002     7.1086527896113694E-005
  -7.1599999999999997E-002     1.3815784768667072E-004
  -7.0499999999999993E-002     8.3679129602387547E-005
  -6.9399999999999989E-002    -8.0622186942491680E-005
  -6.8300000000000000E-002    -2.2255867952480912E-004
  -6.7199999999999996E-002    -1.8518931756261736E-004
  -6.6099999999999992E-002     5.7462544646114111E-005
  -6.5000000000000002E-002     3.2903539249673486E-004
  -6.3899999999999985E-002     3.6652051494456828E-004
  -6.2799999999999995E-002     6.1306338466238230E-005
  -6.1699999999999991E-002    -3.8605075678788126E-004
  -6.0599999999999994E-002    -5.8096362045034766E-004
  -5.9499999999999990E-002    -2.7607459924183786E-004
  -5.8399999999999994E-002     3.4851359669119120E-004
  -5.7299999999999990E-002     7.6330127194523811E-004
  -5.6199999999999986E-002     5.3096644114702940E-004
  -5.5099999999999996E-002    -2.4879249394871294E-004
  -5.3999999999999992E-002    -9.3217438552528620E-004
  -5.2899999999999989E-002    -8.5486698662862182E-004
  -5.1799999999999985E-002     3.1917708838591352E-005
  -5.0699999999999995E-002     1.0187871521338820E-003
  -4.9599999999999991E-002     1.2087543727830052E-003
  -4.8499999999999988E-002     3.4975243033841252E-004
  -4.7399999999999998E-002    -8.4982259431853890E-004
  -4.6299999999999994E-002    -1.3006925582885742E-003
  -4.5199999999999990E-002    -5.4927775636315346E-004
  -4.4099999999999986E-002     7.1975996252149343E-004
  -4.2999999999999997E-002     1.2517822906374931E-003
  -4.1899999999999993E-002     4.1635194793343544E-004
  -4.0799999999999989E-002    -1.0937066981568933E-003
  -3.9699999999999985E-002    -1.8083184259012341E-003
  -3.8599999999999995E-002    -8.5562386084347963E-004
  -3.7499999999999992E-002     1.1197207495570183E-003
  -3.6399999999999988E-002     2.4466658942401409E-003
  -3.5299999999999984E-002     1.9536206964403391E-003
  -3.4199999999999994E-002     9.2359470727387816E-005
  -3.3099999999999991E-002    -1.4777617761865258E-003
  -3.1999999999999987E-002    -1.5049397479742765E-003
  -3.0899999999999997E-002    -3.7779400008730590E-004
  -2.9799999999999993E-002     3.1159404898062348E-004
  -2.8699999999999989E-002    -4.9089145613834262E-004
  -2.7599999999999986E-002    -2.0243667531758547E-003
  -2.6499999999999996E-002    -2.3279406595975161E-003
  -2.5399999999999992E-002    -2.8675029170699418E-004
  -2.4299999999999988E-002     2.9395197052508593E-003
  -2.3199999999999985E-002     4.7262478619813919E-003
  -2.2099999999999995E-002     3.4536458551883698E-003
  -2.0999999999999991E-002     2.3404990497510880E-004
  -1.9899999999999987E-002    -1.9848980009555817E-003
  -1.8799999999999983E-002    -1.2617674656212330E-003
  -1.7699999999999994E-002     1.3389658415690064E-003
  -1.6599999999999990E-002     2.7589383535087109E-003
  -1.5499999999999986E-002     1.1741012567654252E-003
  -1.4399999999999996E-002    -1.7792821163311601E-003
  -1.3299999999999992E-002    -2.2696645464748144E-003
  -1.2199999999999989E-002     1.9154489273205400E-003
  -1.1099999999999985E-002     8.7408721446990967E-003
  -9.9999999999999950E-003     1.3376090675592422E-002
  -8.8999999999999913E-003     1.2675448320806026E-002
  -7.7999999999999875E-003     8.4024071693420410E-003
  -6.6999999999999837E-003     5.8219102211296558E-003
  -5.5999999999999939E-003     8.7492978200316429E-003
  -4.4999999999999901E-003     1.5836901962757111E-002
  -3.3999999999999864E-003     2.1932249888777733E-002
  -2.2999999999999826E-003     2.3398267105221748E-002
  -1.1999999999999927E-003     2.2165620699524879E-002
  -9.9999999999988987E-005     2.4290466681122780E-002
   1.0000000000000148E-003     3.4194786101579666E-002
   2.1000000000000185E-003     5.0251051783561707E-002
   3.2000000000000084E-003     6.6264919936656952E-002
   4.3000000000000121E-003     7.7568784356117249E-002
   5.4000000000000159E-003     8.5671059787273407E-002
   6.5000000000000058E-003     9.6711300313472748E-002
   7.6000000000000234E-003    0.11526436358690262     
   8.7000000000000133E-003    0.13990661501884460     
   9.8000000000000032E-003    0.16529697179794312     
   1.0900000000000021E-002    0.18872764706611633     
   1.2000000000000011E-002    0.21419386565685272     
   1.3100000000000001E-002    0.24933847784996033     
   1.4200000000000018E-002    0.29808703064918518     
   1.5300000000000008E-002    0.35666090250015259     
   1.6400000000000026E-002    0.41754576563835144     
   1.7500000000000016E-002    0.47773656249046326     
   1.8600000000000005E-002    0.54265028238296509     
   1.9700000000000023E-002    0.62117254734039307     
   2.0800000000000013E-002    0.71669471263885498     
   2.1900000000000003E-002    0.82361227273941040     
   2.3000000000000020E-002    0.93369293212890625     
   2.4100000000000010E-002     1.0462510585784912     
   2.5200000000000000E-002     1.1711742877960205     
   2.6300000000000018E-002     1.3206484317779541     
   2.7400000000000008E-002     1.4971699714660645     
   2.8500000000000025E-002     1.6902745962142944     
   2.9600000000000015E-002     1.8865395784378052     
   3.0700000000000005E-002     2.0833563804626465     
   3.1800000000000023E-002     2.2926826477050781     
   3.2900000000000013E-002     2.5296654701232910     
   3.4000000000000002E-002     2.7970736026763916     
   3.5100000000000020E-002     3.0811619758605957     
   3.6200000000000010E-002     3.3643157482147217     
   3.7300000000000028E-002     3.6420633792877197     
   3.8400000000000017E-002     3.9273235797882080     
   3.9500000000000007E-002     4.2362031936645508     
   4.0600000000000025E-002     4.5695161819458008     
   4.1700000000000015E-002     4.9085602760314941     
   4.2800000000000005E-002     5.2309541702270508     
   4.3900000000000022E-002     5.5303936004638672     
   4.5000000000000012E-002     5.8205204010009766     
   4.6100000000000002E-002     6.1173734664916992     
   4.7200000000000020E-002     6.4175882339477539     
   4.8300000000000010E-002     6.6956400871276855     
   4.9400000000000027E-002     6.9239878654479980     
   5.0500000000000017E-002     7.0955729484558105     
   5.1600000000000007E-002     7.2273955345153809     
   5.2700000000000025E-002     7.3377008438110352     
   5.3800000000000014E-002     7.4203248023986816     
   5.4900000000000004E-002     7.4429473876953125     
   5.6000000000000022E-002     7.3716287612915039     
   5.7100000000000012E-002     7.1994214057922363     
   5.8200000000000002E-002     6.9482288360595703     
   5.9300000000000019E-002     6.6421623229980469     
   6.0400000000000009E-002     6.2770066261291504     
   6.1500000000000027E-002     5.8184361457824707     
   6.2600000000000017E-002     5.2321476936340332     
   6.3700000000000007E-002     4.5165290832519531     
   6.4800000000000024E-002     3.7018032073974609     
   6.5900000000000014E-002     2.8183441162109375     
   6.7000000000000004E-002     1.8624812364578247     
   6.8100000000000022E-002    0.79999619722366333     
   6.9200000000000012E-002   -0.40119993686676025     
   7.0300000000000029E-002    -1.7345664501190186     
   7.1400000000000019E-002    -3.1549291610717773     
   7.2500000000000009E-002    -4.6195845603942871     
   7.3600000000000027E-002    -6.1254434585571289     
   7.4700000000000016E-002    -7.7068395614624023     
   7.5800000000000006E-002    -9.3969173431396484     
   7.6900000000000024E-002    -11.185665130615234     
   7.8000000000000014E-002    -13.020446777343750     
   7.9100000000000004E-002    -14.853524208068848     
   8.0200000000000021E-002    -16.679817199707031     
   8.1300000000000011E-002    -18.535245895385742     
   8.2400000000000029E-002    -20.452211380004883     
   8.3500000000000019E-002    -22.416296005249023     
   8.4600000000000009E-002    -24.374422073364258     
   8.5700000000000026E-002    -26.278144836425781     
   8.6800000000000016E-002    -28.134538650512695     
   8.7900000000000006E-002    -29.991540908813477     
   8.9000000000000024E-002    -31.889528274536133     
   9.0100000000000013E-002    -33.816650390625000     
   9.1200000000000003E-002    -35.719322204589844     
   9.2300000000000021E-002    -37.555549621582031     
   9.3400000000000011E-002    -39.338180541992188     
   9.4500000000000028E-002    -41.126415252685547     
   9.5600000000000018E-002    -42.967597961425781     
   9.6700000000000008E-002    -44.851409912109375     
   9.7800000000000026E-002    -46.718555450439453     
   9.8900000000000016E-002    -48.520656585693359     
  0.10000000000000001         -50.267021179199219     
  0.10110000000000002         -52.011436462402344     
  0.10220000000000001         -53.790897369384766     
  0.10330000000000003         -55.575702667236328     
  0.10440000000000002         -57.286045074462891     
  0.10550000000000001         -58.854557037353516     
  0.10660000000000003         -60.270793914794922     
  0.10770000000000002         -61.562419891357422     
  0.10880000000000001         -62.729858398437500     
  0.10990000000000003         -63.700302124023438     
  0.11100000000000002         -64.349975585937500     
  0.11210000000000001         -64.574478149414062     
  0.11320000000000002         -64.332511901855469     
  0.11430000000000001         -63.620613098144531     
  0.11540000000000003         -62.407901763916016     
  0.11650000000000002         -60.590393066406250     
  0.11760000000000001         -58.018035888671875     
  0.11870000000000003         -54.568702697753906     
  0.11980000000000002         -50.192348480224609     
  0.12090000000000001         -44.881031036376953     
  0.12200000000000003         -38.609268188476562     
  0.12310000000000001         -31.292499542236328     
  0.12420000000000003         -22.817359924316406     
  0.12530000000000002         -13.112383842468262     
  0.12640000000000001         -2.1905181407928467     
  0.12750000000000003          9.8740139007568359     
  0.12860000000000002          23.014070510864258     
  0.12970000000000001          37.228054046630859     
  0.13080000000000003          52.509532928466797     
  0.13190000000000002          68.808258056640625     
  0.13300000000000001          85.960548400878906     
  0.13410000000000000          103.74807739257812     
  0.13520000000000004          121.97201538085938     
  0.13630000000000003          140.45924377441406     
  0.13740000000000002          159.06207275390625     
  0.13850000000000001          177.56782531738281     
  0.13960000000000000          195.68234252929688     
  0.14070000000000005          213.08580017089844     
  0.14180000000000004          229.44544982910156     
  0.14290000000000003          244.50309753417969     
  0.14400000000000002          258.03302001953125     
  0.14510000000000001          269.78253173828125     
  0.14620000000000000          279.44094848632812     
  0.14730000000000004          286.67700195312500     
  0.14840000000000003          291.22674560546875     
  0.14950000000000002          292.92785644531250     
  0.15060000000000001          291.65554809570312     
  0.15170000000000000          287.29083251953125     
  0.15280000000000005          279.70513916015625     
  0.15390000000000004          268.78387451171875     
  0.15500000000000003          254.50340270996094     
  0.15610000000000002          236.95291137695312     
  0.15720000000000001          216.29484558105469     
  0.15830000000000000          192.70137023925781     
  0.15940000000000004          166.35020446777344     
  0.16050000000000003          137.44946289062500     
  0.16160000000000002          106.29290771484375     
  0.16270000000000001          73.263221740722656     
  0.16380000000000000          38.792942047119141     
  0.16490000000000005          3.3082661628723145     
  0.16600000000000004         -32.783046722412109     
  0.16710000000000003         -69.054862976074219     
  0.16820000000000002         -105.03607177734375     
  0.16930000000000001         -140.21093750000000     
  0.17040000000000000         -174.08549499511719     
  0.17150000000000004         -206.21679687500000     
  0.17260000000000003         -236.20541381835938     
  0.17370000000000002         -263.68008422851562     
  0.17480000000000001         -288.28115844726562     
  0.17590000000000000         -309.66040039062500     
  0.17700000000000005         -327.55044555664062     
  0.17810000000000004         -341.75039672851562     
  0.17920000000000003         -352.14550781250000     
  0.18030000000000002         -358.65103149414062     
  0.18140000000000001         -361.21887207031250     
  0.18250000000000000         -359.86480712890625     
  0.18360000000000004         -354.68035888671875     
  0.18470000000000003         -345.85440063476562     
  0.18580000000000002         -333.61581420898438     
  0.18690000000000001         -318.20037841796875     
  0.18800000000000000         -299.86306762695312     
  0.18910000000000005         -278.89633178710938     
  0.19020000000000004         -255.69898986816406     
  0.19130000000000003         -230.70147705078125     
  0.19240000000000002         -204.32977294921875     
  0.19350000000000001         -176.94374084472656     
  0.19460000000000005         -148.88758850097656     
  0.19570000000000004         -120.52759552001953     
  0.19680000000000003         -92.291778564453125     
  0.19790000000000002         -64.603370666503906     
  0.19900000000000001         -37.805004119873047     
  0.20010000000000000         -12.162575721740723     
  0.20120000000000005          12.134042739868164     
  0.20230000000000004          34.873771667480469     
  0.20340000000000003          55.811252593994141     
  0.20450000000000002          74.727188110351562     
  0.20560000000000000          91.486595153808594     
  0.20670000000000005          106.07616424560547     
  0.20780000000000004          118.53453063964844     
  0.20890000000000003          128.88185119628906     
