 -0.12000000000000000          0.0000000000000000     
 -0.11889999999999999          0.0000000000000000     
 -0.11780000000000000          0.0000000000000000     
 -0.11670000000000000          0.0000000000000000     
 -0.11559999999999999          0.0000000000000000     
 -0.11449999999999999          0.0000000000000000     
 -0.11340000000000000          5.7026497239653917E-013
 -0.11230000000000000         -5.3161997373707415E-012
 -0.11119999999999999         -4.6963440081260188E-011
 -0.11009999999999999         -1.1170194630372166E-010
 -0.10900000000000000          5.4967676244022101E-011
 -0.10790000000000000          8.9497814714789570E-010
 -0.10679999999999999          2.0116610599529849E-009
 -0.10569999999999999          7.8520057122943854E-010
 -0.10460000000000000         -6.0685030334184376E-009
 -0.10349999999999999         -1.5575988498994775E-008
 -0.10239999999999999         -1.2706362184644604E-008
 -0.10130000000000000          1.8978608906650152E-008
 -0.10020000000000000          6.6547215737955412E-008
  -9.9099999999999994E-002     6.9677831504577625E-008
  -9.7999999999999990E-002    -3.2192822629895090E-008
  -9.6899999999999986E-002    -1.9280273022559413E-007
  -9.5799999999999996E-002    -2.1440131092731463E-007
  -9.4699999999999993E-002     8.3863781696891238E-008
  -9.3599999999999989E-002     5.4055078635428799E-007
  -9.2499999999999999E-002     5.5221966022145352E-007
  -9.1399999999999995E-002    -4.0210844076682406E-007
  -9.0299999999999991E-002    -1.8311217218069942E-006
  -8.9200000000000002E-002    -1.9614928987721214E-006
  -8.8099999999999984E-002     8.4177167991583701E-007
  -8.6999999999999994E-002     5.5454570428992156E-006
  -8.5899999999999990E-002     7.4829372351814527E-006
  -8.4799999999999986E-002     1.5775938209117157E-006
  -8.3699999999999997E-002    -1.1339598131598905E-005
  -8.2599999999999993E-002    -2.1127900254214182E-005
  -8.1499999999999989E-002    -1.4223426660464611E-005
  -8.0399999999999999E-002     1.2420862731232774E-005
  -7.9299999999999995E-002     4.1340961615787819E-005
  -7.8199999999999992E-002     4.2767685954459012E-005
  -7.7100000000000002E-002     1.4692330978505197E-006
  -7.5999999999999984E-002    -5.9052050346508622E-005
  -7.4899999999999994E-002    -8.3954226283822209E-005
  -7.3799999999999991E-002    -3.2653770176693797E-005
  -7.2699999999999987E-002     7.1086476964410394E-005
  -7.1599999999999997E-002     1.3815777492709458E-004
  -7.0499999999999993E-002     8.3679144154302776E-005
  -6.9399999999999989E-002    -8.0622070527169853E-005
  -6.8300000000000000E-002    -2.2255856310948730E-004
  -6.7199999999999996E-002    -1.8518925935495645E-004
  -6.6099999999999992E-002     5.7462439144728705E-005
  -6.5000000000000002E-002     3.2903513056226075E-004
  -6.3899999999999985E-002     3.6652028211392462E-004
  -6.2799999999999995E-002     6.1306447605602443E-005
  -6.1699999999999991E-002    -3.8605034933425486E-004
  -6.0599999999999994E-002    -5.8096315478906035E-004
  -5.9499999999999990E-002    -2.7607451193034649E-004
  -5.8399999999999994E-002     3.4851283999159932E-004
  -5.7299999999999990E-002     7.6330022420734167E-004
  -5.6199999999999986E-002     5.3096620831638575E-004
  -5.5099999999999996E-002    -2.4879106786102057E-004
  -5.3999999999999992E-002    -9.3217240646481514E-004
  -5.2899999999999989E-002    -8.5486617172136903E-004
  -5.1799999999999985E-002     3.1915675208438188E-005
  -5.0699999999999995E-002     1.0187833104282618E-003
  -4.9599999999999991E-002     1.2087520444765687E-003
  -4.8499999999999988E-002     3.4975548624061048E-004
  -4.7399999999999998E-002    -8.4981572581455112E-004
  -4.6299999999999994E-002    -1.3006873195990920E-003
  -4.5199999999999990E-002    -5.4928078316152096E-004
  -4.4099999999999986E-002     7.1974837919697165E-004
  -4.2999999999999997E-002     1.2517706491053104E-003
  -4.1899999999999993E-002     4.1635223897174001E-004
  -4.0799999999999989E-002    -1.0936893522739410E-003
  -3.9699999999999985E-002    -1.8082949100062251E-003
  -3.8599999999999995E-002    -8.5561617743223906E-004
  -3.7499999999999992E-002     1.1196993291378021E-003
  -3.6399999999999988E-002     2.4466258473694324E-003
  -3.5299999999999984E-002     1.9535955507308245E-003
  -3.4199999999999994E-002     9.2380469141062349E-005
  -3.3099999999999991E-002    -1.4776973985135555E-003
  -3.1999999999999987E-002    -1.5048787463456392E-003
  -3.0899999999999997E-002    -3.7779682315886021E-004
  -2.9799999999999993E-002     3.1150408904068172E-004
  -2.8699999999999989E-002    -4.9101869808509946E-004
  -2.7599999999999986E-002    -2.0244298502802849E-003
  -2.6499999999999996E-002    -2.3278610315173864E-003
  -2.5399999999999992E-002    -2.8654630295932293E-004
  -2.4299999999999988E-002     2.9397103935480118E-003
  -2.3199999999999985E-002     4.7262613661587238E-003
  -2.2099999999999995E-002     3.4534274600446224E-003
  -2.0999999999999991E-002     2.3372548457700759E-004
  -1.9899999999999987E-002    -1.9850754179060459E-003
  -1.8799999999999983E-002    -1.2616157764568925E-003
  -1.7699999999999994E-002     1.3393727131187916E-003
  -1.6599999999999990E-002     2.7592710684984922E-003
  -1.5499999999999986E-002     1.1740279151126742E-003
  -1.4399999999999996E-002    -1.7797653563320637E-003
  -1.3299999999999992E-002    -2.2701988928020000E-003
  -1.2199999999999989E-002     1.9153755856677890E-003
  -1.1099999999999985E-002     8.7414709851145744E-003
  -9.9999999999999950E-003     1.3376998715102673E-002
  -8.8999999999999913E-003     1.2675953097641468E-002
  -7.7999999999999875E-003     8.4019340574741364E-003
  -6.6999999999999837E-003     5.8206003159284592E-003
  -5.5999999999999939E-003     8.7481504306197166E-003
  -4.4999999999999901E-003     1.5836864709854126E-002
  -3.3999999999999864E-003     2.1933410316705704E-002
  -2.2999999999999826E-003     2.3399628698825836E-002
  -1.1999999999999927E-003     2.2165743634104729E-002
  -9.9999999999988987E-005     2.4289457127451897E-002
   1.0000000000000148E-003     3.4194089472293854E-002
   2.1000000000000185E-003     5.0251621752977371E-002
   3.2000000000000084E-003     6.6267147660255432E-002
   4.3000000000000121E-003     7.7570445835590363E-002
   5.4000000000000159E-003     8.5668854415416718E-002
   6.5000000000000058E-003     9.6706770360469818E-002
   7.6000000000000234E-003    0.11526039987802505     
   8.7000000000000133E-003    0.13990743458271027     
   9.8000000000000032E-003    0.16530415415763855     
   1.0900000000000021E-002    0.18873547017574310     
   1.2000000000000011E-002    0.21419470012187958     
   1.3100000000000001E-002    0.24933153390884399     
   1.4200000000000018E-002    0.29807811975479126     
   1.5300000000000008E-002    0.35665580630302429     
   1.6400000000000026E-002    0.41755139827728271     
   1.7500000000000016E-002    0.47775229811668396     
   1.8600000000000005E-002    0.54266065359115601     
   1.9700000000000023E-002    0.62116748094558716     
   2.0800000000000013E-002    0.71667611598968506     
   2.1900000000000003E-002    0.82358956336975098     
   2.3000000000000020E-002    0.93368411064147949     
   2.4100000000000010E-002     1.0462652444839478     
   2.5200000000000000E-002     1.1712044477462769     
   2.6300000000000018E-002     1.3206815719604492     
   2.7400000000000008E-002     1.4971752166748047     
   2.8500000000000025E-002     1.6902562379837036     
   2.9600000000000015E-002     1.8864823579788208     
   3.0700000000000005E-002     2.0833237171173096     
   3.1800000000000023E-002     2.2927014827728271     
   3.2900000000000013E-002     2.5297236442565918     
   3.4000000000000002E-002     2.7971403598785400     
   3.5100000000000020E-002     3.0811741352081299     
   3.6200000000000010E-002     3.3642253875732422     
   3.7300000000000028E-002     3.6419596672058105     
   3.8400000000000017E-002     3.9272596836090088     
   3.9500000000000007E-002     4.2362918853759766     
   4.0600000000000025E-002     4.5695772171020508     
   4.1700000000000015E-002     4.9086475372314453     
   4.2800000000000005E-002     5.2309112548828125     
   4.3900000000000022E-002     5.5303463935852051     
   4.5000000000000012E-002     5.8205704689025879     
   4.6100000000000002E-002     6.1173748970031738     
   4.7200000000000020E-002     6.4175286293029785     
   4.8300000000000010E-002     6.6957306861877441     
   4.9400000000000027E-002     6.9239768981933594     
   5.0500000000000017E-002     7.0954585075378418     
   5.1600000000000007E-002     7.2273416519165039     
   5.2700000000000025E-002     7.3378081321716309     
   5.3800000000000014E-002     7.4204654693603516     
   5.4900000000000004E-002     7.4430251121520996     
   5.6000000000000022E-002     7.3713064193725586     
   5.7100000000000012E-002     7.1990027427673340     
   5.8200000000000002E-002     6.9484066963195801     
   5.9300000000000019E-002     6.6427030563354492     
   6.0400000000000009E-002     6.2771658897399902     
   6.1500000000000027E-002     5.8181619644165039     
   6.2600000000000017E-002     5.2320327758789062     
   6.3700000000000007E-002     4.5165181159973145     
   6.4800000000000024E-002     3.7018735408782959     
   6.5900000000000014E-002     2.8185033798217773     
   6.7000000000000004E-002     1.8629664182662964     
   6.8100000000000022E-002    0.79969620704650879     
   6.9200000000000012E-002   -0.40190365910530090     
   7.0300000000000029E-002    -1.7348479032516479     
   7.1400000000000019E-002    -3.1545810699462891     
   7.2500000000000009E-002    -4.6186957359313965     
   7.3600000000000027E-002    -6.1249322891235352     
   7.4700000000000016E-002    -7.7075619697570801     
   7.5800000000000006E-002    -9.3982248306274414     
   7.6900000000000024E-002    -11.185683250427246     
   7.8000000000000014E-002    -13.019780158996582     
   7.9100000000000004E-002    -14.852501869201660     
   8.0200000000000021E-002    -16.679660797119141     
   8.1300000000000011E-002    -18.536363601684570     
   8.2400000000000029E-002    -20.453268051147461     
   8.3500000000000019E-002    -22.415985107421875     
   8.4600000000000009E-002    -24.372783660888672     
   8.5700000000000026E-002    -26.277406692504883     
   8.6800000000000016E-002    -28.135496139526367     
   8.7900000000000006E-002    -29.993362426757812     
   8.9000000000000024E-002    -31.890632629394531     
   9.0100000000000013E-002    -33.815929412841797     
   9.1200000000000003E-002    -35.716983795166016     
   9.2300000000000021E-002    -37.553009033203125     
   9.3400000000000011E-002    -39.338333129882812     
   9.4500000000000028E-002    -41.129268646240234     
   9.5600000000000018E-002    -42.971168518066406     
   9.6700000000000008E-002    -44.852115631103516     
   9.7800000000000026E-002    -46.715377807617188     
   9.8900000000000016E-002    -48.516841888427734     
  0.10000000000000001         -50.266452789306641     
  0.10110000000000002         -52.014839172363281     
  0.10220000000000001         -53.794555664062500     
  0.10330000000000003         -55.575679779052734     
  0.10440000000000002         -57.282325744628906     
  0.10550000000000001         -58.850822448730469     
  0.10660000000000003         -60.271324157714844     
  0.10770000000000002         -61.566894531250000     
  0.10880000000000001         -62.733367919921875     
  0.10990000000000003         -63.699192047119141     
  0.11100000000000002         -64.345146179199219     
  0.11210000000000001         -64.571296691894531     
  0.11320000000000002         -64.334403991699219     
  0.11430000000000001         -63.625724792480469     
  0.11540000000000003         -62.410835266113281     
  0.11650000000000002         -60.587577819824219     
  0.11760000000000001         -58.012821197509766     
  0.11870000000000003         -54.565624237060547     
  0.11980000000000002         -50.194068908691406     
  0.12090000000000001         -44.887817382812500     
  0.12200000000000003         -38.614780426025391     
  0.12310000000000001         -31.291728973388672     
  0.12420000000000003         -22.810041427612305     
  0.12530000000000002         -13.104680061340332     
  0.12640000000000001         -2.1927700042724609     
  0.12750000000000003          9.8661613464355469     
  0.12860000000000002          23.014841079711914     
  0.12970000000000001          37.231521606445312     
  0.13080000000000003          52.513591766357422     
  0.13190000000000002          68.809974670410156     
  0.13300000000000001          85.958534240722656     
  0.13410000000000000          103.74460601806641     
  0.13520000000000004          121.96498870849609     
  0.13630000000000003          140.45732116699219     
  0.13740000000000002          159.06315612792969     
  0.13850000000000001          177.57623291015625     
  0.13960000000000000          195.69203186035156     
  0.14070000000000005          213.07905578613281     
  0.14180000000000004          229.42903137207031     
  0.14290000000000003          244.50035095214844     
  0.14400000000000002          258.04629516601562     
  0.14510000000000001          269.79223632812500     
  0.14620000000000000          279.43975830078125     
  0.14730000000000004          286.66418457031250     
  0.14840000000000003          291.22067260742188     
  0.14950000000000002          292.93151855468750     
  0.15060000000000001          291.67047119140625     
  0.15170000000000000          287.30209350585938     
  0.15280000000000005          279.69540405273438     
  0.15390000000000004          268.75888061523438     
  0.15500000000000003          254.49238586425781     
  0.15610000000000002          236.96813964843750     
  0.15720000000000001          216.32400512695312     
  0.15830000000000000          192.71659851074219     
  0.15940000000000004          166.33604431152344     
  0.16050000000000003          137.42083740234375     
  0.16160000000000002          106.27690124511719     
  0.16270000000000001          73.275543212890625     
  0.16380000000000000          38.819728851318359     
  0.16490000000000005          3.3202958106994629     
  0.16600000000000004         -32.798454284667969     
  0.16710000000000003         -69.082595825195312     
  0.16820000000000002         -105.04549407958984     
  0.16930000000000001         -140.19667053222656     
  0.17040000000000000         -174.06219482421875     
  0.17150000000000004         -206.20162963867188     
  0.17260000000000003         -236.20933532714844     
  0.17370000000000002         -263.69882202148438     
  0.17480000000000001         -288.29248046875000     
  0.17590000000000000         -309.65802001953125     
  0.17700000000000005         -327.53863525390625     
  0.17810000000000004         -341.74807739257812     
  0.17920000000000003         -352.15621948242188     
  0.18030000000000002         -358.65374755859375     
  0.18140000000000001         -361.21636962890625     
  0.18250000000000000         -359.86660766601562     
  0.18360000000000004         -354.68307495117188     
  0.18470000000000003         -345.85922241210938     
  0.18580000000000002         -333.61770629882812     
  0.18690000000000001         -318.18829345703125     
  0.18800000000000000         -299.84255981445312     
  0.18910000000000005         -278.89056396484375     
  0.19020000000000004         -255.71990966796875     
  0.19130000000000003         -230.72981262207031     
  0.19240000000000002         -204.33573913574219     
  0.19350000000000001         -176.91983032226562     
  0.19460000000000005         -148.85432434082031     
  0.19570000000000004         -120.51790618896484     
  0.19680000000000003         -92.313499450683594     
  0.19790000000000002         -64.632171630859375     
  0.19900000000000001         -37.819400787353516     
  0.20010000000000000         -12.146872520446777     
  0.20120000000000005          12.165123939514160     
  0.20230000000000004          34.890663146972656     
  0.20340000000000003          55.799102783203125     
  0.20450000000000002          74.693382263183594     
  0.20560000000000000          91.464729309082031     
  0.20670000000000005          106.08434295654297     
  0.20780000000000004          118.56321716308594     
  0.20890000000000003          128.90318298339844     
