 -0.12000000000000000          0.0000000000000000     
 -0.11889999999999999          0.0000000000000000     
 -0.11780000000000000          0.0000000000000000     
 -0.11670000000000000          0.0000000000000000     
 -0.11559999999999999          0.0000000000000000     
 -0.11449999999999999          0.0000000000000000     
 -0.11340000000000000          0.0000000000000000     
 -0.11230000000000000          0.0000000000000000     
 -0.11119999999999999         -4.6316853547364812E-022
 -0.11009999999999999          2.5474268946179667E-021
 -0.10900000000000000          1.3431887225813208E-020
 -0.10790000000000000         -4.2148338646611700E-020
 -0.10679999999999999         -1.1996065341397815E-019
 -0.10569999999999999         -1.3895083327242328E-021
 -0.10460000000000000          3.9878811601003055E-019
 -0.10349999999999999          3.0985976366143864E-019
 -0.10239999999999999         -4.5853671582323113E-020
 -0.10130000000000000          1.8512845980189513E-018
 -0.10020000000000000          2.7998535518738295E-018
  -9.9099999999999994E-002     9.0271523057376681E-019
  -9.7999999999999990E-002    -7.6344072152765153E-018
  -9.6899999999999986E-002    -2.0914375050786648E-017
  -9.5799999999999996E-002    -3.3245775173212821E-017
  -9.4699999999999993E-002    -9.5315459501668843E-018
  -9.3599999999999989E-002     1.0429675498219810E-016
  -9.2499999999999999E-002     2.3330217571985339E-016
  -9.1399999999999995E-002     2.2571363401518172E-016
  -9.0299999999999991E-002     5.6455937074581194E-018
  -8.9200000000000002E-002    -5.8626157246432879E-016
  -8.8099999999999984E-002    -1.1022831495358315E-015
  -8.6999999999999994E-002    -9.2015783098635612E-016
  -8.5899999999999990E-002     2.4847933853853555E-016
  -8.4799999999999986E-002     2.0545550700470320E-015
  -8.3699999999999997E-002     3.4508490730472251E-015
  -8.2599999999999993E-002     3.3294324057724783E-015
  -8.1499999999999989E-002     2.9401106522259843E-016
  -8.0399999999999999E-002    -4.6840799163385457E-015
  -7.9299999999999995E-002    -7.9623350149543928E-015
  -7.8199999999999992E-002    -8.4480025310863273E-015
  -7.7100000000000002E-002    -4.7144346125528244E-015
  -7.5999999999999984E-002     3.3901403158933781E-015
  -7.4899999999999994E-002     1.5288992131785167E-014
  -7.3799999999999991E-002     2.6459344155786713E-014
  -7.2699999999999987E-002     2.8523431311105671E-014
  -7.1599999999999997E-002     1.4560492975169634E-014
  -7.0499999999999993E-002    -1.7979222982373450E-014
  -6.9399999999999989E-002    -6.2660624302116052E-014
  -6.8300000000000000E-002    -9.7628678687351755E-014
  -6.7199999999999996E-002    -8.9857998429240804E-014
  -6.6099999999999992E-002    -1.8950552932439635E-014
  -6.5000000000000002E-002     9.9552297286829849E-014
  -6.3899999999999985E-002     2.1611247405343981E-013
  -6.2799999999999995E-002     2.6176519177072144E-013
  -6.1699999999999991E-002     1.6948836539971979E-013
  -6.0599999999999994E-002    -6.5574668362423233E-014
  -5.9499999999999990E-002    -3.6280313063692671E-013
  -5.8399999999999994E-002    -6.0952214412865469E-013
  -5.7299999999999990E-002    -6.4837550476162797E-013
  -5.6199999999999986E-002    -3.3560567519463902E-013
  -5.5099999999999996E-002     3.3850071183560981E-013
  -5.3999999999999992E-002     1.1777340170812667E-012
  -5.2899999999999989E-002     1.7139109142333409E-012
  -5.1799999999999985E-002     1.4263958937610344E-012
  -5.0699999999999995E-002     5.8756493594158687E-014
  -4.9599999999999991E-002    -1.9460787148428693E-012
  -4.8499999999999988E-002    -3.4458195845299411E-012
  -4.7399999999999998E-002    -3.2690367340187931E-012
  -4.6299999999999994E-002    -9.3977581792914489E-013
  -4.5199999999999990E-002     2.7318698518630224E-012
  -4.4099999999999986E-002     5.8051731824382280E-012
  -4.2999999999999997E-002     6.1538825250895268E-012
  -4.1899999999999993E-002     2.6716474085114461E-012
  -4.0799999999999989E-002    -3.5293538924729972E-012
  -3.9699999999999985E-002    -9.0465352223234596E-012
  -3.8599999999999995E-002    -9.8663412509414350E-012
  -3.7499999999999992E-002    -4.1587774890494700E-012
  -3.6399999999999988E-002     5.5079469631069689E-012
  -3.5299999999999984E-002     1.2812384833638113E-011
  -3.4199999999999994E-002     1.1771114465097821E-011
  -3.3099999999999991E-002     1.9489765704094886E-012
  -3.1999999999999987E-002    -9.8974231588222494E-012
  -3.0899999999999997E-002    -1.4264544406783486E-011
  -2.9799999999999993E-002    -6.7619538440810700E-012
  -2.8699999999999989E-002     7.2641207285450982E-012
  -2.7599999999999986E-002     1.5874031256135623E-011
  -2.6499999999999996E-002     1.0403472354425514E-011
  -2.5399999999999992E-002    -6.5366063256577789E-012
  -2.4299999999999988E-002    -2.1879810463421023E-011
  -2.3199999999999985E-002    -2.3391207373824052E-011
  -2.2099999999999995E-002    -1.1548693425178502E-011
  -2.0999999999999991E-002     1.5060461558413785E-012
  -1.9899999999999987E-002     7.9090848453811091E-012
  -1.8799999999999983E-002     1.4995943722895255E-011
  -1.7699999999999994E-002     4.0452686339564892E-011
  -1.6599999999999990E-002     8.2196770223585958E-011
  -1.5499999999999986E-002     9.7458381642656633E-011
  -1.4399999999999996E-002     3.4578048757616386E-011
  -1.3299999999999992E-002    -1.1294051110999348E-010
  -1.2199999999999989E-002    -2.6232402361436868E-010
  -1.1099999999999985E-002    -2.8097366100432453E-010
  -9.9999999999999950E-003    -9.4726032573433372E-011
  -8.8999999999999913E-003     2.2455561021761383E-010
  -7.7999999999999875E-003     4.6824411015222722E-010
  -6.6999999999999837E-003     4.2746356454514967E-010
  -5.5999999999999939E-003     5.5465659842823811E-011
  -4.4999999999999901E-003    -4.8015164066939064E-010
  -3.3999999999999864E-003    -8.4220308504967534E-010
  -2.2999999999999826E-003    -7.2185080135511726E-010
  -1.1999999999999927E-003     9.2146290597838743E-012
  -9.9999999999988987E-005     1.1580316705561700E-009
   1.0000000000000148E-003     2.0353101426451303E-009
   2.1000000000000185E-003     1.8025627657181076E-009
   3.2000000000000084E-003     2.2306356761703228E-010
   4.3000000000000121E-003    -1.8935448764523244E-009
   5.4000000000000159E-003    -3.3497078444355566E-009
   6.5000000000000058E-003    -3.0910998205513351E-009
   7.6000000000000234E-003    -7.9147621789843470E-010
   8.7000000000000133E-003     2.3516077973795291E-009
   9.8000000000000032E-003     4.7626316224125276E-009
   1.0900000000000021E-002     5.5742632731892172E-009
   1.2000000000000011E-002     3.9509995275466281E-009
   1.3100000000000001E-002    -5.9416471742679278E-011
   1.4200000000000018E-002    -4.4517767250340512E-009
   1.5300000000000008E-002    -7.0617303116193852E-009
   1.6400000000000026E-002    -6.2660125976776726E-009
   1.7500000000000016E-002    -2.7648554556947147E-009
   1.8600000000000005E-002     1.0227597657674892E-009
   1.9700000000000023E-002     2.7733382257366657E-009
   2.0800000000000013E-002     2.5187085750388860E-009
   2.1900000000000003E-002     1.1182457182457028E-009
   2.3000000000000020E-002     7.3630129771018460E-010
   2.4100000000000010E-002     2.8369955273888081E-009
   2.5200000000000000E-002     2.6460234003877758E-009
   2.6300000000000018E-002    -1.6826796622737561E-009
   2.7400000000000008E-002    -7.7937896136859308E-009
   2.8500000000000025E-002    -8.8123082164770494E-009
   2.9600000000000015E-002    -1.1734204719004993E-009
   3.0700000000000005E-002     1.1303429303666235E-008
   3.1800000000000023E-002     2.5053427776811077E-008
   3.2900000000000013E-002     2.9382128730048862E-008
   3.4000000000000002E-002     1.9451572796924665E-008
   3.5100000000000020E-002    -1.1734240246141781E-009
   3.6200000000000010E-002    -2.9182679384121002E-008
   3.7300000000000028E-002    -5.6937306425197676E-008
   3.8400000000000017E-002    -7.4761381085863832E-008
   3.9500000000000007E-002    -5.7446570167485334E-008
   4.0600000000000025E-002     1.1812680611456017E-008
   4.1700000000000015E-002     1.0398859728866228E-007
   4.2800000000000005E-002     1.3454415181968216E-007
   4.3900000000000022E-002     5.6118238944691257E-008
   4.5000000000000012E-002    -6.8650258810976084E-008
   4.6100000000000002E-002    -1.5318728685542737E-007
   4.7200000000000020E-002    -1.7457617218497035E-007
   4.8300000000000010E-002    -1.3689098921076948E-007
   4.9400000000000027E-002    -6.5594704778959567E-008
   5.0500000000000017E-002     1.6905282507195807E-008
   5.1600000000000007E-002     7.5979350810939650E-008
   5.2700000000000025E-002     5.5608985860544635E-008
   5.3800000000000014E-002    -1.7724339329561190E-008
   5.4900000000000004E-002    -6.4576184399811609E-008
   5.6000000000000022E-002    -1.7724339329561190E-008
   5.7100000000000012E-002     6.7831201988610701E-008
   5.8200000000000002E-002     7.3942317158071091E-008
   5.9300000000000019E-002     5.7646026618840551E-008
   6.0400000000000009E-002     5.1534915002093840E-008
   6.1500000000000027E-002     2.5053436658595274E-008
   6.2600000000000017E-002     6.7831209094038059E-008
   6.3700000000000007E-002     1.8801637224896695E-007
   6.4800000000000024E-002     2.5523857516418502E-007
   6.5900000000000014E-002     1.4931266889561812E-007
   6.7000000000000004E-002    -8.4946549350206624E-008
   6.8100000000000022E-002    -2.8865022727586620E-007
   6.9200000000000012E-002    -3.5383541785449779E-007
   7.0300000000000029E-002    -2.0513174092684494E-007
   7.1400000000000019E-002     1.2690524897607247E-007
   7.2500000000000009E-002     5.0172002374893054E-007
   7.3600000000000027E-002     6.3616448642278556E-007
   7.4700000000000016E-002     3.9986827005122905E-007
   7.5800000000000006E-002    -1.3587238356649323E-007
   7.6900000000000024E-002    -6.6346490257274127E-007
   7.8000000000000014E-002    -9.6902044788294006E-007
   7.9100000000000004E-002    -1.0179093123952043E-006
   8.0200000000000021E-002    -7.2661305239307694E-007
   8.1300000000000011E-002    -2.6827979127119761E-007
   8.2400000000000029E-002     2.3079422817318118E-007
   8.3500000000000019E-002     6.2394229871642892E-007
   8.4600000000000009E-002     6.8607192815761664E-007
   8.5700000000000026E-002     3.9579421695634665E-007
   8.6800000000000016E-002    -7.2724247957012267E-008
   8.7900000000000006E-002    -3.8286310655166744E-007
   8.9000000000000024E-002    -3.0952978136156162E-007
   9.0100000000000013E-002     6.3629897795181023E-008
   9.1200000000000003E-002     3.5734512948693009E-007
   9.2300000000000021E-002     1.8979885396674945E-007
   9.3400000000000011E-002    -3.1946032663654478E-007
   9.4500000000000028E-002    -6.3825660845395760E-007
   9.5600000000000018E-002    -3.1436775316251442E-007
   9.6700000000000008E-002     5.6155806760216365E-007
   9.7800000000000026E-002     1.3498913631337928E-006
   9.8900000000000016E-002     1.3132247431713040E-006
  0.10000000000000001          4.6581743617934990E-007
  0.10110000000000002         -5.7307130418848828E-007
  0.10220000000000001         -1.1393675549697946E-006
  0.10330000000000003         -1.0497379889784497E-006
  0.10440000000000002         -4.7936771352397045E-007
  0.10550000000000001          4.2507659259172215E-007
  0.10660000000000003          1.1502617098813062E-006
  0.10770000000000002          1.4191505215421785E-006
  0.10880000000000001          1.0687801932363072E-006
  0.10990000000000003         -8.0108463862416102E-008
  0.11100000000000002         -1.7830711840360891E-006
  0.11210000000000001         -3.2578859645582270E-006
  0.11320000000000002         -3.3638120839896146E-006
  0.11430000000000001         -1.3267754184198566E-006
  0.11540000000000003          1.5739649370516418E-006
  0.11650000000000002          3.3013720894814469E-006
  0.11760000000000001          3.7087793316459283E-006
  0.11870000000000003          2.7635942387860268E-006
  0.11980000000000002          9.2211303126532584E-007
  0.12090000000000001         -7.5640525665221503E-007
  0.12200000000000003         -1.5712199683548533E-006
  0.12310000000000001         -1.0986275356117403E-006
  0.12420000000000003         -3.6529434055410093E-007
  0.12530000000000002         -4.3047953113273252E-007
  0.12640000000000001         -9.0307207756268326E-007
  0.12750000000000003         -1.4734423530171625E-006
  0.12860000000000002         -1.1312201877444750E-006
  0.12970000000000001          5.1470556172716897E-007
  0.13080000000000003          1.8835942228179192E-006
  0.13190000000000002          1.9324829736433458E-006
  0.13300000000000001          6.1248306337802205E-007
  0.13410000000000000         -1.3104796607876779E-006
  0.13520000000000004         -2.5164054022752680E-006
  0.13630000000000003         -2.8423312414815882E-006
  0.13740000000000002         -2.1089979327371111E-006
  0.13850000000000001         -6.3418326590181096E-007
  0.13960000000000000          9.0581653466870193E-007
  0.14070000000000005          2.4702608243387658E-006
  0.14180000000000004          3.2198902317759348E-006
  0.14290000000000003          3.1221125027514063E-006
  0.14400000000000002          1.7450757923143101E-006
  0.14510000000000001         -2.5733135089467396E-007
  0.14620000000000000         -1.0721461194407311E-006
  0.14730000000000004          1.5211287518468453E-007
  0.14840000000000003          1.1176682619407075E-006
  0.14950000000000002         -7.6455364705907414E-007
  0.15060000000000001         -4.3497384467627853E-006
  0.15170000000000000         -5.9467756727826782E-006
  0.15280000000000005         -2.5245540200558025E-006
  0.15390000000000004          3.6191488561598817E-006
  0.15500000000000003          7.5465554800757673E-006
  0.15610000000000002          6.4547039073659107E-006
  0.15720000000000001          1.4028526038600830E-006
  0.15830000000000000         -3.4860356663557468E-006
  0.15940000000000004         -4.7245539462892339E-006
  0.16050000000000003         -2.2149245069158496E-006
  0.16160000000000002          5.2285292895248858E-007
  0.16270000000000001          3.5988995250590960E-007
  0.16380000000000000         -1.4978876379245776E-006
  0.16490000000000005         -2.3127024633140536E-006
  0.16600000000000004         -3.8973973914835369E-007
  0.16710000000000003          3.7495190099434694E-006
  0.16820000000000002          6.0635929912677966E-006
  0.16930000000000001          3.3584083212190308E-006
  0.17040000000000000         -2.1171463231439702E-006
  0.17150000000000004         -5.5393679758708458E-006
  0.17260000000000003         -4.3660347728291526E-006
  0.17370000000000002         -5.8529462876322214E-007
  0.17480000000000001          1.4354458244270063E-006
  0.17590000000000000          3.3964511203521397E-008
  0.17700000000000005         -1.6608501027803868E-006
  0.17810000000000004         -2.9196155537647428E-007
  0.17920000000000003          5.1021115723415278E-006
  0.18030000000000002          8.3613704191520810E-006
  0.18140000000000001          3.7984082155162469E-006
  0.18250000000000000         -5.9793678701680619E-006
  0.18360000000000004         -1.3475662854034454E-005
  0.18470000000000003         -1.0949737770715728E-005
  0.18580000000000002          5.9426838561194018E-008
  0.18690000000000001          1.0172295333177317E-005
  0.18800000000000000          1.0950443538604304E-005
  0.18910000000000005          3.0508149393426720E-006
  0.19020000000000004         -4.0625172914587893E-006
  0.19130000000000003         -1.0802955330291297E-006
  0.19240000000000002          8.4041475929552689E-006
  0.19350000000000001          1.1956739399465732E-005
  0.19460000000000005          3.7597033042402472E-006
  0.19570000000000004         -1.0564738659013528E-005
  0.19680000000000003         -1.7767699318937957E-005
  0.19790000000000002         -1.0010663572757039E-005
  0.19900000000000001          6.2530380091629922E-006
  0.20010000000000000          1.5818963220226578E-005
  0.20120000000000005          9.4797051133355126E-006
  0.20230000000000004         -6.8328854467836209E-006
  0.20340000000000003         -1.6626958313281648E-005
  0.20450000000000002         -9.2936261353315786E-006
  0.20560000000000000          8.4041485024499707E-006
  0.20670000000000005          1.9078221157542430E-005
  0.20780000000000004          1.1402667041693348E-005
  0.20890000000000003         -8.2669603216345422E-006
