 -0.12000000000000000          0.0000000000000000     
 -0.11889999999999999          0.0000000000000000     
 -0.11780000000000000          0.0000000000000000     
 -0.11670000000000000          8.4690665826201439E-003
 -0.11559999999999999         -4.7149300575256348E-002
 -0.11449999999999999        -0.32890778779983521     
 -0.11340000000000000        -0.71728235483169556     
 -0.11230000000000000        -0.45016601681709290     
 -0.11119999999999999          1.2130278348922729     
 -0.11009999999999999          3.3209035396575928     
 -0.10900000000000000          2.7264175415039062     
 -0.10790000000000000         -3.0254945755004883     
 -0.10679999999999999         -11.079010009765625     
 -0.10569999999999999         -12.743437767028809     
 -0.10460000000000000        -0.88852095603942871     
 -0.10349999999999999          19.810871124267578     
 -0.10239999999999999          31.629596710205078     
 -0.10130000000000000          17.681776046752930     
 -0.10020000000000000         -19.096384048461914     
  -9.9099999999999994E-002    -51.969558715820312     
  -9.7999999999999990E-002    -50.769229888916016     
  -9.6899999999999986E-002    -10.877975463867188     
  -9.5799999999999996E-002     38.370101928710938     
  -9.4699999999999993E-002     58.294086456298828     
  -9.3599999999999989E-002     36.795341491699219     
  -9.2499999999999999E-002    -1.3913526535034180     
  -9.1399999999999995E-002    -22.717863082885742     
  -9.0299999999999991E-002    -21.626796722412109     
  -8.9200000000000002E-002    -23.586488723754883     
  -8.8099999999999984E-002    -47.718868255615234     
  -8.6999999999999994E-002    -71.918373107910156     
  -8.5899999999999990E-002    -48.488525390625000     
  -8.4799999999999986E-002     35.840072631835938     
  -8.3699999999999997E-002     120.79930877685547     
  -8.2599999999999993E-002     112.37527465820312     
  -8.1499999999999989E-002    -20.624509811401367     
  -8.0399999999999999E-002    -189.26399230957031     
  -7.9299999999999995E-002    -242.11892700195312     
  -7.8199999999999992E-002    -102.55854034423828     
  -7.7100000000000002E-002     143.66766357421875     
  -7.5999999999999984E-002     309.74758911132812     
  -7.4899999999999994E-002     276.33508300781250     
  -7.3799999999999991E-002     110.36342620849609     
  -7.2699999999999987E-002     13.261358261108398     
  -7.1599999999999997E-002     141.62986755371094     
  -7.0499999999999993E-002     472.99493408203125     
  -6.9399999999999989E-002     846.28607177734375     
  -6.8300000000000000E-002     1128.5412597656250     
  -6.7199999999999996E-002     1330.6623535156250     
  -6.6099999999999992E-002     1555.7758789062500     
  -6.5000000000000002E-002     1852.9700927734375     
  -6.3899999999999985E-002     2159.3981933593750     
  -6.2799999999999995E-002     2414.4511718750000     
  -6.1699999999999991E-002     2720.4267578125000     
  -6.0599999999999994E-002     3341.3884277343750     
  -5.9499999999999990E-002     4490.6191406250000     
  -5.8399999999999994E-002     6104.9619140625000     
  -5.7299999999999990E-002     7864.8344726562500     
  -5.6199999999999986E-002     9492.6787109375000     
  -5.5099999999999996E-002     11061.734375000000     
  -5.3999999999999992E-002     12995.923828125000     
  -5.2899999999999989E-002     15729.130859375000     
  -5.1799999999999985E-002     19345.718750000000     
  -5.0699999999999995E-002     23571.095703125000     
  -4.9599999999999991E-002     28143.388671875000     
  -4.8499999999999988E-002     33201.144531250000     
  -4.7399999999999998E-002     39284.304687500000     
  -4.6299999999999994E-002     46929.097656250000     
  -4.5199999999999990E-002     56261.402343750000     
  -4.4099999999999986E-002     67013.984375000000     
  -4.2999999999999997E-002     78963.750000000000     
  -4.1899999999999993E-002     92345.937500000000     
  -4.0799999999999989E-002     107813.59375000000     
  -3.9699999999999985E-002     125985.74218750000     
  -3.8599999999999995E-002     147062.23437500000     
  -3.7499999999999992E-002     170927.00000000000     
  -3.6399999999999988E-002     197634.59375000000     
  -3.5299999999999984E-002     227745.57812500000     
  -3.4199999999999994E-002     262115.07812500000     
  -3.3099999999999991E-002     301323.09375000000     
  -3.1999999999999987E-002     345355.78125000000     
  -3.0899999999999997E-002     393924.40625000000     
  -2.9799999999999993E-002     447129.31250000000     
  -2.8699999999999989E-002     505788.28125000000     
  -2.7599999999999986E-002     571025.50000000000     
  -2.6499999999999996E-002     643495.12500000000     
  -2.5399999999999992E-002     723019.50000000000     
  -2.4299999999999988E-002     809029.37500000000     
  -2.3199999999999985E-002     901387.87500000000     
  -2.2099999999999995E-002     1000725.0625000000     
  -2.0999999999999991E-002     1107928.1250000000     
  -1.9899999999999987E-002     1223255.8750000000     
  -1.8799999999999983E-002     1345991.0000000000     
  -1.7699999999999994E-002     1474999.1250000000     
  -1.6599999999999990E-002     1609593.8750000000     
  -1.5499999999999986E-002     1749818.0000000000     
  -1.4399999999999996E-002     1895805.2500000000     
  -1.3299999999999992E-002     2046859.3750000000     
  -1.2199999999999989E-002     2201220.7500000000     
  -1.1099999999999985E-002     2356765.5000000000     
  -9.9999999999999950E-003     2511910.2500000000     
  -8.8999999999999913E-003     2665768.0000000000     
  -7.7999999999999875E-003     2817333.0000000000     
  -6.6999999999999837E-003     2964536.7500000000     
  -5.5999999999999939E-003     3104201.7500000000     
  -4.4999999999999901E-003     3232998.7500000000     
  -3.3999999999999864E-003     3348389.2500000000     
  -2.2999999999999826E-003     3448664.5000000000     
  -1.1999999999999927E-003     3531965.7500000000     
  -9.9999999999988987E-005     3595288.2500000000     
   1.0000000000000148E-003     3634662.7500000000     
   2.1000000000000185E-003     3646282.7500000000     
   3.2000000000000084E-003     3627517.0000000000     
   4.3000000000000121E-003     3576806.7500000000     
   5.4000000000000159E-003     3492522.5000000000     
   6.5000000000000058E-003     3372026.0000000000     
   7.6000000000000234E-003     3212097.0000000000     
   8.7000000000000133E-003     3010222.5000000000     
   9.8000000000000032E-003     2765531.0000000000     
   1.0900000000000021E-002     2478470.2500000000     
   1.2000000000000011E-002     2149537.2500000000     
   1.3100000000000001E-002     1778482.6250000000     
   1.4200000000000018E-002     1364832.1250000000     
   1.5300000000000008E-002     909245.25000000000     
   1.6400000000000026E-002     414453.75000000000     
   1.7500000000000016E-002    -115444.17187500000     
   1.8600000000000005E-002    -676269.93750000000     
   1.9700000000000023E-002    -1264614.5000000000     
   2.0800000000000013E-002    -1877246.3750000000     
   2.1900000000000003E-002    -2509577.2500000000     
   2.3000000000000020E-002    -3155104.7500000000     
   2.4100000000000010E-002    -3806127.2500000000     
   2.5200000000000000E-002    -4455430.0000000000     
   2.6300000000000018E-002    -5096889.0000000000     
   2.7400000000000008E-002    -5724645.5000000000     
   2.8500000000000025E-002    -6331839.0000000000     
   2.9600000000000015E-002    -6910216.5000000000     
   3.0700000000000005E-002    -7451231.5000000000     
   3.1800000000000023E-002    -7947627.5000000000     
   3.2900000000000013E-002    -8393824.0000000000     
   3.4000000000000002E-002    -8784911.0000000000     
   3.5100000000000020E-002    -9115390.0000000000     
   3.6200000000000010E-002    -9379119.0000000000     
   3.7300000000000028E-002    -9570654.0000000000     
   3.8400000000000017E-002    -9686669.0000000000     
   3.9500000000000007E-002    -9725989.0000000000     
   4.0600000000000025E-002    -9688225.0000000000     
   4.1700000000000015E-002    -9572624.0000000000     
   4.2800000000000005E-002    -9378245.0000000000     
   4.3900000000000022E-002    -9105388.0000000000     
   4.5000000000000012E-002    -8756911.0000000000     
   4.6100000000000002E-002    -8337740.0000000000     
   4.7200000000000020E-002    -7853339.0000000000     
   4.8300000000000010E-002    -7308398.5000000000     
   4.9400000000000027E-002    -6707290.5000000000     
   5.0500000000000017E-002    -6055488.5000000000     
   5.1600000000000007E-002    -5360738.5000000000     
   5.2700000000000025E-002    -4632307.0000000000     
   5.3800000000000014E-002    -3879166.0000000000     
   5.4900000000000004E-002    -3108735.2500000000     
   5.6000000000000022E-002    -2327452.5000000000     
   5.7100000000000012E-002    -1542598.6250000000     
   5.8200000000000002E-002    -763014.18750000000     
   5.9300000000000019E-002     1805.2100830078125     
   6.0400000000000009E-002     743648.12500000000     
   6.1500000000000027E-002     1456558.6250000000     
   6.2600000000000017E-002     2136003.0000000000     
   6.3700000000000007E-002     2777018.0000000000     
   6.4800000000000024E-002     3373614.7500000000     
   6.5900000000000014E-002     3919794.2500000000     
   6.7000000000000004E-002     4411417.5000000000     
   6.8100000000000022E-002     4846934.0000000000     
   6.9200000000000012E-002     5226124.5000000000     
   7.0300000000000029E-002     5548293.5000000000     
   7.1400000000000019E-002     5811797.0000000000     
   7.2500000000000009E-002     6015406.0000000000     
   7.3600000000000027E-002     6159834.0000000000     
   7.4700000000000016E-002     6247930.0000000000     
   7.5800000000000006E-002     6283447.0000000000     
   7.6900000000000024E-002     6269170.0000000000     
   7.8000000000000014E-002     6206937.5000000000     
   7.9100000000000004E-002     6098814.5000000000     
   8.0200000000000021E-002     5948710.5000000000     
   8.1300000000000011E-002     5762050.0000000000     
   8.2400000000000029E-002     5544243.0000000000     
   8.3500000000000019E-002     5299432.5000000000     
   8.4600000000000009E-002     5030317.5000000000     
   8.5700000000000026E-002     4740058.0000000000     
   8.6800000000000016E-002     4433233.0000000000     
   8.7900000000000006E-002     4115550.2500000000     
   8.9000000000000024E-002     3791986.5000000000     
   9.0100000000000013E-002     3465495.2500000000     
   9.1200000000000003E-002     3137920.7500000000     
   9.2300000000000021E-002     2811483.2500000000     
   9.3400000000000011E-002     2489881.7500000000     
   9.4500000000000028E-002     2177458.0000000000     
   9.5600000000000018E-002     1877533.6250000000     
   9.6700000000000008E-002     1591053.6250000000     
   9.7800000000000026E-002     1317819.3750000000     
   9.8900000000000016E-002     1058486.5000000000     
  0.10000000000000001          815291.56250000000     
  0.10110000000000002          590922.75000000000     
  0.10220000000000001          386630.03125000000     
  0.10330000000000003          201625.03125000000     
  0.10440000000000002          34113.667968750000     
  0.10550000000000001         -116802.79687500000     
  0.10660000000000003         -250299.06250000000     
  0.10770000000000002         -365027.59375000000     
  0.10880000000000001         -461053.62500000000     
  0.10990000000000003         -540366.87500000000     
  0.11100000000000002         -605610.25000000000     
  0.11210000000000001         -658256.12500000000     
  0.11320000000000002         -698147.87500000000     
  0.11430000000000001         -724775.31250000000     
  0.11540000000000003         -738954.06250000000     
  0.11650000000000002         -743096.12500000000     
  0.11760000000000001         -739818.12500000000     
  0.11870000000000003         -730500.00000000000     
  0.11980000000000002         -714988.18750000000     
  0.12090000000000001         -692996.68750000000     
  0.12200000000000003         -665490.62500000000     
  0.12310000000000001         -634673.00000000000     
  0.12420000000000003         -602583.31250000000     
  0.12530000000000002         -569862.81250000000     
  0.12640000000000001         -535934.62500000000     
  0.12750000000000003         -500437.43750000000     
  0.12860000000000002         -464273.65625000000     
  0.12970000000000001         -429259.40625000000     
  0.13080000000000003         -396658.87500000000     
  0.13190000000000002         -366246.40625000000     
  0.13300000000000001         -336906.15625000000     
  0.13410000000000000         -308089.53125000000     
  0.13520000000000004         -280651.62500000000     
  0.13630000000000003         -256116.15625000000     
  0.13740000000000002         -235104.46875000000     
  0.13850000000000001         -216680.93750000000     
  0.13960000000000000         -199284.43750000000     
  0.14070000000000005         -182273.46875000000     
  0.14180000000000004         -166537.09375000000     
  0.14290000000000003         -153485.87500000000     
  0.14400000000000002         -143467.10937500000     
  0.14510000000000001         -135297.42187500000     
  0.14620000000000000         -127314.29687500000     
  0.14730000000000004         -118973.96875000000     
  0.14840000000000003         -111239.37500000000     
  0.14950000000000002         -105415.97656250000     
  0.15060000000000001         -101687.78125000000     
  0.15170000000000000         -98802.656250000000     
  0.15280000000000005         -95228.726562500000     
  0.15390000000000004         -90664.968750000000     
  0.15500000000000003         -86197.804687500000     
  0.15610000000000002         -83082.632812500000     
  0.15720000000000001         -81428.671875000000     
  0.15830000000000000         -80031.562500000000     
  0.15940000000000004         -77642.984375000000     
  0.16050000000000003         -74176.320312500000     
  0.16160000000000002         -70740.773437500000     
  0.16270000000000001         -68427.367187500000     
  0.16380000000000000         -67179.257812500000     
  0.16490000000000005         -65880.703125000000     
  0.16600000000000004         -63527.207031250000     
  0.16710000000000003         -60251.980468750000     
  0.16820000000000002         -57135.628906250000     
  0.16930000000000001         -55067.125000000000     
  0.17040000000000000         -53827.175781250000     
  0.17150000000000004         -52378.593750000000     
  0.17260000000000003         -49973.007812500000     
  0.17370000000000002         -46929.761718750000     
  0.17480000000000001         -44263.179687500000     
  0.17590000000000000         -42606.289062500000     
  0.17700000000000005         -41565.281250000000     
  0.17810000000000004         -40180.058593750000     
  0.17920000000000003         -37950.843750000000     
  0.18030000000000002         -35356.625000000000     
  0.18140000000000001         -33327.414062500000     
  0.18250000000000000         -32246.636718750000     
  0.18360000000000004         -31555.328125000000     
  0.18470000000000003         -30366.599609375000     
  0.18580000000000002         -28397.765625000000     
  0.18690000000000001         -26286.320312500000     
  0.18800000000000000         -24909.648437500000     
  0.18910000000000005         -24484.630859375000     
  0.19020000000000004         -24340.619140625000     
  0.19130000000000003         -23618.734375000000     
  0.19240000000000002         -22145.917968750000     
  0.19350000000000001         -20582.005859375000     
  0.19460000000000005         -19712.757812500000     
  0.19570000000000004         -19641.634765625000     
  0.19680000000000003         -19699.433593750000     
  0.19790000000000002         -19145.769531250000     
  0.19900000000000001         -17920.218750000000     
  0.20010000000000000         -16675.294921875000     
  0.20120000000000005         -16077.490234375000     
  0.20230000000000004         -16129.601562500000     
  0.20340000000000003         -16189.459960937500     
  0.20450000000000002         -15642.330078125000     
  0.20560000000000000         -14525.232421875000     
  0.20670000000000005         -13457.707031250000     
  0.20780000000000004         -12991.812500000000     
  0.20890000000000003         -13053.273437500000     
