 -0.12000000000000000          0.0000000000000000
 -0.11889999999999999          0.0000000000000000
 -0.11780000000000000          0.0000000000000000
 -0.11670000000000000          0.0000000000000000
 -0.11559999999999999          0.0000000000000000
 -0.11449999999999999          2.0868520833135874E-021
 -0.11340000000000000          3.9128474290210356E-021
 -0.11230000000000000         -8.8691218084666277E-021
 -0.11119999999999999          3.6780766882929372E-020
 -0.11009999999999999          6.5735842946784507E-020
 -0.10900000000000000          2.7911649113430579E-020
 -0.10790000000000000          5.6866721946111446E-020
 -0.10679999999999999          3.8632850123829743E-019
 -0.10569999999999999         -3.5267799258842185E-019
 -0.10460000000000000         -8.2456734220281952E-019
 -0.10349999999999999          1.3747141040711453E-018
 -0.10239999999999999          7.0465167190452777E-018
 -0.10130000000000000          7.3759777939414733E-018
 -0.10020000000000000         -8.4230726441478489E-019
  -9.9099999999999994E-002    -9.0605923227710431E-018
  -9.7999999999999990E-002    -1.6210409011073168E-017
  -9.6899999999999986E-002    -1.0538606085906306E-017
  -9.5799999999999996E-002     3.6809425589227037E-018
  -9.4699999999999993E-002     5.2091480699845204E-017
  -9.3599999999999989E-002     7.4858780027420036E-017
  -9.2499999999999999E-002     6.3435091513262603E-017
  -9.1399999999999995E-002     5.2011406307827621E-017
  -9.0299999999999991E-002    -1.0698757351483310E-017
  -8.9200000000000002E-002    -1.3324313980765835E-016
  -8.8099999999999984E-002    -1.1902358744051659E-016
  -8.6999999999999994E-002     6.6150897517841604E-017
  -8.5899999999999990E-002     3.3680285208053046E-016
  -8.4799999999999986E-002     3.0828367626295180E-016
  -8.3699999999999997E-002     7.4618599864759139E-017
  -8.2599999999999993E-002    -2.6161944005863031E-016
  -8.1499999999999989E-002    -5.6366649214028750E-016
  -8.0399999999999999E-002    -6.6056764364133070E-016
  -7.9299999999999995E-002    -4.1555896966461044E-016
  -7.8199999999999992E-002     1.3716859488770020E-016
  -7.7100000000000002E-002     1.2711429792192390E-015
  -7.5999999999999984E-002     1.7212976861254712E-015
  -7.4899999999999994E-002     1.3508686848301291E-015
  -7.3799999999999991E-002     6.5562525933366106E-016
  -7.2699999999999987E-002     3.0229165931495647E-016
  -7.1599999999999997E-002     1.2482154914029596E-015
  -7.0499999999999993E-002     2.6044312834708682E-015
  -6.9399999999999989E-002     1.4647052542598972E-015
  -6.8300000000000000E-002    -5.8977802974485502E-015
  -6.7199999999999996E-002    -1.6542600893721532E-014
  -6.6099999999999992E-002    -1.9528641060479433E-014
  -6.5000000000000002E-002    -2.9574375581950182E-015
  -6.3899999999999985E-002     2.6418290162899191E-014
  -6.2799999999999995E-002     4.3074972842088721E-014
  -6.1699999999999991E-002     2.1164226106243703E-014
  -6.0599999999999994E-002    -3.2065465598507190E-014
  -5.9499999999999990E-002    -7.2986403162542124E-014
  -5.8399999999999994E-002    -3.7319536431426256E-014
  -5.7299999999999990E-002     4.5394128722880261E-014
  -5.6199999999999986E-002     7.6684549010254399E-014
  -5.5099999999999996E-002     3.4669498988251085E-014
  -5.3999999999999992E-002     4.1068880338602370E-014
  -5.2899999999999989E-002     1.3335599985397906E-013
  -5.1799999999999985E-002     1.8078455941462901E-013
  -5.0699999999999995E-002     6.1908167665620378E-014
  -4.9599999999999991E-002    -1.4777949372025978E-013
  -4.8499999999999988E-002    -2.6009121072145813E-013
  -4.7399999999999998E-002    -2.0390977860211545E-013
  -4.6299999999999994E-002    -1.5210476920959198E-013
  -4.5199999999999990E-002    -1.8564045699970277E-013
  -4.4099999999999986E-002    -1.6665880101743996E-013
  -4.2999999999999997E-002     5.7443649446528577E-013
  -4.1899999999999993E-002     1.4030607188228461E-012
  -4.0799999999999989E-002     1.1463263064476203E-012
  -3.9699999999999985E-002     1.2809021963759715E-013
  -3.8599999999999995E-002    -8.3762852340005245E-013
  -3.7499999999999992E-002    -1.9696523058387871E-012
  -3.6399999999999988E-002    -1.7887423313378559E-012
  -3.5299999999999984E-002    -1.5203034144095628E-012
  -3.4199999999999994E-002    -2.7573620470233706E-012
  -3.3099999999999991E-002    -3.2941891402182844E-012
  -3.1999999999999987E-002    -1.9754029141616503E-012
  -3.0899999999999997E-002     4.4550717281932606E-012
  -2.9799999999999993E-002     1.5962224597654284E-011
  -2.8699999999999989E-002     2.3968219770020838E-011
  -2.7599999999999986E-002     1.8319703393165909E-011
  -2.6499999999999996E-002    -7.7325472414013774E-013
  -2.5399999999999992E-002    -2.0986583998405806E-011
  -2.4299999999999988E-002    -3.0136254602908252E-011
  -2.3199999999999985E-002    -2.7381994241459928E-011
  -2.2099999999999995E-002    -1.7905512142424307E-011
  -2.0999999999999991E-002    -4.2276412405561903E-012
  -1.9899999999999987E-002     8.8900458175555919E-012
  -1.8799999999999983E-002     2.9290136288606661E-011
  -1.7699999999999994E-002     5.7812914178168029E-011
  -1.6599999999999990E-002     3.8159767012935220E-011
  -1.5499999999999986E-002    -2.2386884013236852E-011
  -1.4399999999999996E-002    -7.5651131192788768E-011
  -1.3299999999999992E-002    -8.5781132197482179E-011
  -1.2199999999999989E-002    -2.3087070449845370E-011
  -1.1099999999999985E-002     5.7532926339698420E-011
  -9.9999999999999950E-003     1.0006033501763767E-010
  -8.8999999999999913E-003     4.0634055148425219E-011
  -7.7999999999999875E-003    -5.6884816301838725E-011
  -6.6999999999999837E-003    -8.0459250373365876E-011
  -5.5999999999999939E-003     5.0577406845997430E-011
  -4.4999999999999901E-003     2.5891960797608249E-010
  -3.3999999999999864E-003     2.9360444631088001E-010
  -2.2999999999999826E-003     8.4048559778615584E-011
  -1.1999999999999927E-003    -2.5995175456650088E-010
  -9.9999999999988987E-005    -4.0452616256736462E-010
   1.0000000000000148E-003    -2.1747101341951236E-010
   2.1000000000000185E-003     1.4884338206400116E-010
   3.2000000000000084E-003     3.9639855287099124E-010
   4.3000000000000121E-003     3.1008340339866436E-010
   5.4000000000000159E-003    -1.3750237060072834E-011
   6.5000000000000058E-003    -2.7484314824022249E-010
   7.6000000000000234E-003    -1.0571390984814855E-010
   8.7000000000000133E-003     4.9363746423836119E-010
   9.8000000000000032E-003     1.0078406997848788E-009
   1.0900000000000021E-002     1.0290810426027974E-009
   1.2000000000000011E-002     2.7502522481626102E-010
   1.3100000000000001E-002    -7.6584538710733341E-010
   1.4200000000000018E-002    -1.4795679126322625E-009
   1.5300000000000008E-002    -1.2745868804842075E-009
   1.6400000000000026E-002    -5.2286514007349183E-010
   1.7500000000000016E-002    -2.6587815282752558E-011
   1.8600000000000005E-002    -1.8791912470561556E-011
   1.9700000000000023E-002    -2.3955151751131609E-010
   2.0800000000000013E-002    -4.1101486103478635E-010
   2.1900000000000003E-002    -5.8247817680268099E-010
   2.3000000000000020E-002    -7.3601558181479732E-010
   2.4100000000000010E-002    -4.1227526947906767E-010
   2.5200000000000000E-002    -1.3895162798149840E-010
   2.6300000000000018E-002     1.1691494994359175E-011
   2.7400000000000008E-002     3.4915634272714158E-010
   2.8500000000000025E-002     4.8831572119212296E-010
   2.9600000000000015E-002     3.6978992090652696E-010
   3.0700000000000005E-002     6.7252337032641663E-010
   3.1800000000000023E-002     6.5707161933659108E-010
   3.2900000000000013E-002     5.8784210832385497E-010
   3.4000000000000002E-002     4.2002001876539907E-010
   3.5100000000000020E-002     5.4797566484410254E-010
   3.6200000000000010E-002    -4.0858708083568729E-010
   3.7300000000000028E-002    -1.4458164665498430E-009
   3.8400000000000017E-002    -9.4141650031076551E-010
   3.9500000000000007E-002     1.8395757139799684E-009
   4.0600000000000025E-002     5.1583457505444130E-009
   4.1700000000000015E-002     5.0532644735312715E-009
   4.2800000000000005E-002    -7.1075367813477897E-011
   4.3900000000000022E-002    -7.2927481831186469E-009
   4.5000000000000012E-002    -1.1520792320141027E-008
   4.6100000000000002E-002    -1.0138021977468270E-008
   4.7200000000000020E-002    -4.0048822036453657E-009
   4.8300000000000010E-002     2.0924060262217381E-009
   4.9400000000000027E-002     3.8157690340767658E-009
   5.0500000000000017E-002     1.4878731580125759E-009
   5.1600000000000007E-002    -3.7394881635677280E-010
   5.2700000000000025E-002     1.3852656799429042E-009
   5.3800000000000014E-002     5.2238871006693444E-009
   5.4900000000000004E-002     6.0509535160235828E-009
   5.6000000000000022E-002     1.1058727267254653E-009
   5.7100000000000012E-002    -6.4205405436723595E-009
   5.8200000000000002E-002    -1.0325917898512671E-008
   5.9300000000000019E-002    -6.2721849936053786E-009
   6.0400000000000009E-002     3.2848059827728093E-009
   6.1500000000000027E-002     1.1353945339465099E-008
   6.2600000000000017E-002     1.2772567004049051E-008
   6.3700000000000007E-002     8.8313374391191246E-009
   6.4800000000000024E-002     4.1013672458234396E-009
   6.5900000000000014E-002     2.4725819169901797E-009
   6.7000000000000004E-002     3.5237222029138593E-009
   6.8100000000000022E-002     3.0153075591954348E-009
   6.9200000000000012E-002    -3.6125513691587230E-010
   7.0300000000000029E-002    -5.0612549706841037E-009
   7.1400000000000019E-002    -7.3054038374209540E-009
   7.2500000000000009E-002    -3.3202940397103475E-009
   7.3600000000000027E-002     4.6533337183518597E-009
   7.4700000000000016E-002     1.0673035788499874E-008
   7.5800000000000006E-002     9.7554053724024925E-009
   7.6900000000000024E-002     3.4241462998352290E-009
   7.8000000000000014E-002    -4.3411869654619295E-009
   7.9100000000000004E-002    -7.6250392666565858E-009
   8.0200000000000021E-002    -5.5669673315605905E-009
   8.1300000000000011E-002    -1.4294875283482611E-009
   8.2400000000000029E-002    -3.3941438548623637E-010
   8.3500000000000019E-002    -2.4760078431995680E-009
   8.4600000000000009E-002    -3.6087495214331966E-009
   8.5700000000000026E-002    -4.4899195472680731E-011
   8.6800000000000016E-002     5.9568767696305258E-009
   8.7900000000000006E-002     9.6641352698156879E-009
   8.9000000000000024E-002     5.4122835102532463E-009
   9.0100000000000013E-002    -3.7512708495057723E-009
   9.1200000000000003E-002    -8.9711225115252091E-009
   9.2300000000000021E-002    -2.9334952245108070E-009
   9.3400000000000011E-002     9.0913907513368031E-009
   9.4500000000000028E-002     1.6455537377169094E-008
   9.5600000000000018E-002     1.0697907448786736E-008
   9.6700000000000008E-002    -3.7000167374401371E-009
   9.7800000000000026E-002    -1.5875125214392938E-008
   9.8900000000000016E-002    -1.8011718339039362E-008
  0.10000000000000001         -1.1364608809572019E-008
  0.10110000000000002         -3.6419440796464642E-009
  0.10220000000000001          1.3701750845029892E-010
  0.10330000000000003          4.0249836796846239E-010
  0.10440000000000002          2.4605713022651798E-009
  0.10550000000000001          9.6813099759174293E-009
  0.10660000000000003          1.9411677598668575E-008
  0.10770000000000002          2.2366046792399175E-008
  0.10880000000000001          1.3883676430737069E-008
  0.10990000000000003         -1.2850620567661508E-009
  0.11100000000000002         -1.1452467418848755E-008
  0.11210000000000001         -9.3002823220444952E-009
  0.11320000000000002          1.3683965072175397E-009
  0.11430000000000001          9.4042054143983478E-009
  0.11540000000000003          6.6889422889460093E-009
  0.11650000000000002         -4.4783945440940442E-009
  0.11760000000000001         -1.4525362246331497E-008
  0.11870000000000003         -1.5125367625046238E-008
  0.11980000000000002         -6.8520411566908024E-009
  0.12090000000000001          2.6402484643028856E-009
  0.12200000000000003          5.5537245913228617E-009
  0.12310000000000001          7.7868378411949379E-011
  0.12420000000000003         -8.7680618321428483E-009
  0.12530000000000002         -1.3616510585734432E-008
  0.12640000000000001         -1.1796517540574314E-008
  0.12750000000000003         -5.7997842084489548E-009
  0.12860000000000002         -1.0757907897840369E-009
  0.12970000000000001         -3.6720426699332620E-010
  0.13080000000000003         -1.5946175491166059E-009
  0.13190000000000002         -3.8410519209719496E-010
  0.13300000000000001          5.3078879069801133E-009
  0.13410000000000000          1.3115140085062649E-008
  0.13520000000000004          1.7857059830816979E-008
  0.13630000000000003          1.4478536591866487E-008
  0.13740000000000002          2.1729027466221851E-009
  0.13850000000000001         -1.4506656320634193E-008
  0.13960000000000000         -2.7081179965193769E-008
  0.14070000000000005         -2.7985926465134980E-008
  0.14180000000000004         -1.6485934395404911E-008
  0.14290000000000003          7.3242722997690635E-010
  0.14400000000000002          1.4293902061979225E-008
  0.14510000000000001          1.7870638302497355E-008
  0.14620000000000000          1.2502336943498449E-008
  0.14730000000000004          4.9112216515823093E-009
  0.14840000000000003          4.5714321217360521E-010
  0.14950000000000002         -3.0419500252065745E-010
  0.15060000000000001         -1.4688664728979006E-009
  0.15170000000000000         -6.4786487286028205E-009
  0.15280000000000005         -1.3720208080769680E-008
  0.15390000000000004         -1.8107062516037331E-008
  0.15500000000000003         -1.6201919805780562E-008
  0.15610000000000002         -8.8607405857032973E-009
  0.15720000000000001         -6.3670907435309232E-010
  0.15830000000000000          4.9410089353330022E-009
  0.15940000000000004          7.4511525838261150E-009
  0.16050000000000003          8.3860554056514047E-009
  0.16160000000000002          8.5142914940661285E-009
  0.16270000000000001          6.7517804680505833E-009
  0.16380000000000000          1.6712929928885956E-009
  0.16490000000000005         -5.2466013755747554E-009
  0.16600000000000004         -1.0137745753979743E-008
  0.16710000000000003         -1.0609030098862604E-008
  0.16820000000000002         -7.9141484476963342E-009
  0.16930000000000001         -5.8735625252381851E-009
  0.17040000000000000         -6.2171245929221186E-009
  0.17150000000000004         -6.4598530968851264E-009
  0.17260000000000003         -2.7566375848664393E-009
  0.17370000000000002          4.9843915661540450E-009
  0.17480000000000001          1.1096402907639913E-008
  0.17590000000000000          9.4352863300173340E-009
  0.17700000000000005         -3.7092151572437615E-010
  0.17810000000000004         -1.1037573521832655E-008
  0.17920000000000003         -1.3594986469911419E-008
  0.18030000000000002         -6.3222707069598982E-009
  0.18140000000000001          2.9312592353392120E-009
  0.18250000000000000          4.1786232252150057E-009
  0.18360000000000004         -5.0203445844942962E-009
  0.18470000000000003         -1.6318885798227711E-008
  0.18580000000000002         -1.8051705907851101E-008
  0.18690000000000001         -6.2549356805163825E-009
  0.18800000000000000          1.1058538973429677E-008
  0.18910000000000005          2.0675068768127858E-008
  0.19020000000000004          1.5919489726456959E-008
  0.19130000000000003          2.2905788377158842E-009
  0.19240000000000002         -8.1452764533196387E-009
  0.19350000000000001         -8.0933464374766118E-009
  0.19460000000000005         -1.6037695615978009E-009
  0.19570000000000004          1.3297527523548069E-009
  0.19680000000000003         -4.6548715992855705E-009
  0.19790000000000002         -1.4573116935423513E-008
  0.19900000000000001         -1.7781465189159462E-008
  0.20010000000000000         -8.5794731319310813E-009
  0.20120000000000005          7.8421846794185512E-009
  0.20230000000000004          1.9261390704627956E-008
  0.20340000000000003          1.6788007428658602E-008
  0.20450000000000002          2.2571988722575043E-009
  0.20560000000000000         -1.3504897644622815E-008
  0.20670000000000005         -1.9643014326220509E-008
  0.20780000000000004         -1.3315890612375370E-008
  0.20890000000000003         -7.8135675707358132E-010
