 -0.12000000000000000          0.0000000000000000     
 -0.11889999999999999          0.0000000000000000     
 -0.11780000000000000          0.0000000000000000     
 -0.11670000000000000          0.0000000000000000     
 -0.11559999999999999          0.0000000000000000     
 -0.11449999999999999          0.0000000000000000     
 -0.11340000000000000          0.0000000000000000     
 -0.11230000000000000          0.0000000000000000     
 -0.11119999999999999          0.0000000000000000     
 -0.11009999999999999          0.0000000000000000     
 -0.10900000000000000          4.0004473906981784E-020
 -0.10790000000000000         -5.5910414562529769E-019
 -0.10679999999999999         -2.4941017480800882E-018
 -0.10569999999999999          1.1002825635935353E-017
 -0.10460000000000000          7.0776862080152559E-017
 -0.10349999999999999         -1.0609354016517354E-017
 -0.10239999999999999         -8.8254353301851600E-016
 -0.10130000000000000         -1.7760644012752109E-015
 -0.10020000000000000          4.5976787440703444E-015
  -9.9099999999999994E-002     2.6708351513488743E-014
  -9.7999999999999990E-002     2.9956309514130725E-014
  -9.6899999999999986E-002    -1.1216793824059962E-013
  -9.5799999999999996E-002    -4.5885582659888069E-013
  -9.4699999999999993E-002    -4.4520547730179938E-013
  -9.3599999999999989E-002     1.3931694339830436E-012
  -9.2499999999999999E-002     5.3871048247278175E-012
  -9.1399999999999995E-002     5.6980227827740926E-012
  -9.0299999999999991E-002    -1.0842108461028843E-011
  -8.9200000000000002E-002    -4.7266187491734613E-011
  -8.8099999999999984E-002    -5.9465814217229962E-011
  -8.6999999999999994E-002     5.0481400309942970E-011
  -8.5899999999999990E-002     3.1997790528315306E-010
  -8.4799999999999986E-002     4.9291132286910511E-010
  -8.3699999999999997E-002    -4.4808105142957189E-011
  -8.2599999999999993E-002    -1.6674870373378781E-009
  -8.1499999999999989E-002    -3.2316873621596187E-009
  -8.0399999999999999E-002    -1.4882197696408639E-009
  -7.9299999999999995E-002     6.4009362255035285E-009
  -7.8199999999999992E-002     1.6762243149059941E-008
  -7.7100000000000002E-002     1.5214096649174280E-008
  -7.5999999999999984E-002    -1.5044040679867976E-008
  -7.4899999999999994E-002    -6.8103055639312515E-008
  -7.3799999999999991E-002    -9.1668930224386713E-008
  -7.2699999999999987E-002    -5.9756795067755775E-009
  -7.1599999999999997E-002     2.0810490752865007E-007
  -7.0499999999999993E-002     4.0058677086562966E-007
  -6.9399999999999989E-002     2.6373552941549860E-007
  -6.8300000000000000E-002    -4.1098840597442177E-007
  -6.7199999999999996E-002    -1.3222287407188560E-006
  -6.6099999999999992E-002    -1.5073802615006571E-006
  -6.5000000000000002E-002     6.4406187050281005E-008
  -6.3899999999999985E-002     3.1994650271371938E-006
  -6.2799999999999995E-002     5.5167392929433845E-006
  -6.1699999999999991E-002     3.3798828553699423E-006
  -6.0599999999999994E-002    -4.7404155338881537E-006
  -5.9499999999999990E-002    -1.4554549125023186E-005
  -5.8399999999999994E-002    -1.6158561265910976E-005
  -5.7299999999999990E-002    -1.0786648090288509E-006
  -5.6199999999999986E-002     2.6879226425080560E-005
  -5.5099999999999996E-002     4.6790039050392807E-005
  -5.3999999999999992E-002     3.1651241442887112E-005
  -5.2899999999999989E-002    -2.6249032089253888E-005
  -5.1799999999999985E-002    -9.4469731266144663E-005
  -5.0699999999999995E-002    -1.0988027497660369E-004
  -4.9599999999999991E-002    -2.6576773962005973E-005
  -4.8499999999999988E-002     1.2689242430496961E-004
  -4.7399999999999998E-002     2.3672579845879227E-004
  -4.6299999999999994E-002     1.7573089280631393E-004
  -4.5199999999999990E-002    -7.5020878284703940E-005
  -4.4099999999999986E-002    -3.5696965642273426E-004
  -4.2999999999999997E-002    -4.1408947436138988E-004
  -4.1899999999999993E-002    -1.0788790677906945E-004
  -4.0799999999999989E-002     3.9500961429439485E-004
  -3.9699999999999985E-002     6.6919357050210238E-004
  -3.8599999999999995E-002     3.6293626180849969E-004
  -3.7499999999999992E-002    -4.0840884321369231E-004
  -3.6399999999999988E-002    -9.9401990883052349E-004
  -3.5299999999999984E-002    -6.7409547045826912E-004
  -3.4199999999999994E-002     6.0020323144271970E-004
  -3.3099999999999991E-002     1.8520203884691000E-003
  -3.1999999999999987E-002     1.6468588728457689E-003
  -3.0899999999999997E-002    -6.0513935750350356E-004
  -2.9799999999999993E-002    -3.6311240401118994E-003
  -2.8699999999999989E-002    -4.7121131792664528E-003
  -2.7599999999999986E-002    -1.7183286836370826E-003
  -2.6499999999999996E-002     4.5678415335714817E-003
  -2.5399999999999992E-002     9.9502420052886009E-003
  -2.4299999999999988E-002     9.2812944203615189E-003
  -2.3199999999999985E-002     6.6498719388619065E-004
  -2.2099999999999995E-002    -1.1803009547293186E-002
  -2.0999999999999991E-002    -1.9604042172431946E-002
  -1.9899999999999987E-002    -1.5501625835895538E-002
  -1.8799999999999983E-002     4.2532398947514594E-004
  -1.7699999999999994E-002     1.9371366128325462E-002
  -1.6599999999999990E-002     2.9042514041066170E-002
  -1.5499999999999986E-002     2.2333063185214996E-002
  -1.4399999999999996E-002     2.8562815859913826E-003
  -1.3299999999999992E-002    -1.7474167048931122E-002
  -1.2199999999999989E-002    -2.7414618059992790E-002
  -1.1099999999999985E-002    -2.4722341448068619E-002
  -9.9999999999999950E-003    -1.6519064083695412E-002
  -8.8999999999999913E-003    -1.0863231495022774E-002
  -7.7999999999999875E-003    -6.9519802927970886E-003
  -6.6999999999999837E-003     5.9720673598349094E-003
  -5.5999999999999939E-003     3.7399951368570328E-002
  -4.4999999999999901E-003     7.9863183200359344E-002
  -3.3999999999999864E-003    0.10357764363288879     
  -2.2999999999999826E-003     7.1340791881084442E-002
  -1.1999999999999927E-003    -3.1628970056772232E-002
  -9.9999999999988987E-005   -0.17308349907398224     
   1.0000000000000148E-003   -0.27654325962066650     
   2.1000000000000185E-003   -0.25844526290893555     
   3.2000000000000084E-003    -8.2536026835441589E-002
   4.3000000000000121E-003    0.20198084414005280     
   5.4000000000000159E-003    0.46764686703681946     
   6.5000000000000058E-003    0.56545257568359375     
   7.6000000000000234E-003    0.40428501367568970     
   8.7000000000000133E-003     9.3952864408493042E-003
   9.8000000000000032E-003   -0.47494783997535706     
   1.0900000000000021E-002   -0.84320998191833496     
   1.2000000000000011E-002   -0.91817736625671387     
   1.3100000000000001E-002   -0.62807941436767578     
   1.4200000000000018E-002    -3.7296399474143982E-002
   1.5300000000000008E-002    0.67572993040084839     
   1.6400000000000026E-002     1.2747722864151001     
   1.7500000000000016E-002     1.5311152935028076     
   1.8600000000000005E-002     1.2842897176742554     
   1.9700000000000023E-002    0.49818840622901917     
   2.0800000000000013E-002   -0.68982797861099243     
   2.1900000000000003E-002    -1.9491325616836548     
   2.3000000000000020E-002    -2.8049948215484619     
   2.4100000000000010E-002    -2.7836327552795410     
   2.5200000000000000E-002    -1.6282190084457397     
   2.6300000000000018E-002    0.50439959764480591     
   2.7400000000000008E-002     2.9861874580383301     
   2.8500000000000025E-002     4.8768162727355957     
   2.9600000000000015E-002     5.2707271575927734     
   3.0700000000000005E-002     3.6945436000823975     
   3.1800000000000023E-002    0.37368869781494141     
   3.2900000000000013E-002    -3.7594017982482910     
   3.4000000000000002E-002    -7.3262081146240234     
   3.5100000000000020E-002    -8.9352207183837891     
   3.6200000000000010E-002    -7.6466326713562012     
   3.7300000000000028E-002    -3.3459103107452393     
   3.8400000000000017E-002     3.0643467903137207     
   3.9500000000000007E-002     9.7351455688476562     
   4.0600000000000025E-002     14.277971267700195     
   4.1700000000000015E-002     14.512935638427734     
   4.2800000000000005E-002     9.3986778259277344     
   4.3900000000000022E-002   -0.21623668074607849     
   4.5000000000000012E-002    -11.467380523681641     
   4.6100000000000002E-002    -20.254825592041016     
   4.7200000000000020E-002    -22.793338775634766     
   4.8300000000000010E-002    -17.321779251098633     
   4.9400000000000027E-002    -5.1293382644653320     
   5.0500000000000017E-002     9.7226676940917969     
   5.1600000000000007E-002     21.979415893554688     
   5.2700000000000025E-002     27.362064361572266     
   5.3800000000000014E-002     24.258316040039062     
   5.4900000000000004E-002     14.105202674865723     
   5.6000000000000022E-002    0.37262362241744995     
   5.7100000000000012E-002    -13.147516250610352     
   5.8200000000000002E-002    -23.696065902709961     
   5.9300000000000019E-002    -29.845775604248047     
   6.0400000000000009E-002    -30.875366210937500     
   6.1500000000000027E-002    -26.080661773681641     
   6.2600000000000017E-002    -14.950380325317383     
   6.3700000000000007E-002     1.6050302982330322     
   6.4800000000000024E-002     19.865510940551758     
   6.5900000000000014E-002     33.258033752441406     
   6.7000000000000004E-002     34.675785064697266     
   6.8100000000000022E-002     20.684944152832031     
   6.9200000000000012E-002    -4.4920992851257324     
   7.0300000000000029E-002    -27.931339263916016     
   7.1400000000000019E-002    -31.507139205932617     
   7.2500000000000009E-002    0.89594370126724243     
   7.3600000000000027E-002     75.715354919433594     
   7.4700000000000016E-002     185.70530700683594     
   7.5800000000000006E-002     312.24938964843750     
   7.6900000000000024E-002     433.49890136718750     
   7.8000000000000014E-002     534.70086669921875     
   7.9100000000000004E-002     615.78082275390625     
   8.0200000000000021E-002     692.54345703125000     
   8.1300000000000011E-002     791.15905761718750     
   8.2400000000000029E-002     938.98876953125000     
   8.3500000000000019E-002     1156.5125732421875     
   8.4600000000000009E-002     1454.2261962890625     
   8.5700000000000026E-002     1835.4671630859375     
   8.6800000000000016E-002     2302.9509277343750     
   8.7900000000000006E-002     2865.1203613281250     
   8.9000000000000024E-002     3538.9760742187500     
   9.0100000000000013E-002     4348.6206054687500     
   9.1200000000000003E-002     5321.4355468750000     
   9.2300000000000021E-002     6485.2929687500000     
   9.3400000000000011E-002     7869.3173828125000     
   9.4500000000000028E-002     9508.2392578125000     
   9.5600000000000018E-002     11447.876953125000     
   9.6700000000000008E-002     13748.317382812500     
   9.7800000000000026E-002     16482.671875000000     
   9.8900000000000016E-002     19731.890625000000     
  0.10000000000000001          23578.972656250000     
  0.10110000000000002          28106.105468750000     
  0.10220000000000001          33396.640625000000     
  0.10330000000000003          39541.988281250000     
  0.10440000000000002          46649.375000000000     
  0.10550000000000001          54847.449218750000     
  0.10660000000000003          64286.371093750000     
  0.10770000000000002          75133.234375000000     
  0.10880000000000001          87565.414062500000     
  0.10990000000000003          101765.51562500000     
  0.11100000000000002          117919.53906250000     
  0.11210000000000001          136217.84375000000     
  0.11320000000000002          156858.93750000000     
  0.11430000000000001          180050.53125000000     
  0.11540000000000003          206009.18750000000     
  0.11650000000000002          234955.25000000000     
  0.11760000000000001          267109.84375000000     
  0.11870000000000003          302688.40625000000     
  0.11980000000000002          341899.06250000000     
  0.12090000000000001          384938.78125000000     
  0.12200000000000003          431983.65625000000     
  0.12310000000000001          483180.96875000000     
  0.12420000000000003          538635.62500000000     
  0.12530000000000002          598392.31250000000     
  0.12640000000000001          662439.56250000000     
  0.12750000000000003          730701.93750000000     
  0.12860000000000002          803049.93750000000     
  0.12970000000000001          879296.62500000000     
  0.13080000000000003          959194.06250000000     
  0.13190000000000002          1042403.8125000000     
  0.13300000000000001          1128484.0000000000     
  0.13410000000000000          1216866.0000000000     
  0.13520000000000004          1306847.8750000000     
  0.13630000000000003          1397588.3750000000     
  0.13740000000000002          1488132.5000000000     
  0.13850000000000001          1577414.3750000000     
  0.13960000000000000          1664267.5000000000     
  0.14070000000000005          1747434.8750000000     
  0.14180000000000004          1825539.1250000000     
  0.14290000000000003          1897115.8750000000     
  0.14400000000000002          1960601.7500000000     
  0.14510000000000001          2014329.6250000000     
  0.14620000000000000          2056594.7500000000     
  0.14730000000000004          2085662.0000000000     
  0.14840000000000003          2099763.5000000000     
  0.14950000000000002          2097176.2500000000     
  0.15060000000000001          2076215.6250000000     
  0.15170000000000000          2035307.0000000000     
  0.15280000000000005          1972994.2500000000     
  0.15390000000000004          1887988.1250000000     
  0.15500000000000003          1779178.2500000000     
  0.15610000000000002          1645683.5000000000     
  0.15720000000000001          1486835.0000000000     
  0.15830000000000000          1302265.7500000000     
  0.15940000000000004          1091915.2500000000     
  0.16050000000000003          856075.00000000000     
  0.16160000000000002          595435.18750000000     
  0.16270000000000001          311087.06250000000     
  0.16380000000000000          4530.8784179687500     
  0.16490000000000005         -322323.40625000000     
  0.16600000000000004         -667201.56250000000     
  0.16710000000000003         -1027447.5625000000     
  0.16820000000000002         -1400090.6250000000     
  0.16930000000000001         -1781774.5000000000     
  0.17040000000000000         -2168819.0000000000     
  0.17150000000000004         -2557236.7500000000     
  0.17260000000000003         -2942792.2500000000     
  0.17370000000000002         -3321097.0000000000     
  0.17480000000000001         -3687671.0000000000     
  0.17590000000000000         -4038020.0000000000     
  0.17700000000000005         -4367709.0000000000     
  0.17810000000000004         -4672384.5000000000     
  0.17920000000000003         -4947852.5000000000     
  0.18030000000000002         -5190144.0000000000     
  0.18140000000000001         -5395594.0000000000     
  0.18250000000000000         -5560909.0000000000     
  0.18360000000000004         -5683258.0000000000     
  0.18470000000000003         -5760322.0000000000     
  0.18580000000000002         -5790347.0000000000     
  0.18690000000000001         -5772156.5000000000     
  0.18800000000000000         -5705190.0000000000     
  0.18910000000000005         -5589523.0000000000     
  0.19020000000000004         -5425854.5000000000     
  0.19130000000000003         -5215522.5000000000     
  0.19240000000000002         -4960511.5000000000     
  0.19350000000000001         -4663387.0000000000     
  0.19460000000000005         -4327289.0000000000     
  0.19570000000000004         -3955841.7500000000     
  0.19680000000000003         -3553146.0000000000     
  0.19790000000000002         -3123662.7500000000     
  0.19900000000000001         -2672186.0000000000     
  0.20010000000000000         -2203770.5000000000     
  0.20120000000000005         -1723641.3750000000     
  0.20230000000000004         -1237094.3750000000     
  0.20340000000000003         -749448.81250000000     
  0.20450000000000002         -265918.31250000000     
  0.20560000000000000          208476.85937500000     
  0.20670000000000005          668919.43750000000     
  0.20780000000000004          1110929.7500000000     
  0.20890000000000003          1530374.5000000000     
