 -0.12000000000000000          0.0000000000000000
 -0.11889999999999999          0.0000000000000000
 -0.11780000000000000          0.0000000000000000
 -0.11670000000000000          0.0000000000000000
 -0.11559999999999999          0.0000000000000000
 -0.11449999999999999          0.0000000000000000
 -0.11340000000000000          0.0000000000000000
 -0.11230000000000000          0.0000000000000000
 -0.11119999999999999          0.0000000000000000
 -0.11009999999999999          0.0000000000000000
 -0.10900000000000000          0.0000000000000000
 -0.10790000000000000         -1.0596765975939613E-029
 -0.10679999999999999          7.0510510083452750E-029
 -0.10569999999999999         -1.5500887601929500E-027
 -0.10460000000000000         -7.2408371524830486E-027
 -0.10349999999999999          1.6363434201636778E-026
 -0.10239999999999999          6.2000720061071728E-026
 -0.10130000000000000         -4.6571581900699606E-025
 -0.10020000000000000         -1.8360063092945086E-024
  -9.9099999999999994E-002     3.1535852618065728E-024
  -9.7999999999999990E-002     2.7033300811619705E-023
  -9.6899999999999986E-002     1.9830200841993973E-023
  -9.5799999999999996E-002    -2.0448093816492607E-022
  -9.4699999999999993E-002    -5.6661362040193261E-022
  -9.3599999999999989E-002     3.9249725114350957E-022
  -9.2499999999999999E-002     4.7051244932366634E-021
  -9.1399999999999995E-002     7.0423079659274711E-021
  -9.0299999999999991E-002    -1.3881198971413655E-020
  -8.9200000000000002E-002    -6.7972216205701115E-020
  -8.8099999999999984E-002    -6.4554144355918615E-020
  -8.6999999999999994E-002     2.1107586450700712E-019
  -8.5899999999999990E-002     7.3573103954676829E-019
  -8.4799999999999986E-002     5.2007393861471279E-019
  -8.3699999999999997E-002    -2.1622763841980629E-018
  -8.2599999999999993E-002    -6.4843089400628928E-018
  -8.1499999999999989E-002    -4.1984809304660000E-018
  -8.0399999999999999E-002     1.6731461659448896E-017
  -7.9299999999999995E-002     4.8448765879341332E-017
  -7.8199999999999992E-002     3.4401257153443245E-017
  -7.7100000000000002E-002    -1.0170728261821310E-016
  -7.5999999999999984E-002    -3.1206313727360048E-016
  -7.4899999999999994E-002    -2.6604291080698829E-016
  -7.3799999999999991E-002     4.8362187862475612E-016
  -7.2699999999999987E-002     1.7388862193960884E-015
  -7.1599999999999997E-002     1.8249782246385418E-015
  -7.0499999999999993E-002    -1.6742474411252182E-015
  -6.9399999999999989E-002    -8.3427705458512420E-015
  -6.8300000000000000E-002    -1.0807042652265231E-014
  -6.7199999999999996E-002     2.8158532482043834E-015
  -6.6099999999999992E-002     3.4013726080486806E-014
  -6.5000000000000002E-002     5.4800094177092154E-014
  -6.3899999999999985E-002     1.2639356182226995E-014
  -6.2799999999999995E-002    -1.1448056857956551E-013
  -6.1699999999999991E-002    -2.3718280486341448E-013
  -6.0599999999999994E-002    -1.4903250617100128E-013
  -5.9499999999999990E-002     2.9538356352901141E-013
  -5.8399999999999994E-002     8.7056729013157419E-013
  -5.7299999999999990E-002     8.6404266987777367E-013
  -5.6199999999999986E-002    -4.3295120093211903E-013
  -5.5099999999999996E-002    -2.6633615018284429E-012
  -5.3999999999999992E-002    -3.7032048434693099E-012
  -5.2899999999999989E-002    -7.4302592073874352E-013
  -5.1799999999999985E-002     6.4926657800112864E-012
  -5.0699999999999995E-002     1.2703010518477775E-011
  -4.9599999999999991E-002     8.5364952953637108E-012
  -4.8499999999999988E-002    -1.0914998939404175E-011
  -4.7399999999999998E-002    -3.5391176100851851E-011
  -4.6299999999999994E-002    -3.8571711796775432E-011
  -4.5199999999999990E-002     2.9888888673085257E-012
  -4.4099999999999986E-002     7.7961526123715430E-011
  -4.2999999999999997E-002     1.2449011266291166E-010
  -4.1899999999999993E-002     6.3405516947945273E-011
  -4.0799999999999989E-002    -1.2095763279873495E-010
  -3.9699999999999985E-002    -3.1261526700632203E-010
  -3.8599999999999995E-002    -2.9891564223838429E-010
  -3.7499999999999992E-002     5.6734568432137422E-011
  -3.6399999999999988E-002     6.0597915574334138E-010
  -3.5299999999999984E-002     8.8372831275052022E-010
  -3.4199999999999994E-002     4.0793851630027689E-010
  -3.3099999999999991E-002    -8.0692558190875729E-010
  -3.1999999999999987E-002    -1.9522110594749620E-009
  -3.0899999999999997E-002    -1.7982828559581776E-009
  -2.9799999999999993E-002     2.6448954137947567E-010
  -2.8699999999999989E-002     3.2385005788171384E-009
  -2.7599999999999986E-002     4.6517540930324230E-009
  -2.6499999999999996E-002     2.2759489848311887E-009
  -2.5399999999999992E-002    -3.5104130713392578E-009
  -2.4299999999999988E-002    -8.7943625715070084E-009
  -2.3199999999999985E-002    -8.2722930727641142E-009
  -2.2099999999999995E-002     2.2712712266503843E-010
  -2.0999999999999991E-002     1.2235184421172107E-008
  -1.9899999999999987E-002     1.8044040928089089E-008
  -1.8799999999999983E-002     9.7449932567883479E-009
  -1.7699999999999994E-002    -1.0579587872427965E-008
  -1.6599999999999990E-002    -2.8919069805510844E-008
  -1.5499999999999986E-002    -2.7911436717431570E-008
  -1.4399999999999996E-002    -1.7195058710228750E-009
  -1.3299999999999992E-002     3.4550900807062135E-008
  -1.2199999999999989E-002     5.1635208109246378E-008
  -1.1099999999999985E-002     2.8250607186919297E-008
  -9.9999999999999950E-003    -2.6945807363176755E-008
  -8.8999999999999913E-003    -7.3980160664177674E-008
  -7.7999999999999875E-003    -6.8441018186149449E-008
  -6.6999999999999837E-003    -4.6148407317758711E-010
  -5.5999999999999939E-003     8.6357395900904521E-008
  -4.4999999999999901E-003     1.1920153042410675E-007
  -3.3999999999999864E-003     5.3651447728952917E-008
  -2.2999999999999826E-003    -7.8373183498570143E-008
  -1.1999999999999927E-003    -1.7638178917422920E-007
  -9.9999999999988987E-005    -1.4283286020599917E-007
   1.0000000000000148E-003     2.8858757161742687E-008
   2.1000000000000185E-003     2.2414245393065357E-007
   3.2000000000000084E-003     2.7667471158565604E-007
   4.3000000000000121E-003     1.0106761294537137E-007
   5.4000000000000159E-003    -2.1179866394049895E-007
   6.5000000000000058E-003    -4.2914697928608803E-007
   7.6000000000000234E-003    -3.4139978311031882E-007
   8.7000000000000133E-003     5.3735679017563598E-008
   9.8000000000000032E-003     5.0123810524382861E-007
   1.0900000000000021E-002     6.4478945205337368E-007
   1.2000000000000011E-002     3.0129291417324566E-007
   1.3100000000000001E-002    -3.5177194490643160E-007
   1.4200000000000018E-002    -8.5012965200803592E-007
   1.5300000000000008E-002    -7.6754008659918327E-007
   1.6400000000000026E-002    -7.0576440691638709E-008
   1.7500000000000016E-002     7.8420356430797256E-007
   1.8600000000000005E-002     1.1378064073142014E-006
   1.9700000000000023E-002     6.3284335283242399E-007
   2.0800000000000013E-002    -4.4355650175020855E-007
   2.1900000000000003E-002    -1.2896886119051487E-006
   2.3000000000000020E-002    -1.1677093425532803E-006
   2.4100000000000010E-002    -2.9831568326699198E-008
   2.5200000000000000E-002     1.3203848538978491E-006
   2.6300000000000018E-002     1.7510041061541415E-006
   2.7400000000000008E-002     6.9892172405161546E-007
   2.8500000000000025E-002    -1.2386379921736079E-006
   2.9600000000000015E-002    -2.5725323666847544E-006
   3.0700000000000005E-002    -1.9945807707699714E-006
   3.1800000000000023E-002     4.7988146434363443E-007
   3.2900000000000013E-002     3.2353061669709859E-006
   3.4000000000000002E-002     4.0474142224411480E-006
   3.5100000000000020E-002     1.7802259435484302E-006
   3.6200000000000010E-002    -2.4591506644355832E-006
   3.7300000000000028E-002    -5.7499423746776301E-006
   3.8400000000000017E-002    -5.3243948059389368E-006
   3.9500000000000007E-002    -7.8051169793980080E-007
   4.0600000000000025E-002     5.1727170102822129E-006
   4.1700000000000015E-002     8.2755877883755602E-006
   4.2800000000000005E-002     5.7389261201024055E-006
   4.3900000000000022E-002    -1.3953701909485972E-006
   4.5000000000000012E-002    -8.4773282651440240E-006
   4.6100000000000002E-002    -1.0250099876429886E-005
   4.7200000000000020E-002    -4.7114540393522475E-006
   4.8300000000000010E-002     4.9839068196888547E-006
   4.9400000000000027E-002     1.2246976439200807E-005
   5.0500000000000017E-002     1.1513546269270591E-005
   5.1600000000000007E-002     2.4053410925262142E-006
   5.2700000000000025E-002    -9.5038931249291636E-006
   5.3800000000000014E-002    -1.6160434824996628E-005
   5.4900000000000004E-002    -1.2527631952252705E-005
   5.6000000000000022E-002    -2.7414952796789294E-007
   5.7100000000000012E-002     1.3064178347121924E-005
   5.8200000000000002E-002     1.9005690774065442E-005
   5.9300000000000019E-002     1.3744339412369300E-005
   6.0400000000000009E-002     5.5985617564147105E-007
   6.1500000000000027E-002    -1.2576258995977696E-005
   6.2600000000000017E-002    -1.8335918866796419E-005
   6.3700000000000007E-002    -1.4450721209868789E-005
   6.4800000000000024E-002    -4.2903975554509088E-006
   6.5900000000000014E-002     6.2468943724525161E-006
   6.7000000000000004E-002     1.2679583960562013E-005
   6.8100000000000022E-002     1.3692499123862945E-005
   6.9200000000000012E-002     1.0036645107902586E-005
   7.0300000000000029E-002     2.6559146135696210E-006
   7.1400000000000019E-002    -7.3759579208854120E-006
   7.2500000000000009E-002    -1.6873658751137555E-005
   7.3600000000000027E-002    -1.9347524357726797E-005
   7.4700000000000016E-002    -7.9509691204293631E-006
   7.5800000000000006E-002     1.7518070308142342E-005
   7.6900000000000024E-002     4.4748925574822351E-005
   7.8000000000000014E-002     5.1376810006331652E-005
   7.9100000000000004E-002     1.8524700863054022E-005
   8.0200000000000021E-002    -5.1019000238738954E-005
   8.1300000000000011E-002    -1.2370386684779078E-004
   8.2400000000000029E-002    -1.4698665472678840E-004
   8.3500000000000019E-002    -8.1025325926020741E-005
   8.4600000000000009E-002     6.7062559537589550E-005
   8.5700000000000026E-002     2.3157161194831133E-004
   8.6800000000000016E-002     3.1488641980104148E-004
   8.7900000000000006E-002     2.4398986715823412E-004
   8.9000000000000024E-002     2.4336084607057273E-005
   9.0100000000000013E-002    -2.4708325508981943E-004
   9.1200000000000003E-002    -4.2686628876253963E-004
   9.2300000000000021E-002    -4.0848852950148284E-004
   9.3400000000000011E-002    -1.9368475477676839E-004
   9.4500000000000028E-002     9.7950236522592604E-005
   9.5600000000000018E-002     2.9586337041109800E-004
   9.6700000000000008E-002     2.8618532815016806E-004
   9.7800000000000026E-002     9.1965783212799579E-005
   9.8900000000000016E-002    -1.3136099732946604E-004
  0.10000000000000001         -1.9093971059191972E-004
  0.10110000000000002          1.3741328984906431E-005
  0.10220000000000001          4.1112021426670253E-004
  0.10330000000000003          7.8616297105327249E-004
  0.10440000000000002          9.0622389689087868E-004
  0.10550000000000001          6.6502753179520369E-004
  0.10660000000000003          1.4661230670753866E-004
  0.10770000000000002         -4.4112259638495743E-004
  0.10880000000000001         -9.2581962235271931E-004
  0.10990000000000003         -1.3156159548088908E-003
  0.11100000000000002         -1.8209689296782017E-003
  0.11210000000000001         -2.7200798504054546E-003
  0.11320000000000002         -4.1429707780480385E-003
  0.11430000000000001         -5.9185158461332321E-003
  0.11540000000000003         -7.6073757372796535E-003
  0.11650000000000002         -8.7356539443135262E-003
  0.11760000000000001         -9.1116549447178841E-003
  0.11870000000000003         -9.0367915108799934E-003
  0.11980000000000002         -9.2631680890917778E-003
  0.12090000000000001         -1.0690735653042793E-002
  0.12200000000000003         -1.3954834081232548E-002
  0.12310000000000001         -1.9133029505610466E-002
  0.12420000000000003         -2.5749772787094116E-002
  0.12530000000000002         -3.3091612160205841E-002
  0.12640000000000001         -4.0670145303010941E-002
  0.12750000000000003         -4.8577632755041122E-002
  0.12860000000000002         -5.7538338005542755E-002
  0.12970000000000001         -6.8623833358287811E-002
  0.13080000000000003         -8.2803517580032349E-002
  0.13190000000000002        -0.10059136152267456
  0.13300000000000001        -0.12200032919645309
  0.13410000000000000        -0.14684072136878967
  0.13520000000000004        -0.17518997192382812
  0.13630000000000003        -0.20775564014911652
  0.13740000000000002        -0.24589724838733673
  0.13850000000000001        -0.29127565026283264
  0.13960000000000000        -0.34530714154243469
  0.14070000000000005        -0.40874704718589783
  0.14180000000000004        -0.48165547847747803
  0.14290000000000003        -0.56383430957794189
  0.14400000000000002        -0.65551394224166870
  0.14510000000000001        -0.75792628526687622
  0.14620000000000000        -0.87340611219406128
  0.14730000000000004         -1.0049438476562500
  0.14840000000000003         -1.1553419828414917
  0.14950000000000002         -1.3264720439910889
  0.15060000000000001         -1.5189701318740845
  0.15170000000000000         -1.7325979471206665
  0.15280000000000005         -1.9669682979583740
  0.15390000000000004         -2.2222950458526611
  0.15500000000000003         -2.4997551441192627
  0.15610000000000002         -2.8010487556457520
  0.15720000000000001         -3.1276848316192627
  0.15830000000000000         -3.4799892902374268
  0.15940000000000004         -3.8572235107421875
  0.16050000000000003         -4.2575974464416504
  0.16160000000000002         -4.6791567802429199
  0.16270000000000001         -5.1201920509338379
  0.16380000000000000         -5.5791268348693848
  0.16490000000000005         -6.0535697937011719
  0.16600000000000004         -6.5396695137023926
  0.16710000000000003         -7.0311880111694336
  0.16820000000000002         -7.5199398994445801
  0.16930000000000001         -7.9968657493591309
  0.17040000000000000         -8.4529695510864258
  0.17150000000000004         -8.8800354003906250
  0.17260000000000003         -9.2707767486572266
  0.17370000000000002         -9.6168651580810547
  0.17480000000000001         -9.9082880020141602
  0.17590000000000000         -10.132198333740234
  0.17700000000000005         -10.273553848266602
  0.17810000000000004         -10.316184043884277
  0.17920000000000003         -10.245569229125977
  0.18030000000000002         -10.048235893249512
  0.18140000000000001         -9.7133245468139648
  0.18250000000000000         -9.2306356430053711
  0.18360000000000004         -8.5912284851074219
  0.18470000000000003         -7.7841176986694336
  0.18580000000000002         -6.7979397773742676
  0.18690000000000001         -5.6242508888244629
  0.18800000000000000         -4.2572288513183594
  0.18910000000000005         -2.6955995559692383
  0.19020000000000004        -0.94237023591995239
  0.19130000000000003         0.99537020921707153
  0.19240000000000002          3.1112070083618164
  0.19350000000000001          5.3930363655090332
  0.19460000000000005          7.8280286788940430
  0.19570000000000004          10.398472785949707
  0.19680000000000003          13.080265045166016
  0.19790000000000002          15.845686912536621
  0.19900000000000001          18.665174484252930
  0.20010000000000000          21.504678726196289
  0.20120000000000005          24.324131011962891
  0.20230000000000004          27.085315704345703
  0.20340000000000003          29.749670028686523
  0.20450000000000002          32.274719238281250
  0.20560000000000000          34.616119384765625
  0.20670000000000005          36.729915618896484
  0.20780000000000004          38.571571350097656
  0.20890000000000003          40.099430084228516
