 -0.12000000000000000          0.0000000000000000
 -0.11889999999999999          0.0000000000000000
 -0.11780000000000000          0.0000000000000000
 -0.11670000000000000          0.0000000000000000
 -0.11559999999999999          0.0000000000000000
 -0.11449999999999999          0.0000000000000000
 -0.11340000000000000          0.0000000000000000
 -0.11230000000000000          0.0000000000000000
 -0.11119999999999999          0.0000000000000000
 -0.11009999999999999         -5.4574344980722235E-027
 -0.10900000000000000          1.5738066259766777E-026
 -0.10790000000000000         -2.3629707496081338E-026
 -0.10679999999999999         -1.4670181985991908E-024
 -0.10569999999999999         -4.7990621381828028E-024
 -0.10460000000000000          7.0417148056356173E-024
 -0.10349999999999999          6.8720765788550805E-023
 -0.10239999999999999          8.9232095957383377E-023
 -0.10130000000000000         -3.6978557965073661E-022
 -0.10020000000000000         -1.4946057089066080E-021
  -9.9099999999999994E-002    -8.6416685465440691E-022
  -9.7999999999999990E-002     7.3117265075496742E-021
  -9.6899999999999986E-002     2.1533558293653952E-020
  -9.5799999999999996E-002     1.0471201018332784E-020
  -9.4699999999999993E-002    -8.0249857705021102E-020
  -9.3599999999999989E-002    -2.2241488219327817E-019
  -9.2499999999999999E-002    -1.4254552757003146E-019
  -9.1399999999999995E-002     5.7704336666610006E-019
  -9.0299999999999991E-002     1.7430413974214872E-018
  -8.9200000000000002E-002     1.5481571281161110E-018
  -8.8099999999999984E-002    -2.7659137109553194E-018
  -8.6999999999999994E-002    -1.0622949557065275E-017
  -8.5899999999999990E-002    -1.2557472719739978E-017
  -8.4799999999999986E-002     7.1485775717445205E-018
  -8.3699999999999997E-002     5.0383359352368102E-017
  -8.2599999999999993E-002     7.7493231164393222E-017
  -8.1499999999999989E-002     1.2026011657716496E-017
  -8.0399999999999999E-002    -1.8068279497052175E-016
  -7.9299999999999995E-002    -3.7094275324763145E-016
  -7.8199999999999992E-002    -2.4533422579604152E-016
  -7.7100000000000002E-002     4.3886828405164432E-016
  -7.5999999999999984E-002     1.3813041668117522E-015
  -7.4899999999999994E-002     1.5151063615994882E-015
  -7.3799999999999991E-002    -3.3633396640466600E-016
  -7.2699999999999987E-002    -3.8961046472656569E-015
  -7.1599999999999997E-002    -6.2257412902300482E-015
  -7.0499999999999993E-002    -2.9299854321327432E-015
  -6.9399999999999989E-002     7.4720808154130763E-015
  -6.8300000000000000E-002     1.8819139158804919E-014
  -6.7199999999999996E-002     1.8056804424078365E-014
  -6.6099999999999992E-002    -4.6964148336329364E-015
  -6.5000000000000002E-002    -4.1508476885700196E-014
  -6.3899999999999985E-002    -6.1633668004337783E-014
  -6.2799999999999995E-002    -2.9559782898334885E-014
  -6.1699999999999991E-002     5.8133443263212736E-014
  -6.0599999999999994E-002     1.4637123707094551E-013
  -5.9499999999999990E-002     1.4258878095179534E-013
  -5.8399999999999994E-002    -7.7754507476698875E-015
  -5.7299999999999990E-002    -2.4059386752837975E-013
  -5.6199999999999986E-002    -3.7117872794464879E-013
  -5.5099999999999996E-002    -2.1711380252236595E-013
  -5.3999999999999992E-002     2.1690726200850746E-013
  -5.2899999999999989E-002     6.5233593266739165E-013
  -5.1799999999999985E-002     6.8382533793473477E-013
  -5.0699999999999995E-002     1.1742608838419266E-013
  -4.9599999999999991E-002    -7.5698041585026132E-013
  -4.8499999999999988E-002    -1.2572175288674825E-012
  -4.7399999999999998E-002    -8.1536887701696981E-013
  -4.6299999999999994E-002     4.4601133767155354E-013
  -4.5199999999999990E-002     1.6096837404666609E-012
  -4.4099999999999986E-002     1.5942570614352336E-012
  -4.2999999999999997E-002     1.4126937467051626E-013
  -4.1899999999999993E-002    -1.6986297351334612E-012
  -4.0799999999999989E-002    -2.2170312460878527E-012
  -3.9699999999999985E-002    -5.4559102461576581E-013
  -3.8599999999999995E-002     2.2210282658169378E-012
  -3.7499999999999992E-002     3.5042626352760342E-012
  -3.6399999999999988E-002     1.3458703552668427E-012
  -3.5299999999999984E-002    -3.4235765264400975E-012
  -3.4199999999999994E-002    -7.0366165151602988E-012
  -3.3099999999999991E-002    -5.4094879617383462E-012
  -3.1999999999999987E-002     2.1299429234233891E-012
  -3.0899999999999997E-002     1.1140151301436418E-011
  -2.9799999999999993E-002     1.4455853181161160E-011
  -2.8699999999999989E-002     7.5457686973812166E-012
  -2.7599999999999986E-002    -7.1346713259590189E-012
  -2.6499999999999996E-002    -2.0652290641520743E-011
  -2.5399999999999992E-002    -2.3340093746604396E-011
  -2.4299999999999988E-002    -1.1843479322259931E-011
  -2.3199999999999985E-002     7.9669049135588921E-012
  -2.2099999999999995E-002     2.4749355342912338E-011
  -2.0999999999999991E-002     2.9416257624204079E-011
  -1.9899999999999987E-002     2.0862651883835071E-011
  -1.8799999999999983E-002     5.3282066259097149E-012
  -1.7699999999999994E-002    -9.6402599444878057E-012
  -1.6599999999999990E-002    -2.1036441685828855E-011
  -1.5499999999999986E-002    -3.0644185106121213E-011
  -1.4399999999999996E-002    -3.9397374251848305E-011
  -1.3299999999999992E-002    -4.1428676461618963E-011
  -1.2199999999999989E-002    -2.4829104050549944E-011
  -1.1099999999999985E-002     1.8720379413306176E-011
  -9.9999999999999950E-003     8.1236642412996218E-011
  -8.8999999999999913E-003     1.3334995607738875E-010
  -7.7999999999999875E-003     1.3485328131945806E-010
  -6.6999999999999837E-003     5.9039467759092190E-011
  -5.5999999999999939E-003    -8.2286108482598763E-011
  -4.4999999999999901E-003    -2.3109628100037582E-010
  -3.3999999999999864E-003    -3.0408828233241536E-010
  -2.2999999999999826E-003    -2.3705201690482625E-010
  -1.1999999999999927E-003    -2.9720406691247092E-011
  -9.9999999999988987E-005     2.3847598895621047E-010
   1.0000000000000148E-003     4.3900105772820552E-010
   2.1000000000000185E-003     4.6080683713256576E-010
   3.2000000000000084E-003     2.7593491380706325E-010
   4.3000000000000121E-003    -3.8620107112308233E-011
   5.4000000000000159E-003    -3.4151365069234885E-010
   6.5000000000000058E-003    -5.0740611712285499E-010
   7.6000000000000234E-003    -4.9416476466390691E-010
   8.7000000000000133E-003    -3.5022917899141248E-010
   9.8000000000000032E-003    -1.5831200239624366E-010
   1.0900000000000021E-002     3.8347360009627351E-011
   1.2000000000000011E-002     2.6334975866681987E-010
   1.3100000000000001E-002     5.5774596052771130E-010
   1.4200000000000018E-002     8.8739388059977387E-010
   1.5300000000000008E-002     1.0868865807367456E-009
   1.6400000000000026E-002     9.0870111435492618E-010
   1.7500000000000016E-002     1.7781451311371654E-010
   1.8600000000000005E-002    -1.0301913766497250E-009
   1.9700000000000023E-002    -2.3084469891188064E-009
   2.0800000000000013E-002    -3.0208491264005488E-009
   2.1900000000000003E-002    -2.5772695089187891E-009
   2.3000000000000020E-002    -7.6911810253932344E-010
   2.4100000000000010E-002     2.0032340231068702E-009
   2.5200000000000000E-002     4.7554866711152499E-009
   2.6300000000000018E-002     6.2408904710764546E-009
   2.7400000000000008E-002     5.4728208631615871E-009
   2.8500000000000025E-002     2.2341146710402882E-009
   2.9600000000000015E-002    -2.6768784966435533E-009
   3.0700000000000005E-002    -7.6279995653294463E-009
   3.1800000000000023E-002    -1.0737967848228891E-008
   3.2900000000000013E-002    -1.0629439550768893E-008
   3.4000000000000002E-002    -7.0023187248580143E-009
   3.5100000000000020E-002    -7.4458339494043457E-010
   3.6200000000000010E-002     6.4728977733352622E-009
   3.7300000000000028E-002     1.2897607426509694E-008
   3.8400000000000017E-002     1.7314231826048854E-008
   3.9500000000000007E-002     1.9257214489698526E-008
   4.0600000000000025E-002     1.8731510564862219E-008
   4.1700000000000015E-002     1.5638146777519069E-008
   4.2800000000000005E-002     9.2624077296932228E-009
   4.3900000000000022E-002    -1.8688330882810078E-009
   4.5000000000000012E-002    -1.9686954288999914E-008
   4.6100000000000002E-002    -4.6049599689013121E-008
   4.7200000000000020E-002    -8.2362554110204655E-008
   4.8300000000000010E-002    -1.2969415763564029E-007
   4.9400000000000027E-002    -1.8945129909297975E-007
   5.0500000000000017E-002    -2.6431973765284056E-007
   5.1600000000000007E-002    -3.5892543337467941E-007
   5.2700000000000025E-002    -4.7974043582144077E-007
   5.3800000000000014E-002    -6.3417235196538968E-007
   5.4900000000000004E-002    -8.2934161582670640E-007
   5.6000000000000022E-002    -1.0714117024690495E-006
   5.7100000000000012E-002    -1.3661970115208533E-006
   5.8200000000000002E-002    -1.7211294789376552E-006
   5.9300000000000019E-002    -2.1478658709384035E-006
   6.0400000000000009E-002    -2.6643733690434601E-006
   6.1500000000000027E-002    -3.2955745155049954E-006
   6.2600000000000017E-002    -4.0724412428971846E-006
   6.3700000000000007E-002    -5.0303228817938361E-006
   6.4800000000000024E-002    -6.2077069742372259E-006
   6.5900000000000014E-002    -7.6463193181552924E-006
   6.7000000000000004E-002    -9.3927119451109320E-006
   6.8100000000000022E-002    -1.1500746950332541E-005
   6.9200000000000012E-002    -1.4034123523742892E-005
   7.0300000000000029E-002    -1.7068397937691770E-005
   7.1400000000000019E-002    -2.0692516045528464E-005
   7.2500000000000009E-002    -2.5010316676343791E-005
   7.3600000000000027E-002    -3.0142466130200773E-005
   7.4700000000000016E-002    -3.6228895623935387E-005
   7.5800000000000006E-002    -4.3431289668660611E-005
   7.6900000000000024E-002    -5.1934930525021628E-005
   7.8000000000000014E-002    -6.1949438531883061E-005
   7.9100000000000004E-002    -7.3708615673240274E-005
   8.0200000000000021E-002    -8.7470623839180917E-005
   8.1300000000000011E-002    -1.0351969831390306E-004
   8.2400000000000029E-002    -1.2217032781336457E-004
   8.3500000000000019E-002    -1.4377325715031475E-004
   8.4600000000000009E-002    -1.6872135165613145E-004
   8.5700000000000026E-002    -1.9745314784813672E-004
   8.6800000000000016E-002    -2.3045254056341946E-004
   8.7900000000000006E-002    -2.6824514498002827E-004
   8.9000000000000024E-002    -3.1139355269260705E-004
   9.0100000000000013E-002    -3.6049447953701019E-004
   9.1200000000000003E-002    -4.1617892566137016E-004
   9.2300000000000021E-002    -4.7911505680531263E-004
   9.3400000000000011E-002    -5.5001117289066315E-004
   9.4500000000000028E-002    -6.2961596995592117E-004
   9.5600000000000018E-002    -7.1871385443955660E-004
   9.6700000000000008E-002    -8.1811484415084124E-004
   9.7800000000000026E-002    -9.2864164616912603E-004
   9.8900000000000016E-002    -1.0511156870052218E-003
  0.10000000000000001         -1.1863437248393893E-003
  0.10110000000000002         -1.3351063244044781E-003
  0.10220000000000001         -1.4981494750827551E-003
  0.10330000000000003         -1.6761731822043657E-003
  0.10440000000000002         -1.8698188941925764E-003
  0.10550000000000001         -2.0796505268663168E-003
  0.10660000000000003         -2.3061321116983891E-003
  0.10770000000000002         -2.5496003217995167E-003
  0.10880000000000001         -2.8102386277168989E-003
  0.10990000000000003         -3.0880528502166271E-003
  0.11100000000000002         -3.3828492742031813E-003
  0.11210000000000001         -3.6942148581147194E-003
  0.11320000000000002         -4.0214979089796543E-003
  0.11430000000000001         -4.3637892231345177E-003
  0.11540000000000003         -4.7199055552482605E-003
  0.11650000000000002         -5.0883730873465538E-003
  0.11760000000000001         -5.4674083366990089E-003
  0.11870000000000003         -5.8549074456095695E-003
  0.11980000000000002         -6.2484308145940304E-003
  0.12090000000000001         -6.6452007740736008E-003
  0.12200000000000003         -7.0421048440039158E-003
  0.12310000000000001         -7.4357092380523682E-003
  0.12420000000000003         -7.8222788870334625E-003
  0.12530000000000002         -8.1978011876344681E-003
  0.12640000000000001         -8.5580172017216682E-003
  0.12750000000000003         -8.8984556496143341E-003
  0.12860000000000002         -9.2144776135683060E-003
  0.12970000000000001         -9.5013184472918510E-003
  0.13080000000000003         -9.7541380673646927E-003
  0.13190000000000002         -9.9680852144956589E-003
  0.13300000000000001         -1.0138357058167458E-002
  0.13410000000000000         -1.0260281153023243E-002
  0.13520000000000004         -1.0329395532608032E-002
  0.13630000000000003         -1.0341530665755272E-002
  0.13740000000000002         -1.0292892344295979E-002
  0.13850000000000001         -1.0180139914155006E-002
  0.13960000000000000         -1.0000457055866718E-002
  0.14070000000000005         -9.7516262903809547E-003
  0.14180000000000004         -9.4320913776755333E-003
  0.14290000000000003         -9.0410253033041954E-003
  0.14400000000000002         -8.5783852264285088E-003
  0.14510000000000001         -8.0449627712368965E-003
  0.14620000000000000         -7.4424161575734615E-003
  0.14730000000000004         -6.7733000032603741E-003
  0.14840000000000003         -6.0410764999687672E-003
  0.14950000000000002         -5.2501140162348747E-003
  0.15060000000000001         -4.4056717306375504E-003
  0.15170000000000000         -3.5138595849275589E-003
  0.15280000000000005         -2.5815861299633980E-003
  0.15390000000000004         -1.6164914704859257E-003
  0.15500000000000003         -6.2687078025192022E-004
  0.15610000000000002          3.7841053563170135E-004
  0.15720000000000001          1.3900169869884849E-003
  0.15830000000000000          2.3982557468116283E-003
  0.15940000000000004          3.3932023216038942E-003
  0.16050000000000003          4.3648323044180870E-003
  0.16160000000000002          5.3031523711979389E-003
  0.16270000000000001          6.1983400955796242E-003
  0.16380000000000000          7.0408820174634457E-003
  0.16490000000000005          7.8217182308435440E-003
  0.16600000000000004          8.5323788225650787E-003
  0.16710000000000003          9.1651100665330887E-003
  0.16820000000000002          9.7129838541150093E-003
  0.16930000000000001          1.0170008987188339E-002
  0.17040000000000000          1.0531222447752953E-002
  0.17150000000000004          1.0792775079607964E-002
  0.17260000000000003          1.0951997712254524E-002
  0.17370000000000002          1.1007440276443958E-002
  0.17480000000000001          1.0958904400467873E-002
  0.17590000000000000          1.0807447135448456E-002
  0.17700000000000005          1.0555380955338478E-002
  0.17810000000000004          1.0206254199147224E-002
  0.17920000000000003          9.7648007795214653E-003
  0.18030000000000002          9.2368759214878082E-003
  0.18140000000000001          8.6293667554855347E-003
  0.18250000000000000          7.9501047730445862E-003
  0.18360000000000004          7.2077601216733456E-003
  0.18470000000000003          6.4117144793272018E-003
  0.18580000000000002          5.5719339288771152E-003
  0.18690000000000001          4.6988269314169884E-003
  0.18800000000000000          3.8031039293855429E-003
  0.18910000000000005          2.8956350870430470E-003
  0.19020000000000004          1.9873082637786865E-003
  0.19130000000000003          1.0888801189139485E-003
  0.19240000000000002          2.1082792954985052E-004
  0.19350000000000001         -6.3679390586912632E-004
  0.19460000000000005         -1.4444817788898945E-003
  0.19570000000000004         -2.2033979184925556E-003
  0.19680000000000003         -2.9054782353341579E-003
  0.19790000000000002         -3.5435317549854517E-003
  0.19900000000000001         -4.1113356128334999E-003
  0.20010000000000000         -4.6037086285650730E-003
  0.20120000000000005         -5.0165620632469654E-003
  0.20230000000000004         -5.3469236008822918E-003
  0.20340000000000003         -5.5929506197571754E-003
  0.20450000000000002         -5.7539376430213451E-003
  0.20560000000000000         -5.8303168043494225E-003
  0.20670000000000005         -5.8236452750861645E-003
  0.20780000000000004         -5.7365624234080315E-003
  0.20890000000000003         -5.5727316066622734E-003
