 -0.12000000000000000          0.0000000000000000
 -0.11889999999999999          0.0000000000000000
 -0.11780000000000000          0.0000000000000000
 -0.11670000000000000          0.0000000000000000
 -0.11559999999999999          0.0000000000000000
 -0.11449999999999999          0.0000000000000000
 -0.11340000000000000          0.0000000000000000
 -0.11230000000000000          0.0000000000000000
 -0.11119999999999999          0.0000000000000000
 -0.11009999999999999          0.0000000000000000
 -0.10900000000000000          0.0000000000000000
 -0.10790000000000000          2.1193533456511995E-029
 -0.10679999999999999         -1.4116102323680030E-028
 -0.10569999999999999          3.1017939533882242E-027
 -0.10460000000000000          1.4404578558920298E-026
 -0.10349999999999999         -3.3028077683599899E-026
 -0.10239999999999999         -1.2349541050334747E-025
 -0.10130000000000000          9.2905381403042968E-025
 -0.10020000000000000          3.6246324493300854E-024
  -9.9099999999999994E-002    -6.4126439876543632E-024
  -9.7999999999999990E-002    -5.3645696998649687E-023
  -9.6899999999999986E-002    -3.7481529998444061E-023
  -9.5799999999999996E-002     4.0890308410430784E-022
  -9.4699999999999993E-002     1.1113092769777150E-021
  -9.3599999999999989E-002    -8.3233877837476338E-022
  -9.2499999999999999E-002    -9.3319495560292203E-021
  -9.1399999999999995E-002    -1.3545555897586059E-020
  -9.0299999999999991E-002     2.8410875231326205E-020
  -8.9200000000000002E-002     1.3381966391169492E-019
  -8.8099999999999984E-002     1.2034865282005381E-019
  -8.6999999999999994E-002    -4.2919889424265976E-019
  -8.5899999999999990E-002    -1.4388087108226995E-018
  -8.4799999999999986E-002    -9.3184729097696562E-019
  -8.3699999999999997E-002     4.3985167772287799E-018
  -8.2599999999999993E-002     1.2616939561157028E-017
  -8.1499999999999989E-002     7.3086163407582175E-018
  -8.0399999999999999E-002    -3.4258429531434939E-017
  -7.9299999999999995E-002    -9.4054988449370738E-017
  -7.8199999999999992E-002    -5.9656953991594000E-017
  -7.7100000000000002E-002     2.1149196406567181E-016
  -7.5999999999999984E-002     6.0673764105213584E-016
  -7.4899999999999994E-002     4.6726302543531541E-016
  -7.3799999999999991E-002    -1.0386072359677527E-015
  -7.2699999999999987E-002    -3.4024288581339067E-015
  -7.1599999999999997E-002    -3.2633562125901176E-015
  -7.0499999999999993E-002     3.8793312773276536E-015
  -6.9399999999999989E-002     1.6532832909773795E-014
  -6.8300000000000000E-002     1.9698427120690663E-014
  -6.7199999999999996E-002    -8.9335828028246946E-015
  -6.6099999999999992E-002    -6.8910270556183512E-014
  -6.5000000000000002E-002    -1.0196061524378117E-013
  -6.3899999999999985E-002    -8.1216602182670322E-015
  -6.2799999999999995E-002     2.4110959539677679E-013
  -6.1699999999999991E-002     4.5195786132698479E-013
  -6.0599999999999994E-002     2.2402056338438614E-013
  -5.9499999999999990E-002    -6.7311499256372809E-013
  -5.8399999999999994E-002    -1.7101793071960802E-012
  -5.7299999999999990E-002    -1.4680777210215878E-012
  -5.6199999999999986E-002     1.2736356023654305E-012
  -5.5099999999999996E-002     5.4632049752145750E-012
  -5.3999999999999992E-002     6.7072090069453250E-012
  -5.2899999999999989E-002    -1.0514810186825277E-013
  -5.1799999999999985E-002    -1.4305411889792286E-011
  -5.0699999999999995E-002    -2.4268330400811777E-011
  -4.9599999999999991E-002    -1.2139405800026815E-011
  -4.8499999999999988E-002     2.8240337152096728E-011
  -4.7399999999999998E-002     7.1790490219214576E-011
  -4.6299999999999994E-002     6.5561875373099099E-011
  -4.5199999999999990E-002    -2.8566376694683093E-011
  -4.4099999999999986E-002    -1.7228519999523684E-010
  -4.2999999999999997E-002    -2.3256331582732770E-010
  -4.1899999999999993E-002    -6.5849097008463531E-011
  -4.0799999999999989E-002     3.1613439643862762E-010
  -3.9699999999999985E-002     6.3694466367891778E-010
  -3.8599999999999995E-002     4.7753040410825065E-010
  -3.7499999999999992E-002    -3.4217648159362568E-010
  -3.6399999999999988E-002    -1.3815628641111743E-009
  -3.5299999999999984E-002    -1.6400368840763235E-009
  -3.4199999999999994E-002    -2.9456623251711278E-010
  -3.3099999999999991E-002     2.2687174361379903E-009
  -3.1999999999999987E-002     4.0921670496629758E-009
  -3.0899999999999997E-002     2.7765065802043409E-009
  -2.9799999999999993E-002    -2.2187318649002918E-009
  -2.8699999999999989E-002    -7.8974684569743658E-009
  -2.7599999999999986E-002    -8.8295388778192319E-009
  -2.6499999999999996E-002    -1.4260469471949477E-009
  -2.5399999999999992E-002     1.1371469987864202E-008
  -2.4299999999999988E-002     1.9647178106652063E-008
  -2.3199999999999985E-002     1.2954005867982232E-008
  -2.2099999999999995E-002    -9.5004120126418456E-009
  -2.0999999999999991E-002    -3.3430513468601930E-008
  -1.9899999999999987E-002    -3.6505863221236723E-008
  -1.8799999999999983E-002    -6.5225491674425484E-009
  -1.7699999999999994E-002     4.2328569094252089E-008
  -1.6599999999999990E-002     7.1907351184563595E-008
  -1.5499999999999986E-002     4.6740009196355459E-008
  -1.4399999999999996E-002    -3.1168209346787989E-008
  -1.3299999999999992E-002    -1.0964249241851576E-007
  -1.2199999999999989E-002    -1.1646280739796566E-007
  -1.1099999999999985E-002    -1.9643536575131293E-008
  -9.9999999999999950E-003     1.2829021045490663E-007
  -8.8999999999999913E-003     2.0952806778495869E-007
  -7.7999999999999875E-003     1.2772156310347782E-007
  -6.6999999999999837E-003    -9.5954128198627586E-008
  -5.5999999999999939E-003    -3.0379402460312122E-007
  -4.4999999999999901E-003    -3.0227266734073055E-007
  -3.3999999999999864E-003    -2.7557382153986509E-008
  -2.2999999999999826E-003     3.5617162552625814E-007
  -1.1999999999999927E-003     5.3618134643329540E-007
  -9.9999999999988987E-005     2.8934931606272585E-007
   1.0000000000000148E-003    -2.9038133675385325E-007
   2.1000000000000185E-003    -7.8388319479927304E-007
   3.2000000000000084E-003    -7.2774264481267892E-007
   4.3000000000000121E-003    -1.3498352657848045E-008
   5.4000000000000159E-003     9.1786478151334450E-007
   6.5000000000000058E-003     1.3136603911334532E-006
   7.6000000000000234E-003     6.8418052023844211E-007
   8.7000000000000133E-003    -7.0230066739895847E-007
   9.8000000000000032E-003    -1.8564174979474046E-006
   1.0900000000000021E-002    -1.7371654621456400E-006
   1.2000000000000011E-002    -1.3014170008318615E-007
   1.3100000000000001E-002     1.9708561467268737E-006
   1.4200000000000018E-002     2.9225013804534683E-006
   1.5300000000000008E-002     1.6710087038518395E-006
   1.6400000000000026E-002    -1.2279721204322414E-006
   1.7500000000000016E-002    -3.7219713249214692E-006
   1.8600000000000005E-002    -3.6593603454093682E-006
   1.9700000000000023E-002    -5.6980258023031638E-007
   2.0800000000000013E-002     3.5906880384573014E-006
   2.1900000000000003E-002     5.5745813369867392E-006
   2.3000000000000020E-002     3.2958760129986331E-006
   2.4100000000000010E-002    -2.1855148588656448E-006
   2.5200000000000000E-002    -6.9096740844543092E-006
   2.6300000000000018E-002    -6.7443847910908516E-006
   2.7400000000000008E-002    -8.1670935969668790E-007
   2.8500000000000025E-002     7.0811820478411391E-006
   2.9600000000000015E-002     1.0701566679927055E-005
   3.0700000000000005E-002     6.0578090597118717E-006
   3.1800000000000023E-002    -4.7738308239786420E-006
   3.2900000000000013E-002    -1.4114033547230065E-005
   3.4000000000000002E-002    -1.3877967830921989E-005
   3.5100000000000020E-002    -2.1594960344373249E-006
   3.6200000000000010E-002     1.3946534636488650E-005
   3.7300000000000028E-002     2.2328636987367645E-005
   3.8400000000000017E-002     1.4692627701151650E-005
   3.9500000000000007E-002    -6.0339148149068933E-006
   4.0600000000000025E-002    -2.5981118596973829E-005
   4.1700000000000015E-002    -2.9433233066811226E-005
   4.2800000000000005E-002    -1.0949566785711795E-005
   4.3900000000000022E-002     1.8683689631870948E-005
   4.5000000000000012E-002     3.8400885387090966E-005
   4.6100000000000002E-002     3.1806455808691680E-005
   4.7200000000000020E-002     6.0294149761830340E-007
   4.8300000000000010E-002    -3.4348966437391937E-005
   4.9400000000000027E-002    -4.6865719923516735E-005
   5.0500000000000017E-002    -2.5189827283611521E-005
   5.1600000000000007E-002     1.7219013898284175E-005
   5.2700000000000025E-002     4.9492020480101928E-005
   5.3800000000000014E-002     4.5775195758324116E-005
   5.4900000000000004E-002     6.1305254348553717E-006
   5.6000000000000022E-002    -4.0934060962172225E-005
   5.7100000000000012E-002    -5.8401226851856336E-005
   5.8200000000000002E-002    -2.9641980290762149E-005
   5.9300000000000019E-002     2.6045083359349519E-005
   6.0400000000000009E-002     6.5366599301341921E-005
   6.1500000000000027E-002     5.3885294619249180E-005
   6.2600000000000017E-002    -4.6186978579498827E-006
   6.3700000000000007E-002    -6.6796303144656122E-005
   6.4800000000000024E-002    -8.0931698903441429E-005
   6.5900000000000014E-002    -2.8976210160180926E-005
   6.7000000000000004E-002     5.4084768635220826E-005
   6.8100000000000022E-002     1.0266854951623827E-004
   6.9200000000000012E-002     7.1763104642741382E-005
   7.0300000000000029E-002    -2.2116990294307470E-005
   7.1400000000000019E-002    -1.0626511357259005E-004
   7.2500000000000009E-002    -1.0600220412015915E-004
   7.3600000000000027E-002    -9.4851093308534473E-006
   7.4700000000000016E-002     1.1055238428525627E-004
   7.5800000000000006E-002     1.4464835112448782E-004
   7.6900000000000024E-002     3.6429202737053856E-005
   7.8000000000000014E-002    -1.5400488337036222E-004
   7.9100000000000004E-002    -2.7279421919956803E-004
   8.0200000000000021E-002    -1.8092920072376728E-004
   8.1300000000000011E-002     1.2261797382961959E-004
   8.2400000000000029E-002     4.6120412298478186E-004
   8.3500000000000019E-002     5.7480420218780637E-004
   8.4600000000000009E-002     3.0219333712011576E-004
   8.5700000000000026E-002    -2.7285920805297792E-004
   8.6800000000000016E-002    -8.3008222281932831E-004
   8.7900000000000006E-002    -9.9706358741968870E-004
   8.9000000000000024E-002    -6.0164945898577571E-004
   9.0100000000000013E-002     1.8212062423117459E-004
   9.1200000000000003E-002     9.1419328236952424E-004
   9.2300000000000021E-002     1.1634912807494402E-003
   9.3400000000000011E-002     8.0048118252307177E-004
   9.4500000000000028E-002     9.8603806691244245E-005
   9.5600000000000018E-002    -4.4522862299345434E-004
   9.6700000000000008E-002    -4.6400254359468818E-004
   9.7800000000000026E-002    -3.8161942939041182E-006
   9.8900000000000016E-002     4.7737464774399996E-004
  0.10000000000000001          4.2021030094474554E-004
  0.10110000000000002         -4.1564341518096626E-004
  0.10220000000000001         -1.7172166844829917E-003
  0.10330000000000003         -2.7553527615964413E-003
  0.10440000000000002         -2.8251158073544502E-003
  0.10550000000000001         -1.6999632352963090E-003
  0.10660000000000003          2.1697860211133957E-004
  0.10770000000000002          2.1629622206091881E-003
  0.10880000000000001          3.5325610078871250E-003
  0.10990000000000003          4.2861150577664375E-003
  0.11100000000000002          4.9597900360822678E-003
  0.11210000000000001          6.2623550184071064E-003
  0.11320000000000002          8.5385125130414963E-003
  0.11430000000000001          1.1482679285109043E-002
  0.11540000000000003          1.4321734197437763E-002
  0.11650000000000002          1.6362158581614494E-002
  0.11760000000000001          1.7541224136948586E-002
  0.11870000000000003          1.8614707514643669E-002
  0.11980000000000002          2.0855933427810669E-002
  0.12090000000000001          2.5460772216320038E-002
  0.12200000000000003          3.3035151660442352E-002
  0.12310000000000001          4.3456938117742538E-002
  0.12420000000000003          5.6149501353502274E-002
  0.12530000000000002          7.0550248026847839E-002
  0.12640000000000001          8.6493000388145447E-002
  0.12750000000000003         0.10434471815824509
  0.12860000000000002         0.12493962794542313
  0.12970000000000001         0.14944818615913391
  0.13080000000000003         0.17926487326622009
  0.13190000000000002         0.21588319540023804
  0.13300000000000001         0.26068878173828125
  0.13410000000000000         0.31470245122909546
  0.13520000000000004         0.37847623229026794
  0.13630000000000003         0.45233640074729919
  0.13740000000000002         0.53698652982711792
  0.13850000000000001         0.63415825366973877
  0.13960000000000000         0.74683243036270142
  0.14070000000000005         0.87868183851242065
  0.14180000000000004          1.0329979658126831
  0.14290000000000003          1.2117118835449219
  0.14400000000000002          1.4153110980987549
  0.14510000000000001          1.6438673734664917
  0.14620000000000000          1.8987631797790527
  0.14730000000000004          2.1838881969451904
  0.14840000000000003          2.5054659843444824
  0.14950000000000002          2.8701889514923096
  0.15060000000000001          3.2828731536865234
  0.15170000000000000          3.7449355125427246
  0.15280000000000005          4.2549586296081543
  0.15390000000000004          4.8109502792358398
  0.15500000000000003          5.4129085540771484
  0.15610000000000002          6.0638957023620605
  0.15720000000000001          6.7690081596374512
  0.15830000000000000          7.5323228836059570
  0.15940000000000004          8.3541307449340820
  0.16050000000000003          9.2297191619873047
  0.16160000000000002          10.151565551757812
  0.16270000000000001          11.112083435058594
  0.16380000000000000          12.106113433837891
  0.16490000000000005          13.130379676818848
  0.16600000000000004          14.179831504821777
  0.16710000000000003          15.245387077331543
  0.16820000000000002          16.311515808105469
  0.16930000000000001          17.357923507690430
  0.17040000000000000          18.361997604370117
  0.17150000000000004          19.302211761474609
  0.17260000000000003          20.160612106323242
  0.17370000000000002          20.920188903808594
  0.17480000000000001          21.561759948730469
  0.17590000000000000          22.060768127441406
  0.17700000000000005          22.385507583618164
  0.17810000000000004          22.500574111938477
  0.17920000000000003          22.371212005615234
  0.18030000000000002          21.968011856079102
  0.18140000000000001          21.266441345214844
  0.18250000000000000          20.246633529663086
  0.18360000000000004          18.886383056640625
  0.18470000000000003          17.164028167724609
  0.18580000000000002          15.056620597839355
  0.18690000000000001          12.544724464416504
  0.18800000000000000          9.6162652969360352
  0.18910000000000005          6.2684140205383301
  0.19020000000000004          2.5056736469268799
  0.19130000000000003         -1.6604145765304565
  0.19240000000000002         -6.2154955863952637
  0.19350000000000001         -11.135568618774414
  0.19460000000000005         -16.387004852294922
  0.19570000000000004         -21.930738449096680
  0.19680000000000003         -27.715803146362305
  0.19790000000000002         -33.691566467285156
  0.19900000000000001         -39.789951324462891
  0.20010000000000000         -45.936038970947266
  0.20120000000000005         -52.049171447753906
  0.20230000000000004         -58.043579101562500
  0.20340000000000003         -63.832363128662109
  0.20450000000000002         -69.324378967285156
  0.20560000000000000         -74.426696777343750
  0.20670000000000005         -79.040496826171875
  0.20780000000000004         -83.071044921875000
  0.20890000000000003         -86.428894042968750
