 -0.12000000000000000          0.0000000000000000
 -0.11889999999999999          0.0000000000000000
 -0.11780000000000000          0.0000000000000000
 -0.11670000000000000          0.0000000000000000
 -0.11559999999999999          0.0000000000000000
 -0.11449999999999999          0.0000000000000000
 -0.11340000000000000          0.0000000000000000
 -0.11230000000000000          0.0000000000000000
 -0.11119999999999999          0.0000000000000000
 -0.11009999999999999          9.3289554834252154E-029
 -0.10900000000000000         -2.1767563195894241E-028
 -0.10790000000000000         -1.3993433345508445E-027
 -0.10679999999999999          1.5548253922981760E-028
 -0.10569999999999999          1.2127641526599672E-027
 -0.10460000000000000          1.4211108881170890E-026
 -0.10349999999999999          3.5170161678993514E-026
 -0.10239999999999999         -3.9399291214202023E-026
 -0.10130000000000000         -3.0502574008199433E-025
 -0.10020000000000000         -4.4328086138154336E-025
  -9.9099999999999994E-002    -1.8552493877860173E-024
  -9.7999999999999990E-002    -2.1030578138171673E-025
  -9.6899999999999986E-002    -6.0330356398072812E-025
  -9.5799999999999996E-002     1.0416401410311856E-024
  -9.4699999999999993E-002     6.7624667226573365E-024
  -9.3599999999999989E-002     4.3315275510550132E-024
  -9.2499999999999999E-002    -8.7768834708845301E-023
  -9.1399999999999995E-002    -4.9440948466964100E-023
  -9.0299999999999991E-002    -7.6327189828632504E-023
  -8.9200000000000002E-002    -1.6842755879385051E-022
  -8.8099999999999984E-002     2.6118510569110280E-022
  -8.6999999999999994E-002     6.9079779541960508E-022
  -8.5899999999999990E-002     8.5955394949035998E-022
  -8.4799999999999986E-002    -2.7597247375342619E-022
  -8.3699999999999997E-002    -6.2892944148526401E-022
  -8.2599999999999993E-002    -2.0253125518480914E-021
  -8.1499999999999989E-002    -5.5085478969857999E-021
  -8.0399999999999999E-002     3.9905163765861404E-022
  -7.9299999999999995E-002     6.3066515761998114E-021
  -7.8199999999999992E-002     1.2214251514741009E-020
  -7.7100000000000002E-002     1.8121851857178990E-020
  -7.5999999999999984E-002    -1.0127728001460777E-021
  -7.4899999999999994E-002    -2.2234251358320258E-020
  -7.3799999999999991E-002    -3.5108320775446522E-020
  -7.2699999999999987E-002    -2.2940166000603305E-020
  -7.1599999999999997E-002    -3.5814235417729569E-020
  -7.0499999999999993E-002    -4.0340897309395050E-020
  -6.9399999999999989E-002    -1.9825333393503917E-020
  -6.8300000000000000E-002    -3.2699399579455913E-020
  -6.7199999999999996E-002    -1.2183835663564779E-020
  -6.6099999999999992E-002    -7.5142353464630006E-020
  -6.5000000000000002E-002    -1.5479569762572673E-019
  -6.3899999999999985E-002    -1.6766976865844013E-019
  -6.2799999999999995E-002    -4.6985312821432475E-020
  -6.1699999999999991E-002     6.9198795807146544E-021
  -6.0599999999999994E-002    -5.9541979143472791E-021
  -5.9499999999999990E-002    -2.8594535176707120E-019
  -5.8399999999999994E-002    -1.7679633153019442E-018
  -5.7299999999999990E-002    -3.2499814597825763E-018
  -5.6199999999999986E-002    -2.9957386063228183E-018
  -5.5099999999999996E-002    -4.0422145186358511E-019
  -5.3999999999999992E-002     4.7249077712814849E-018
  -5.2899999999999989E-002     9.8540372012217081E-018
  -5.1799999999999985E-002     7.5038888679636107E-018
  -5.0699999999999995E-002    -6.5994102951190340E-018
  -4.9599999999999991E-002    -2.6045052135652958E-017
  -4.8499999999999988E-002    -3.2134841832052053E-017
  -4.7399999999999998E-002    -1.4718329041621441E-017
  -4.6299999999999994E-002     2.0862146866910050E-017
  -4.5199999999999990E-002     5.4305687689694499E-017
  -4.4099999999999986E-002     5.5695182373938625E-017
  -4.2999999999999997E-002     1.0072073738884561E-017
  -4.1899999999999993E-002    -6.2262738357258548E-017
  -4.0799999999999989E-002    -9.5865580931130909E-017
  -3.9699999999999985E-002    -5.0401769084081082E-017
  -3.8599999999999995E-002     5.0622394697061226E-017
  -3.7499999999999992E-002     1.2600332421434924E-016
  -3.6399999999999988E-002     1.0415361964900193E-016
  -3.5299999999999984E-002    -1.8132103429627786E-017
  -3.4199999999999994E-002    -1.5537638865209904E-016
  -3.3099999999999991E-002    -1.7295224289828697E-016
  -3.1999999999999987E-002    -1.1025417592825401E-017
  -3.0899999999999997E-002     2.4065275410590581E-016
  -2.9799999999999993E-002     3.7907329015942747E-016
  -2.8699999999999989E-002     1.9267946818627221E-016
  -2.7599999999999986E-002    -2.4159902225688687E-016
  -2.6499999999999996E-002    -6.4168648515364429E-016
  -2.5399999999999992E-002    -7.2550733036671295E-016
  -2.4299999999999988E-002    -2.9860039560994063E-016
  -2.3199999999999985E-002     4.8731192471991027E-016
  -2.2099999999999995E-002     1.2903196992659579E-015
  -2.0999999999999991E-002     1.6488447112788249E-015
  -1.9899999999999987E-002     1.0542960860959153E-015
  -1.8799999999999983E-002    -6.6000733134672198E-016
  -1.7699999999999994E-002    -2.9897482652427440E-015
  -1.6599999999999990E-002    -4.5501919594649002E-015
  -1.5499999999999986E-002    -3.6232418771536302E-015
  -1.4399999999999996E-002     6.0313817454277869E-016
  -1.3299999999999992E-002     6.4193992799937462E-015
  -1.2199999999999989E-002     1.0047437057694730E-014
  -1.1099999999999985E-002     7.2475696505456405E-015
  -9.9999999999999950E-003    -2.3392087505430753E-015
  -8.8999999999999913E-003    -1.3276530787568411E-014
  -7.7999999999999875E-003    -1.6862792900310813E-014
  -6.6999999999999837E-003    -7.5248628264882808E-015
  -5.5999999999999939E-003     1.0429195654055191E-014
  -4.4999999999999901E-003     2.2981079590852181E-014
  -3.3999999999999864E-003     1.5497045446487452E-014
  -2.2999999999999826E-003    -1.1817762175477583E-014
  -1.1999999999999927E-003    -3.7252068563111557E-014
  -9.9999999999988987E-005    -3.1333239496923737E-014
   1.0000000000000148E-003     1.3819744028070909E-014
   2.1000000000000185E-003     6.9879655718602801E-014
   3.2000000000000084E-003     8.3816281823065331E-014
   4.3000000000000121E-003     2.5541543299855210E-014
   5.4000000000000159E-003    -8.0190276077404810E-014
   6.5000000000000058E-003    -1.5371418601948378E-013
   7.6000000000000234E-003    -1.4063232457901809E-013
   8.7000000000000133E-003    -2.5969054380861611E-014
   9.8000000000000032E-003     1.2415026960036629E-013
   1.0900000000000021E-002     2.4630135170983225E-013
   1.2000000000000011E-002     2.6068248037622310E-013
   1.3100000000000001E-002     1.3282910470320541E-013
   1.4200000000000018E-002    -1.0935894659454271E-013
   1.5300000000000008E-002    -3.6139399307334730E-013
   1.6400000000000026E-002    -5.1988253112200677E-013
   1.7500000000000016E-002    -4.5626637234022493E-013
   1.8600000000000005E-002    -3.8158102437339803E-014
   1.9700000000000023E-002     5.7907839764656521E-013
   2.0800000000000013E-002     9.8186909991415661E-013
   2.1900000000000003E-002     9.4920338949977534E-013
   2.3000000000000020E-002     5.0077536518575161E-013
   2.4100000000000010E-002    -2.7150967563636941E-013
   2.5200000000000000E-002    -1.0919356781616263E-012
   2.6300000000000018E-002    -1.1421071336933930E-012
   2.7400000000000008E-002    -6.9336371496739324E-013
   2.8500000000000025E-002    -2.0085582502771260E-013
   2.9600000000000015E-002    -5.2236687198004006E-013
   3.0700000000000005E-002    -1.5090977512760562E-012
   3.1800000000000023E-002    -1.8131030531109982E-012
   3.2900000000000013E-002     7.8885183975307971E-013
   3.4000000000000002E-002     4.7737638494971257E-012
   3.5100000000000020E-002     7.2531780928586365E-012
   3.6200000000000010E-002     4.4808566579401798E-012
   3.7300000000000028E-002    -2.9830148767784337E-012
   3.8400000000000017E-002    -1.0446886411497047E-011
   3.9500000000000007E-002    -1.3429276787824129E-011
   4.0600000000000025E-002    -8.3590061955574058E-012
   4.1700000000000015E-002     3.2234152413240791E-012
   4.2800000000000005E-002     1.5085929033764600E-011
   4.3900000000000022E-002     1.7005157698646300E-011
   4.5000000000000012E-002     1.0801703281826391E-011
   4.6100000000000002E-002    -5.9052229252343214E-012
   4.7200000000000020E-002    -1.8970948076346694E-011
   4.8300000000000010E-002    -2.0272786921404773E-011
   4.9400000000000027E-002    -1.2611661714956313E-011
   5.0500000000000017E-002    -4.6905643431849331E-013
   5.1600000000000007E-002     9.4328087008044292E-012
   5.2700000000000025E-002     2.5496708910832666E-011
   5.3800000000000014E-002     1.7472651797634242E-011
   5.4900000000000004E-002    -7.9171461053739733E-012
   5.6000000000000022E-002    -2.3223614004086457E-011
   5.7100000000000012E-002    -2.3965269005388201E-011
   5.8200000000000002E-002    -1.4623594002394213E-011
   5.9300000000000019E-002    -9.7633984230682813E-012
   6.0400000000000009E-002     1.1902350632864156E-011
   6.1500000000000027E-002     3.6929206220781552E-011
   6.2600000000000017E-002     1.7141255428954061E-011
   6.3700000000000007E-002    -9.6757796219648640E-011
   6.4800000000000024E-002    -1.8264759149566601E-010
   6.5900000000000014E-002    -7.8074463560895424E-011
   6.7000000000000004E-002     2.1472085220963777E-010
   6.8100000000000022E-002     4.9855319872449400E-010
   6.9200000000000012E-002     5.2021892349429777E-010
   7.0300000000000029E-002     2.2594021098498729E-010
   7.1400000000000019E-002    -1.3331996617793607E-010
   7.2500000000000009E-002    -1.6095058619214342E-010
   7.3600000000000027E-002     2.1475209110999316E-010
   7.4700000000000016E-002     6.5767696844076795E-010
   7.5800000000000006E-002     6.7934269321057172E-010
   7.6900000000000024E-002     5.5675131171994963E-011
   7.8000000000000014E-002    -8.0102946498072924E-010
   7.9100000000000004E-002    -1.3440303314737889E-009
   8.0200000000000021E-002    -1.1924017329079106E-009
   8.1300000000000011E-002    -2.8788432748783066E-010
   8.2400000000000029E-002     1.5055906521510565E-010
   8.3500000000000019E-002    -2.3559001971484861E-010
   8.4600000000000009E-002    -1.1729612836575143E-009
   8.5700000000000026E-002    -1.4201846365580195E-009
   8.6800000000000016E-002    -4.5292664063723009E-010
   8.7900000000000006E-002     1.3434053869332274E-009
   8.9000000000000024E-002     2.5437003614570131E-009
   9.0100000000000013E-002     2.2740700433843131E-009
   9.1200000000000003E-002     8.0788414846821865E-010
   9.2300000000000021E-002    -2.2807947197556189E-010
   9.3400000000000011E-002    -1.3471002091591799E-010
   9.4500000000000028E-002     9.1321489259499344E-010
   9.5600000000000018E-002     1.3270102794393779E-009
   9.6700000000000008E-002     7.0558364706485577E-010
   9.7800000000000026E-002    -1.3767639805983833E-010
   9.8900000000000016E-002    -6.2689942126326059E-010
  0.10000000000000001          9.4997676391983532E-011
  0.10110000000000002          9.6814467553940631E-010
  0.10220000000000001          1.1533843879973915E-009
  0.10330000000000003          5.9161398002771648E-011
  0.10440000000000002         -1.5773209405267608E-009
  0.10550000000000001         -2.0575812165191110E-009
  0.10660000000000003         -3.1950853074391716E-010
  0.10770000000000002          1.5798975461223108E-009
  0.10880000000000001          1.5970815780974590E-009
  0.10990000000000003         -1.2269931737307616E-009
  0.11100000000000002         -4.4364751872194574E-009
  0.11210000000000001         -5.1184017024752393E-009
  0.11320000000000002         -2.9680324864500562E-009
  0.11430000000000001          4.7300330319188788E-010
  0.11540000000000003          2.7667796942409950E-009
  0.11650000000000002          2.8377413752167513E-009
  0.11760000000000001          1.9586292587803200E-009
  0.11870000000000003          1.9758130687108633E-009
  0.11980000000000002          3.2298856922352570E-009
  0.12090000000000001          4.2509213926678058E-009
  0.12200000000000003          3.3001057442305637E-009
  0.12310000000000001          2.8780899885560984E-010
  0.12420000000000003         -2.9933766576561993E-009
  0.12530000000000002         -4.6074513093685709E-009
  0.12640000000000001         -3.7477487779824514E-009
  0.12750000000000003         -1.2747132238644099E-009
  0.12860000000000002          6.9639660704723383E-010
  0.12970000000000001          9.6454388920363954E-010
  0.13080000000000003          1.7506168736858285E-010
  0.13190000000000002         -3.2760577584056705E-010
  0.13300000000000001          1.1980069714034869E-010
  0.13410000000000000          2.8039243149535764E-010
  0.13520000000000004         -1.9538612394676136E-010
  0.13630000000000003         -1.2806460336634018E-009
  0.13740000000000002         -2.4286468391920835E-009
  0.13850000000000001         -2.1604995570356778E-009
  0.13960000000000000         -6.2857474780741995E-010
  0.14070000000000005          3.7453520840280419E-010
  0.14180000000000004          5.7433979794296874E-010
  0.14290000000000003          6.2513511034367752E-010
  0.14400000000000002          1.4489858202182404E-009
  0.14510000000000001          2.4789845731731930E-009
  0.14620000000000000          3.5358722616507521E-009
  0.14730000000000004          3.3469085281012667E-009
  0.14840000000000003          1.5715005963201634E-009
  0.14950000000000002          1.2772213842104918E-010
  0.15060000000000001         -2.5842689099775384E-010
  0.15170000000000000          5.2957199736525240E-010
  0.15280000000000005          2.2676449606962024E-009
  0.15390000000000004          3.2886808831733561E-009
  0.15500000000000003          3.1086799801016696E-009
  0.15610000000000002          1.5125309893448957E-009
  0.15720000000000001         -7.8272877068741309E-010
  0.15830000000000000         -2.3071740073987712E-009
  0.15940000000000004         -2.0569528302871731E-009
  0.16050000000000003         -1.2151760708789539E-009
  0.16160000000000002         -6.7814004411914652E-010
  0.16270000000000001         -1.5622531046588506E-011
  0.16380000000000000          1.3460059733461094E-009
  0.16490000000000005          3.7831897614637455E-009
  0.16600000000000004          7.2062995570831845E-009
  0.16710000000000003          9.5180014980655869E-009
  0.16820000000000002          8.4058529026265205E-009
  0.16930000000000001          3.3141487332244424E-009
  0.17040000000000000         -3.4357028333431572E-009
  0.17150000000000004         -7.9806659059045160E-009
  0.17260000000000003         -7.6677038052253010E-009
  0.17370000000000002         -3.2855564935374559E-009
  0.17480000000000001          1.7329607748806097E-009
  0.17590000000000000          4.0536267675861382E-009
  0.17700000000000005          3.0221447566702864E-009
  0.17810000000000004          7.8962603122789687E-010
  0.17920000000000003          1.8069989948799048E-011
  0.18030000000000002          1.7113283012903935E-009
  0.18140000000000001          4.0857717209519251E-009
  0.18250000000000000          4.4749191019377577E-009
  0.18360000000000004          2.0452151083816261E-009
  0.18470000000000003         -1.6796368740301659E-009
  0.18580000000000002         -3.8807854707556544E-009
  0.18690000000000001         -3.1779343601101573E-009
  0.18800000000000000         -4.5393555581085820E-010
  0.18910000000000005          2.0011743373515856E-009
  0.19020000000000004          2.3634330048594165E-009
  0.19130000000000003          6.9109906686293243E-010
  0.19240000000000002         -1.5324571611685656E-009
  0.19350000000000001         -2.6849393819361467E-009
  0.19460000000000005         -2.1254957793814810E-009
  0.19570000000000004         -6.6079308691513461E-010
  0.19680000000000003          4.9020604242500099E-010
  0.19790000000000002          9.1072377417233952E-010
  0.19900000000000001          1.0309822995324680E-009
  0.20010000000000000          1.6217962528486396E-009
  0.20120000000000005          2.6159434618477917E-009
  0.20230000000000004          3.4980536245399207E-009
  0.20340000000000003          3.9947565255715745E-009
  0.20450000000000002          4.0567558201587417E-009
  0.20560000000000000          3.7781626716082428E-009
  0.20670000000000005          3.1993101501370802E-009
  0.20780000000000004          2.0378649878693977E-009
  0.20890000000000003          2.8934610263320337E-010
