 -0.12000000000000000          0.0000000000000000     
 -0.11889999999999999          0.0000000000000000     
 -0.11780000000000000          0.0000000000000000     
 -0.11670000000000000          0.0000000000000000     
 -0.11559999999999999          0.0000000000000000     
 -0.11449999999999999          0.0000000000000000     
 -0.11340000000000000          5.7026497239653917E-013
 -0.11230000000000000         -5.3162092783498593E-012
 -0.11119999999999999         -4.6963443550707140E-011
 -0.11009999999999999         -1.1170191160925214E-010
 -0.10900000000000000          5.4967662366234293E-011
 -0.10790000000000000          8.9497803612559323E-010
 -0.10679999999999999          2.0116617260867997E-009
 -0.10569999999999999          7.8520079327404346E-010
 -0.10460000000000000         -6.0685056979536967E-009
 -0.10349999999999999         -1.5575992051708454E-008
 -0.10239999999999999         -1.2706361296466184E-008
 -0.10130000000000000          1.8978617788434349E-008
 -0.10020000000000000          6.6547215737955412E-008
  -9.9099999999999994E-002     6.9677845715432341E-008
  -9.7999999999999990E-002    -3.2192822629895090E-008
  -9.6899999999999986E-002    -1.9280273022559413E-007
  -9.5799999999999996E-002    -2.1440138198158820E-007
  -9.4699999999999993E-002     8.3863753275181807E-008
  -9.3599999999999989E-002     5.4055078635428799E-007
  -9.2499999999999999E-002     5.5221971706487238E-007
  -9.1399999999999995E-002    -4.0210846918853349E-007
  -9.0299999999999991E-002    -1.8311217218069942E-006
  -8.9200000000000002E-002    -1.9614928987721214E-006
  -8.8099999999999984E-002     8.4177150938558043E-007
  -8.6999999999999994E-002     5.5454574976465665E-006
  -8.5899999999999990E-002     7.4829390541708563E-006
  -8.4799999999999986E-002     1.5775931387906894E-006
  -8.3699999999999997E-002    -1.1339604498061817E-005
  -8.2599999999999993E-002    -2.1127902073203586E-005
  -8.1499999999999989E-002    -1.4223421203496400E-005
  -8.0399999999999999E-002     1.2420869097695686E-005
  -7.9299999999999995E-002     4.1340972529724240E-005
  -7.8199999999999992E-002     4.2767685954459012E-005
  -7.7100000000000002E-002     1.4692180911879404E-006
  -7.5999999999999984E-002    -5.9052072174381465E-005
  -7.4899999999999994E-002    -8.3954240835737437E-005
  -7.3799999999999991E-002    -3.2653762900736183E-005
  -7.2699999999999987E-002     7.1086527896113694E-005
  -7.1599999999999997E-002     1.3815784768667072E-004
  -7.0499999999999993E-002     8.3679129602387547E-005
  -6.9399999999999989E-002    -8.0622179666534066E-005
  -6.8300000000000000E-002    -2.2255867952480912E-004
  -6.7199999999999996E-002    -1.8518931756261736E-004
  -6.6099999999999992E-002     5.7462533732177690E-005
  -6.5000000000000002E-002     3.2903539249673486E-004
  -6.3899999999999985E-002     3.6652051494456828E-004
  -6.2799999999999995E-002     6.1306338466238230E-005
  -6.1699999999999991E-002    -3.8605078589171171E-004
  -6.0599999999999994E-002    -5.8096350403502584E-004
  -5.9499999999999990E-002    -2.7607459924183786E-004
  -5.8399999999999994E-002     3.4851350937969983E-004
  -5.7299999999999990E-002     7.6330115552991629E-004
  -5.6199999999999986E-002     5.3096649935469031E-004
  -5.5099999999999996E-002    -2.4879223201423883E-004
  -5.3999999999999992E-002    -9.3217426910996437E-004
  -5.2899999999999989E-002    -8.5486698662862182E-004
  -5.1799999999999985E-002     3.1917581509333104E-005
  -5.0699999999999995E-002     1.0187869193032384E-003
  -4.9599999999999991E-002     1.2087540235370398E-003
  -4.8499999999999988E-002     3.4975266316905618E-004
  -4.7399999999999998E-002    -8.4982230328023434E-004
  -4.6299999999999994E-002    -1.3006922090426087E-003
  -4.5199999999999990E-002    -5.4927781457081437E-004
  -4.4099999999999986E-002     7.1975972969084978E-004
  -4.2999999999999997E-002     1.2517819413915277E-003
  -4.1899999999999993E-002     4.1635183151811361E-004
  -4.0799999999999989E-002    -1.0937063489109278E-003
  -3.9699999999999985E-002    -1.8083177274093032E-003
  -3.8599999999999995E-002    -8.5562380263581872E-004
  -3.7499999999999992E-002     1.1197204003110528E-003
  -3.6399999999999988E-002     2.4466649629175663E-003
  -3.5299999999999984E-002     1.9536206964403391E-003
  -3.4199999999999994E-002     9.2360831331461668E-005
  -3.3099999999999991E-002    -1.4777603792026639E-003
  -3.1999999999999987E-002    -1.5049414942041039E-003
  -3.0899999999999997E-002    -3.7779615377075970E-004
  -2.9799999999999993E-002     3.1159221543930471E-004
  -2.8699999999999989E-002    -4.9088988453149796E-004
  -2.7599999999999986E-002    -2.0243623293936253E-003
  -2.6499999999999996E-002    -2.3279367014765739E-003
  -2.5399999999999992E-002    -2.8674924396909773E-004
  -2.4299999999999988E-002     2.9395145829766989E-003
  -2.3199999999999985E-002     4.7262441366910934E-003
  -2.2099999999999995E-002     3.4536463208496571E-003
  -2.0999999999999991E-002     2.3404408420901746E-004
  -1.9899999999999987E-002    -1.9849115051329136E-003
  -1.8799999999999983E-002    -1.2617682805284858E-003
  -1.7699999999999994E-002     1.3389817904680967E-003
  -1.6599999999999990E-002     2.7589737437665462E-003
  -1.5499999999999986E-002     1.1741316411644220E-003
  -1.4399999999999996E-002    -1.7792921280488372E-003
  -1.3299999999999992E-002    -2.2697348613291979E-003
  -1.2199999999999989E-002     1.9153534667566419E-003
  -1.1099999999999985E-002     8.7408684194087982E-003
  -9.9999999999999950E-003     1.3376182876527309E-002
  -8.8999999999999913E-003     1.2675617821514606E-002
  -7.7999999999999875E-003     8.4025375545024872E-003
  -6.6999999999999837E-003     5.8218217454850674E-003
  -5.5999999999999939E-003     8.7490994483232498E-003
  -4.4999999999999901E-003     1.5836769714951515E-002
  -3.3999999999999864E-003     2.1932151168584824E-002
  -2.2999999999999826E-003     2.3398157209157944E-002
  -1.1999999999999927E-003     2.2165555506944656E-002
  -9.9999999999988987E-005     2.4290567263960838E-002
   1.0000000000000148E-003     3.4195154905319214E-002
   2.1000000000000185E-003     5.0251670181751251E-002
   3.2000000000000084E-003     6.6265560686588287E-002
   4.3000000000000121E-003     7.7568396925926208E-002
   5.4000000000000159E-003     8.5669226944446564E-002
   6.5000000000000058E-003     9.6710227429866791E-002
   7.6000000000000234E-003    0.11526511609554291     
   8.7000000000000133E-003    0.13990885019302368     
   9.8000000000000032E-003    0.16529925167560577     
   1.0900000000000021E-002    0.18872661888599396     
   1.2000000000000011E-002    0.21418926119804382     
   1.3100000000000001E-002    0.24933324754238129     
   1.4200000000000018E-002    0.29808875918388367     
   1.5300000000000008E-002    0.35666811466217041     
   1.6400000000000026E-002    0.41755643486976624     
   1.7500000000000016E-002    0.47774225473403931     
   1.8600000000000005E-002    0.54263979196548462     
   1.9700000000000023E-002    0.62115544080734253     
   2.0800000000000013E-002    0.71668809652328491     
   2.1900000000000003E-002    0.82361656427383423     
   2.3000000000000020E-002    0.93370193243026733     
   2.4100000000000010E-002     1.0462514162063599     
   2.5200000000000000E-002     1.1711788177490234     
   2.6300000000000018E-002     1.3206641674041748     
   2.7400000000000008E-002     1.4971756935119629     
   2.8500000000000025E-002     1.6902827024459839     
   2.9600000000000015E-002     1.8865164518356323     
   3.0700000000000005E-002     2.0833311080932617     
   3.1800000000000023E-002     2.2926640510559082     
   3.2900000000000013E-002     2.5296885967254639     
   3.4000000000000002E-002     2.7971050739288330     
   3.5100000000000020E-002     3.0811717510223389     
   3.6200000000000010E-002     3.3642861843109131     
   3.7300000000000028E-002     3.6420295238494873     
   3.8400000000000017E-002     3.9273235797882080     
   3.9500000000000007E-002     4.2362709045410156     
   4.0600000000000025E-002     4.5695862770080566     
   4.1700000000000015E-002     4.9085474014282227     
   4.2800000000000005E-002     5.2307734489440918     
   4.3900000000000022E-002     5.5302882194519043     
   4.5000000000000012E-002     5.8205380439758301     
   4.6100000000000002E-002     6.1174750328063965     
   4.7200000000000020E-002     6.4176602363586426     
   4.8300000000000010E-002     6.6958360671997070     
   4.9400000000000027E-002     6.9238805770874023     
   5.0500000000000017E-002     7.0954155921936035     
   5.1600000000000007E-002     7.2273936271667480     
   5.2700000000000025E-002     7.3378620147705078     
   5.3800000000000014E-002     7.4205398559570312     
   5.4900000000000004E-002     7.4428582191467285     
   5.6000000000000022E-002     7.3712325096130371     
   5.7100000000000012E-002     7.1989622116088867     
   5.8200000000000002E-002     6.9483399391174316     
   5.9300000000000019E-002     6.6425766944885254     
   6.0400000000000009E-002     6.2774400711059570     
   6.1500000000000027E-002     5.8185954093933105     
   6.2600000000000017E-002     5.2322325706481934     
   6.3700000000000007E-002     4.5164327621459961     
   6.4800000000000024E-002     3.7012958526611328     
   6.5900000000000014E-002     2.8178625106811523     
   6.7000000000000004E-002     1.8625071048736572     
   6.8100000000000022E-002    0.80022579431533813     
   6.9200000000000012E-002   -0.40119624137878418     
   7.0300000000000029E-002    -1.7340071201324463     
   7.1400000000000019E-002    -3.1546552181243896     
   7.2500000000000009E-002    -4.6196179389953613     
   7.3600000000000027E-002    -6.1256065368652344     
   7.4700000000000016E-002    -7.7075061798095703     
   7.5800000000000006E-002    -9.3973875045776367     
   7.6900000000000024E-002    -11.185364723205566     
   7.8000000000000014E-002    -13.019717216491699     
   7.9100000000000004E-002    -14.852653503417969     
   8.0200000000000021E-002    -16.679986953735352     
   8.1300000000000011E-002    -18.536437988281250     
   8.2400000000000029E-002    -20.453540802001953     
   8.3500000000000019E-002    -22.416093826293945     
   8.4600000000000009E-002    -24.372163772583008     
   8.5700000000000026E-002    -26.277370452880859     
   8.6800000000000016E-002    -28.135787963867188     
   8.7900000000000006E-002    -29.994224548339844     
   8.9000000000000024E-002    -31.890487670898438     
   9.0100000000000013E-002    -33.815425872802734     
   9.1200000000000003E-002    -35.715415954589844     
   9.2300000000000021E-002    -37.552436828613281     
   9.3400000000000011E-002    -39.338459014892578     
   9.4500000000000028E-002    -41.130607604980469     
   9.5600000000000018E-002    -42.972614288330078     
   9.6700000000000008E-002    -44.852252960205078     
   9.7800000000000026E-002    -46.714950561523438     
   9.8900000000000016E-002    -48.515808105468750     
  0.10000000000000001         -50.265830993652344     
  0.10110000000000002         -52.014488220214844     
  0.10220000000000001         -53.794555664062500     
  0.10330000000000003         -55.576103210449219     
  0.10440000000000002         -57.283519744873047     
  0.10550000000000001         -58.851829528808594     
  0.10660000000000003         -60.271045684814453     
  0.10770000000000002         -61.565635681152344     
  0.10880000000000001         -62.732067108154297     
  0.10990000000000003         -63.698657989501953     
  0.11100000000000002         -64.346107482910156     
  0.11210000000000001         -64.571914672851562     
  0.11320000000000002         -64.333251953125000     
  0.11430000000000001         -63.624568939208984     
  0.11540000000000003         -62.411548614501953     
  0.11650000000000002         -60.589591979980469     
  0.11760000000000001         -58.013561248779297     
  0.11870000000000003         -54.567073822021484     
  0.11980000000000002         -50.195697784423828     
  0.12090000000000001         -44.886898040771484     
  0.12200000000000003         -38.612766265869141     
  0.12310000000000001         -31.287906646728516     
  0.12420000000000003         -22.805892944335938     
  0.12530000000000002         -13.103050231933594     
  0.12640000000000001         -2.1970663070678711     
  0.12750000000000003          9.8596429824829102     
  0.12860000000000002          23.008056640625000     
  0.12970000000000001          37.233772277832031     
  0.13080000000000003          52.523044586181641     
  0.13190000000000002          68.813262939453125     
  0.13300000000000001          85.950302124023438     
  0.13410000000000000          103.73580932617188     
  0.13520000000000004          121.96448516845703     
  0.13630000000000003          140.46762084960938     
  0.13740000000000002          159.07702636718750     
  0.13850000000000001          177.57489013671875     
  0.13960000000000000          195.68215942382812     
  0.14070000000000005          213.07041931152344     
  0.14180000000000004          229.43565368652344     
  0.14290000000000003          244.50445556640625     
  0.14400000000000002          258.04708862304688     
  0.14510000000000001          269.78927612304688     
  0.14620000000000000          279.43609619140625     
  0.14730000000000004          286.66397094726562     
  0.14840000000000003          291.21844482421875     
  0.14950000000000002          292.92684936523438     
  0.15060000000000001          291.65982055664062     
  0.15170000000000000          287.29855346679688     
  0.15280000000000005          279.70367431640625     
  0.15390000000000004          268.77270507812500     
  0.15500000000000003          254.48704528808594     
  0.15610000000000002          236.94598388671875     
  0.15720000000000001          216.30485534667969     
  0.15830000000000000          192.71849060058594     
  0.15940000000000004          166.35174560546875     
  0.16050000000000003          137.42895507812500     
  0.16160000000000002          106.25894927978516     
  0.16270000000000001          73.237854003906250     
  0.16380000000000000          38.788497924804688     
  0.16490000000000005          3.3165032863616943     
  0.16600000000000004         -32.780498504638672     
  0.16710000000000003         -69.075782775878906     
  0.16820000000000002         -105.07103729248047     
  0.16930000000000001         -140.24644470214844     
  0.17040000000000000         -174.10095214843750     
  0.17150000000000004         -206.21568298339844     
  0.17260000000000003         -236.21626281738281     
  0.17370000000000002         -263.72027587890625     
  0.17480000000000001         -288.34188842773438     
  0.17590000000000000         -309.72085571289062     
  0.17700000000000005         -327.59207153320312     
  0.17810000000000004         -341.77938842773438     
  0.17920000000000003         -352.17864990234375     
  0.18030000000000002         -358.70565795898438     
  0.18140000000000001         -361.29803466796875     
  0.18250000000000000         -359.95315551757812     
  0.18360000000000004         -354.77020263671875     
  0.18470000000000003         -345.93084716796875     
  0.18580000000000002         -333.68869018554688     
  0.18690000000000001         -318.27117919921875     
  0.18800000000000000         -299.94448852539062     
  0.18910000000000005         -279.00924682617188     
  0.19020000000000004         -255.84349060058594     
  0.19130000000000003         -230.85208129882812     
  0.19240000000000002         -204.46275329589844     
  0.19350000000000001         -177.05882263183594     
  0.19460000000000005         -148.99699401855469     
  0.19570000000000004         -120.65145111083984     
  0.19680000000000003         -92.447807312011719     
  0.19790000000000002         -64.779220581054688     
  0.19900000000000001         -37.994396209716797     
  0.20010000000000000         -12.330664634704590     
  0.20120000000000005          11.992502212524414     
  0.20230000000000004          34.734779357910156     
  0.20340000000000003          55.645709991455078     
  0.20450000000000002          74.527015686035156     
  0.20560000000000000          91.277023315429688     
  0.20670000000000005          105.89237213134766     
  0.20780000000000004          118.39699554443359     
  0.20890000000000003          128.77287292480469     
