 -0.12000000000000000          0.0000000000000000     
 -0.11889999999999999          0.0000000000000000     
 -0.11780000000000000          0.0000000000000000     
 -0.11670000000000000          3.4817278385162354E-002
 -0.11559999999999999         0.15294133126735687     
 -0.11449999999999999         0.32966318726539612     
 -0.11340000000000000         0.45284509658813477     
 -0.11230000000000000         0.45894491672515869     
 -0.11119999999999999         0.45196884870529175     
 -0.11009999999999999         0.58467721939086914     
 -0.10900000000000000         0.80129587650299072     
 -0.10790000000000000         0.83513170480728149     
 -0.10679999999999999         0.60270130634307861     
 -0.10569999999999999         0.52007740736007690     
 -0.10460000000000000          1.1518400907516479     
 -0.10349999999999999          2.4132571220397949     
 -0.10239999999999999          3.4038994312286377     
 -0.10130000000000000          3.4981870651245117     
 -0.10020000000000000          3.6134841442108154     
  -9.9099999999999994E-002     5.6366105079650879     
  -9.7999999999999990E-002     9.6654119491577148     
  -9.6899999999999986E-002     11.916070938110352     
  -9.5799999999999996E-002     7.0432686805725098     
  -9.4699999999999993E-002    -5.2528271675109863     
  -9.3599999999999989E-002    -15.335055351257324     
  -9.2499999999999999E-002    -7.7478451728820801     
  -9.1399999999999995E-002     25.319133758544922     
  -9.0299999999999991E-002     71.351364135742188     
  -8.9200000000000002E-002     99.255516052246094     
  -8.8099999999999984E-002     79.597480773925781     
  -8.6999999999999994E-002     10.764949798583984     
  -8.5899999999999990E-002    -70.478843688964844     
  -8.4799999999999986E-002    -106.72063446044922     
  -8.3699999999999997E-002    -57.065666198730469     
  -8.2599999999999993E-002     71.764198303222656     
  -8.1499999999999989E-002     223.26979064941406     
  -8.0399999999999999E-002     320.59393310546875     
  -7.9299999999999995E-002     308.73202514648438     
  -7.8199999999999992E-002     184.15571594238281     
  -7.7100000000000002E-002    -3.0671458244323730     
  -7.5999999999999984E-002    -173.09835815429688     
  -7.4899999999999994E-002    -253.81030273437500     
  -7.3799999999999991E-002    -216.92626953125000     
  -7.2699999999999987E-002    -98.356300354003906     
  -7.1599999999999997E-002     9.7592926025390625     
  -7.0499999999999993E-002   -0.62256491184234619     
  -6.9399999999999989E-002    -194.84942626953125     
  -6.8300000000000000E-002    -551.69165039062500     
  -6.7199999999999996E-002    -968.28656005859375     
  -6.6099999999999992E-002    -1321.0045166015625     
  -6.5000000000000002E-002    -1548.4390869140625     
  -6.3899999999999985E-002    -1700.0444335937500     
  -6.2799999999999995E-002    -1913.2104492187500     
  -6.1699999999999991E-002    -2332.9111328125000     
  -6.0599999999999994E-002    -3031.9060058593750     
  -5.9499999999999990E-002    -3989.3078613281250     
  -5.8399999999999994E-002    -5139.6059570312500     
  -5.7299999999999990E-002    -6450.3217773437500     
  -5.6199999999999986E-002    -7967.7167968750000     
  -5.5099999999999996E-002    -9800.1259765625000     
  -5.3999999999999992E-002    -12059.486328125000     
  -5.2899999999999989E-002    -14812.097656250000     
  -5.1799999999999985E-002    -18077.066406250000     
  -5.0699999999999995E-002    -21870.990234375000     
  -4.9599999999999991E-002    -26263.757812500000     
  -4.8499999999999988E-002    -31406.406250000000     
  -4.7399999999999998E-002    -37514.894531250000     
  -4.6299999999999994E-002    -44823.382812500000     
  -4.5199999999999990E-002    -53534.500000000000     
  -4.4099999999999986E-002    -63795.781250000000     
  -4.2999999999999997E-002    -75709.570312500000     
  -4.1899999999999993E-002    -89375.921875000000     
  -4.0799999999999989E-002    -104945.76562500000     
  -3.9699999999999985E-002    -122663.50000000000     
  -3.8599999999999995E-002    -142876.28125000000     
  -3.7499999999999992E-002    -166007.25000000000     
  -3.6399999999999988E-002    -192495.56250000000     
  -3.5299999999999984E-002    -222735.00000000000     
  -3.4199999999999994E-002    -257035.32812500000     
  -3.3099999999999991E-002    -295629.81250000000     
  -3.1999999999999987E-002    -338735.34375000000     
  -3.0899999999999997E-002    -386631.59375000000     
  -2.9799999999999993E-002    -439715.65625000000     
  -2.8699999999999989E-002    -498486.09375000000     
  -2.7599999999999986E-002    -563453.68750000000     
  -2.6499999999999996E-002    -635024.50000000000     
  -2.5399999999999992E-002    -713440.00000000000     
  -2.4299999999999988E-002    -798812.62500000000     
  -2.3199999999999985E-002    -891237.18750000000     
  -2.2099999999999995E-002    -990868.75000000000     
  -2.0999999999999991E-002    -1097897.0000000000     
  -1.9899999999999987E-002    -1212418.5000000000     
  -1.8799999999999983E-002    -1334304.8750000000     
  -1.7699999999999994E-002    -1463177.5000000000     
  -1.6599999999999990E-002    -1598497.0000000000     
  -1.5499999999999986E-002    -1739689.7500000000     
  -1.4399999999999996E-002    -1886163.6250000000     
  -1.3299999999999992E-002    -2037172.7500000000     
  -1.2199999999999989E-002    -2191690.0000000000     
  -1.1099999999999985E-002    -2348362.0000000000     
  -9.9999999999999950E-003    -2505609.0000000000     
  -8.8999999999999913E-003    -2661767.0000000000     
  -7.7999999999999875E-003    -2815126.5000000000     
  -6.6999999999999837E-003    -2963772.5000000000     
  -5.5999999999999939E-003    -3105452.5000000000     
  -4.4999999999999901E-003    -3237553.2500000000     
  -3.3999999999999864E-003    -3357266.0000000000     
  -2.2999999999999826E-003    -3461834.2500000000     
  -1.1999999999999927E-003    -3548627.2500000000     
  -9.9999999999988987E-005    -3614987.7500000000     
   1.0000000000000148E-003    -3658021.7500000000     
   2.1000000000000185E-003    -3674649.7500000000     
   3.2000000000000084E-003    -3661796.0000000000     
   4.3000000000000121E-003    -3616593.5000000000     
   5.4000000000000159E-003    -3536604.0000000000     
   6.5000000000000058E-003    -3419607.7500000000     
   7.6000000000000234E-003    -3263551.5000000000     
   8.7000000000000133E-003    -3066420.0000000000     
   9.8000000000000032E-003    -2826618.5000000000     
   1.0900000000000021E-002    -2543238.0000000000     
   1.2000000000000011E-002    -2215994.2500000000     
   1.3100000000000001E-002    -1845289.0000000000     
   1.4200000000000018E-002    -1431867.0000000000     
   1.5300000000000008E-002    -976917.87500000000     
   1.6400000000000026E-002    -482139.68750000000     
   1.7500000000000016E-002     49785.601562500000     
   1.8600000000000005E-002     615352.68750000000     
   1.9700000000000023E-002     1210310.1250000000     
   2.0800000000000013E-002     1830037.6250000000     
   2.1900000000000003E-002     2469474.5000000000     
   2.3000000000000020E-002     3122967.7500000000     
   2.4100000000000010E-002     3784218.5000000000     
   2.5200000000000000E-002     4446211.0000000000     
   2.6300000000000018E-002     5101662.0000000000     
   2.7400000000000008E-002     5743254.5000000000     
   2.8500000000000025E-002     6363752.5000000000     
   2.9600000000000015E-002     6955847.5000000000     
   3.0700000000000005E-002     7512009.0000000000     
   3.1800000000000023E-002     8024652.0000000000     
   3.2900000000000013E-002     8486610.0000000000     
   3.4000000000000002E-002     8891453.0000000000     
   3.5100000000000020E-002     9233591.0000000000     
   3.6200000000000010E-002     9507935.0000000000     
   3.7300000000000028E-002     9709943.0000000000     
   3.8400000000000017E-002     9835576.0000000000     
   3.9500000000000007E-002     9881782.0000000000     
   4.0600000000000025E-002     9846799.0000000000     
   4.1700000000000015E-002     9730208.0000000000     
   4.2800000000000005E-002     9532588.0000000000     
   4.3900000000000022E-002     9255234.0000000000     
   4.5000000000000012E-002     8900350.0000000000     
   4.6100000000000002E-002     8471058.0000000000     
   4.7200000000000020E-002     7971831.0000000000     
   4.8300000000000010E-002     7408248.0000000000     
   4.9400000000000027E-002     6786681.0000000000     
   5.0500000000000017E-002     6113929.5000000000     
   5.1600000000000007E-002     5397321.0000000000     
   5.2700000000000025E-002     4644694.0000000000     
   5.3800000000000014E-002     3864468.0000000000     
   5.4900000000000004E-002     3065399.5000000000     
   5.6000000000000022E-002     2256402.5000000000     
   5.7100000000000012E-002     1446165.3750000000     
   5.8200000000000002E-002     643095.81250000000     
   5.9300000000000019E-002    -144555.10937500000     
   6.0400000000000009E-002    -908875.62500000000     
   6.1500000000000027E-002    -1642446.8750000000     
   6.2600000000000017E-002    -2338450.7500000000     
   6.3700000000000007E-002    -2990800.2500000000     
   6.4800000000000024E-002    -3594194.7500000000     
   6.5900000000000014E-002    -4144086.0000000000     
   6.7000000000000004E-002    -4636871.0000000000     
   6.8100000000000022E-002    -5069857.5000000000     
   6.9200000000000012E-002    -5441262.0000000000     
   7.0300000000000029E-002    -5750037.0000000000     
   7.1400000000000019E-002    -5995875.5000000000     
   7.2500000000000009E-002    -6179169.0000000000     
   7.3600000000000027E-002    -6301340.0000000000     
   7.4700000000000016E-002    -6364728.5000000000     
   7.5800000000000006E-002    -6372324.5000000000     
   7.6900000000000024E-002    -6327438.0000000000     
   7.8000000000000014E-002    -6233567.0000000000     
   7.9100000000000004E-002    -6094422.0000000000     
   8.0200000000000021E-002    -5914398.0000000000     
   8.1300000000000011E-002    -5698471.0000000000     
   8.2400000000000029E-002    -5451894.0000000000     
   8.3500000000000019E-002    -5179688.0000000000     
   8.4600000000000009E-002    -4886364.5000000000     
   8.5700000000000026E-002    -4576142.0000000000     
   8.6800000000000016E-002    -4253336.0000000000     
   8.7900000000000006E-002    -3922548.7500000000     
   8.9000000000000024E-002    -3588428.5000000000     
   9.0100000000000013E-002    -3255041.7500000000     
   9.1200000000000003E-002    -2925616.0000000000     
   9.2300000000000021E-002    -2602770.0000000000     
   9.3400000000000011E-002    -2288960.0000000000     
   9.4500000000000028E-002    -1986840.0000000000     
   9.5600000000000018E-002    -1698757.7500000000     
   9.6700000000000008E-002    -1426648.5000000000     
   9.7800000000000026E-002    -1171589.1250000000     
   9.8900000000000016E-002    -934181.00000000000     
  0.10000000000000001         -714757.56250000000     
  0.10110000000000002         -513810.93750000000     
  0.10220000000000001         -331669.31250000000     
  0.10330000000000003         -168210.85937500000     
  0.10440000000000002         -22942.830078125000     
  0.10550000000000001          104935.21875000000     
  0.10660000000000003          216164.09375000000     
  0.10770000000000002          311474.78125000000     
  0.10880000000000001          391662.81250000000     
  0.10990000000000003          457867.37500000000     
  0.11100000000000002          511379.75000000000     
  0.11210000000000001          553421.12500000000     
  0.11320000000000002          584867.06250000000     
  0.11430000000000001          606497.12500000000     
  0.11540000000000003          619309.12500000000     
  0.11650000000000002          624683.37500000000     
  0.11760000000000001          624043.37500000000     
  0.11870000000000003          618384.56250000000     
  0.11980000000000002          608192.37500000000     
  0.12090000000000001          593756.93750000000     
  0.12200000000000003          575692.56250000000     
  0.12310000000000001          555124.37500000000     
  0.12420000000000003          533249.50000000000     
  0.12530000000000002          510724.81250000000     
  0.12640000000000001          487524.93750000000     
  0.12750000000000003          463389.87500000000     
  0.12860000000000002          438501.40625000000     
  0.12970000000000001          413642.84375000000     
  0.13080000000000003          389772.78125000000     
  0.13190000000000002          367310.25000000000     
  0.13300000000000001          345938.18750000000     
  0.13410000000000000          325073.90625000000     
  0.13520000000000004          304530.62500000000     
  0.13630000000000003          284732.53125000000     
  0.13740000000000002          266348.12500000000     
  0.13850000000000001          249631.01562500000     
  0.13960000000000000          234235.62500000000     
  0.14070000000000005          219584.34375000000     
  0.14180000000000004          205441.53125000000     
  0.14290000000000003          192084.28125000000     
  0.14400000000000002          179880.54687500000     
  0.14510000000000001          168884.85937500000     
  0.14620000000000000          158769.65625000000     
  0.14730000000000004          149173.98437500000     
  0.14840000000000003          140054.62500000000     
  0.14950000000000002          131637.31250000000     
  0.15060000000000001          124061.39062500000     
  0.15170000000000000          117127.92968750000     
  0.15280000000000005          110486.10156250000     
  0.15390000000000004          103987.22656250000     
  0.15500000000000003          97880.781250000000     
  0.15610000000000002          92504.265625000000     
  0.15720000000000001          87866.695312500000     
  0.15830000000000000          83544.414062500000     
  0.15940000000000004          79081.226562500000     
  0.16050000000000003          74504.234375000000     
  0.16160000000000002          70313.671875000000     
  0.16270000000000001          66972.250000000000     
  0.16380000000000000          64356.371093750000     
  0.16490000000000005          61802.605468750000     
  0.16600000000000004          58740.238281250000     
  0.16710000000000003          55291.253906250000     
  0.16820000000000002          52171.417968750000     
  0.16930000000000001          49981.808593750000     
  0.17040000000000000          48560.398437500000     
  0.17150000000000004          47097.484375000000     
  0.17260000000000003          44916.222656250000     
  0.17370000000000002          42156.550781250000     
  0.17480000000000001          39649.925781250000     
  0.17590000000000000          38092.046875000000     
  0.17700000000000005          37332.953125000000     
  0.17810000000000004          36504.843750000000     
  0.17920000000000003          34899.054687500000     
  0.18030000000000002          32656.080078125000     
  0.18140000000000001          30609.589843750000     
  0.18250000000000000          29437.548828125000     
  0.18360000000000004          28985.050781250000     
  0.18470000000000003          28440.482421875000     
  0.18580000000000002          27181.388671875000     
  0.18690000000000001          25393.505859375000     
  0.18800000000000000          23859.822265625000     
  0.18910000000000005          23143.558593750000     
  0.19020000000000004          23030.894531250000     
  0.19130000000000003          22780.917968750000     
  0.19240000000000002          21909.125000000000     
  0.19350000000000001          20665.476562500000     
  0.19460000000000005          19719.453125000000     
  0.19570000000000004          19409.929687500000     
  0.19680000000000003          19382.759765625000     
  0.19790000000000002          18988.113281250000     
  0.19900000000000001          18002.550781250000     
  0.20010000000000000          16884.935546875000     
  0.20120000000000005          16284.168945312500     
  0.20230000000000004          16326.880859375000     
  0.20340000000000003          16454.007812500000     
  0.20450000000000002          15999.564453125000     
  0.20560000000000000          14893.118164062500     
  0.20670000000000005          13751.389648437500     
  0.20780000000000004          13225.643554687500     
  0.20890000000000003          13314.011718750000     
