 -0.12000000000000000          0.0000000000000000     
 -0.11889999999999999          0.0000000000000000     
 -0.11780000000000000          0.0000000000000000     
 -0.11670000000000000          0.0000000000000000     
 -0.11559999999999999          0.0000000000000000     
 -0.11449999999999999          0.0000000000000000     
 -0.11340000000000000         -1.0343094913878303E-007
 -0.11230000000000000         -6.3321351717604557E-007
 -0.11119999999999999         -1.3005106893615448E-006
 -0.11009999999999999          1.2670184332819190E-006
 -0.10900000000000000          1.3957955161458813E-005
 -0.10790000000000000          3.6631929106079042E-005
 -0.10679999999999999          3.8925802073208615E-005
 -0.10569999999999999         -4.8804755351739004E-005
 -0.10460000000000000         -2.7805697754956782E-004
 -0.10349999999999999         -5.4094719234853983E-004
 -0.10239999999999999         -4.5316477189771831E-004
 -0.10130000000000000          5.0223030848428607E-004
 -0.10020000000000000          2.4046157486736774E-003
  -9.9099999999999994E-002     4.1443840600550175E-003
  -9.7999999999999990E-002     3.2920984085649252E-003
  -9.6899999999999986E-002    -2.5043187197297812E-003
  -9.5799999999999996E-002    -1.2632055208086967E-002
  -9.4699999999999993E-002    -2.1012987941503525E-002
  -9.3599999999999989E-002    -1.7217362299561501E-002
  -9.2499999999999999E-002     6.7202635109424591E-003
  -9.1399999999999995E-002     4.6108417212963104E-002
  -9.0299999999999991E-002     7.7782966196537018E-002
  -8.9200000000000002E-002     6.7800782620906830E-002
  -8.8099999999999984E-002    -5.2241873927414417E-003
  -8.6999999999999994E-002   -0.12282878905534744     
  -8.5899999999999990E-002   -0.21817769110202789     
  -8.4799999999999986E-002   -0.20472931861877441     
  -8.3699999999999997E-002    -3.6535061895847321E-002
  -8.2599999999999993E-002    0.23628026247024536     
  -8.1499999999999989E-002    0.46543049812316895     
  -8.0399999999999999E-002    0.47836166620254517     
  -7.9299999999999995E-002    0.19527572393417358     
  -7.8199999999999992E-002   -0.28911361098289490     
  -7.7100000000000002E-002   -0.72978812456130981     
  -7.5999999999999984E-002   -0.86392545700073242     
  -7.4899999999999994E-002   -0.57092213630676270     
  -7.3799999999999991E-002     4.9416650086641312E-002
  -7.2699999999999987E-002    0.73213475942611694     
  -7.1599999999999997E-002     1.1868089437484741     
  -7.0499999999999993E-002     1.2178338766098022     
  -6.9399999999999989E-002    0.76406127214431763     
  -6.8300000000000000E-002   -0.10851809382438660     
  -6.7199999999999996E-002    -1.1879639625549316     
  -6.6099999999999992E-002    -2.0733864307403564     
  -6.5000000000000002E-002    -2.2256324291229248     
  -6.3899999999999985E-002    -1.2300969362258911     
  -6.2799999999999995E-002    0.79861092567443848     
  -6.1699999999999991E-002     2.9846403598785400     
  -6.0599999999999994E-002     3.9774625301361084     
  -5.9499999999999990E-002     2.7745416164398193     
  -5.8399999999999994E-002   -0.40487083792686462     
  -5.7299999999999990E-002    -3.9160320758819580     
  -5.6199999999999986E-002    -5.5251731872558594     
  -5.5099999999999996E-002    -3.8751542568206787     
  -5.3999999999999992E-002    0.43536928296089172     
  -5.2899999999999989E-002     5.0297431945800781     
  -5.1799999999999985E-002     7.1713361740112305     
  -5.0699999999999995E-002     5.4521274566650391     
  -4.9599999999999991E-002    0.57038104534149170     
  -4.8499999999999988E-002    -5.2472138404846191     
  -4.7399999999999998E-002    -9.5677576065063477     
  -4.6299999999999994E-002    -10.761412620544434     
  -4.5199999999999990E-002    -8.1674318313598633     
  -4.4099999999999986E-002    -1.8182096481323242     
  -4.2999999999999997E-002     7.5101065635681152     
  -4.1899999999999993E-002     17.751867294311523     
  -4.0799999999999989E-002     25.290777206420898     
  -3.9699999999999985E-002     25.981866836547852     
  -3.8599999999999995E-002     17.496810913085938     
  -3.7499999999999992E-002     1.6311931610107422     
  -3.6399999999999988E-002    -15.312647819519043     
  -3.5299999999999984E-002    -24.932825088500977     
  -3.4199999999999994E-002    -20.893566131591797     
  -3.3099999999999991E-002    -2.5110316276550293     
  -3.1999999999999987E-002     24.317125320434570     
  -3.0899999999999997E-002     49.381172180175781     
  -2.9799999999999993E-002     62.522514343261719     
  -2.8699999999999989E-002     58.146327972412109     
  -2.7599999999999986E-002     37.964782714843750     
  -2.6499999999999996E-002     10.553055763244629     
  -2.5399999999999992E-002    -12.792816162109375     
  -2.4299999999999988E-002    -24.825841903686523     
  -2.3199999999999985E-002    -28.643577575683594     
  -2.2099999999999995E-002    -39.299686431884766     
  -2.0999999999999991E-002    -78.120338439941406     
  -1.9899999999999987E-002    -161.50215148925781     
  -1.8799999999999983E-002    -290.66064453125000     
  -1.7699999999999994E-002    -449.81552124023438     
  -1.6599999999999990E-002    -615.70373535156250     
  -1.5499999999999986E-002    -773.54901123046875     
  -1.4399999999999996E-002    -929.38842773437500     
  -1.3299999999999992E-002    -1110.3546142578125     
  -1.2199999999999989E-002    -1352.6881103515625     
  -1.1099999999999985E-002    -1685.8452148437500     
  -9.9999999999999950E-003    -2123.6975097656250     
  -8.8999999999999913E-003    -2668.4636230468750     
  -7.7999999999999875E-003    -3323.9487304687500     
  -6.6999999999999837E-003    -4108.8720703125000     
  -5.5999999999999939E-003    -5061.7509765625000     
  -4.4999999999999901E-003    -6235.5688476562500     
  -3.3999999999999864E-003    -7686.7329101562500     
  -2.2999999999999826E-003    -9465.6357421875000     
  -1.1999999999999927E-003    -11614.649414062500     
  -9.9999999999988987E-005    -14174.756835937500     
   1.0000000000000148E-003    -17198.244140625000     
   2.1000000000000185E-003    -20761.640625000000     
   3.2000000000000084E-003    -24972.230468750000     
   4.3000000000000121E-003    -29964.697265625000     
   5.4000000000000159E-003    -35887.265625000000     
   6.5000000000000058E-003    -42887.156250000000     
   7.6000000000000234E-003    -51103.804687500000     
   8.7000000000000133E-003    -60677.796875000000     
   9.8000000000000032E-003    -71769.906250000000     
   1.0900000000000021E-002    -84578.765625000000     
   1.2000000000000011E-002    -99344.242187500000     
   1.3100000000000001E-002    -116336.12500000000     
   1.4200000000000018E-002    -135834.50000000000     
   1.5300000000000008E-002    -158120.01562500000     
   1.6400000000000026E-002    -183477.12500000000     
   1.7500000000000016E-002    -212206.60937500000     
   1.8600000000000005E-002    -244635.17187500000     
   1.9700000000000023E-002    -281110.40625000000     
   2.0800000000000013E-002    -321985.53125000000     
   2.1900000000000003E-002    -367610.25000000000     
   2.3000000000000020E-002    -418322.37500000000     
   2.4100000000000010E-002    -474454.31250000000     
   2.5200000000000000E-002    -536331.75000000000     
   2.6300000000000018E-002    -604270.93750000000     
   2.7400000000000008E-002    -678556.06250000000     
   2.8500000000000025E-002    -759415.12500000000     
   2.9600000000000015E-002    -847006.75000000000     
   3.0700000000000005E-002    -941410.00000000000     
   3.1800000000000023E-002    -1042622.5000000000     
   3.2900000000000013E-002    -1150560.6250000000     
   3.4000000000000002E-002    -1265062.1250000000     
   3.5100000000000020E-002    -1385870.8750000000     
   3.6200000000000010E-002    -1512605.3750000000     
   3.7300000000000028E-002    -1644737.8750000000     
   3.8400000000000017E-002    -1781547.6250000000     
   3.9500000000000007E-002    -1922087.7500000000     
   4.0600000000000025E-002    -2065206.8750000000     
   4.1700000000000015E-002    -2209598.2500000000     
   4.2800000000000005E-002    -2353820.2500000000     
   4.3900000000000022E-002    -2496304.0000000000     
   4.5000000000000012E-002    -2635309.7500000000     
   4.6100000000000002E-002    -2768906.0000000000     
   4.7200000000000020E-002    -2894893.2500000000     
   4.8300000000000010E-002    -3010858.0000000000     
   4.9400000000000027E-002    -3114246.0000000000     
   5.0500000000000017E-002    -3202411.0000000000     
   5.1600000000000007E-002    -3272694.0000000000     
   5.2700000000000025E-002    -3322403.2500000000     
   5.3800000000000014E-002    -3348807.7500000000     
   5.4900000000000004E-002    -3349227.0000000000     
   5.6000000000000022E-002    -3320987.5000000000     
   5.7100000000000012E-002    -3261503.7500000000     
   5.8200000000000002E-002    -3168323.5000000000     
   5.9300000000000019E-002    -3039272.0000000000     
   6.0400000000000009E-002    -2872505.2500000000     
   6.1500000000000027E-002    -2666571.5000000000     
   6.2600000000000017E-002    -2420435.2500000000     
   6.3700000000000007E-002    -2133395.5000000000     
   6.4800000000000024E-002    -1805291.3750000000     
   6.5900000000000014E-002    -1436435.0000000000     
   6.7000000000000004E-002    -1027728.3125000000     
   6.8100000000000022E-002    -580674.93750000000     
   6.9200000000000012E-002    -97528.476562500000     
   7.0300000000000029E-002     418856.40625000000     
   7.1400000000000019E-002     964980.81250000000     
   7.2500000000000009E-002     1536782.8750000000     
   7.3600000000000027E-002     2129616.7500000000     
   7.4700000000000016E-002     2738327.7500000000     
   7.5800000000000006E-002     3357145.0000000000     
   7.6900000000000024E-002     3979850.2500000000     
   7.8000000000000014E-002     4599813.0000000000     
   7.9100000000000004E-002     5210161.5000000000     
   8.0200000000000021E-002     5803837.0000000000     
   8.1300000000000011E-002     6373671.5000000000     
   8.2400000000000029E-002     6912504.5000000000     
   8.3500000000000019E-002     7413293.5000000000     
   8.4600000000000009E-002     7869243.0000000000     
   8.5700000000000026E-002     8273920.0000000000     
   8.6800000000000016E-002     8621380.0000000000     
   8.7900000000000006E-002     8906209.0000000000     
   8.9000000000000024E-002     9123677.0000000000     
   9.0100000000000013E-002     9269823.0000000000     
   9.1200000000000003E-002     9341554.0000000000     
   9.2300000000000021E-002     9336685.0000000000     
   9.3400000000000011E-002     9253977.0000000000     
   9.4500000000000028E-002     9093174.0000000000     
   9.5600000000000018E-002     8855070.0000000000     
   9.6700000000000008E-002     8541483.0000000000     
   9.7800000000000026E-002     8155299.0000000000     
   9.8900000000000016E-002     7700325.0000000000     
  0.10000000000000001          7181283.5000000000     
  0.10110000000000002          6603711.0000000000     
  0.10220000000000001          5973834.5000000000     
  0.10330000000000003          5298609.0000000000     
  0.10440000000000002          4585574.5000000000     
  0.10550000000000001          3842703.0000000000     
  0.10660000000000003          3078218.5000000000     
  0.10770000000000002          2300519.7500000000     
  0.10880000000000001          1518056.7500000000     
  0.10990000000000003          739158.81250000000     
  0.11100000000000002         -27994.767578125000     
  0.11210000000000001         -775545.12500000000     
  0.11320000000000002         -1496101.2500000000     
  0.11430000000000001         -2182888.7500000000     
  0.11540000000000003         -2829781.0000000000     
  0.11650000000000002         -3431360.7500000000     
  0.11760000000000001         -3982885.0000000000     
  0.11870000000000003         -4480418.0000000000     
  0.11980000000000002         -4920893.0000000000     
  0.12090000000000001         -5302121.5000000000     
  0.12200000000000003         -5622781.0000000000     
  0.12310000000000001         -5882426.0000000000     
  0.12420000000000003         -6081343.0000000000     
  0.12530000000000002         -6220589.5000000000     
  0.12640000000000001         -6301873.5000000000     
  0.12750000000000003         -6327563.0000000000     
  0.12860000000000002         -6300594.0000000000     
  0.12970000000000001         -6224454.0000000000     
  0.13080000000000003         -6103048.0000000000     
  0.13190000000000002         -5940571.0000000000     
  0.13300000000000001         -5741393.0000000000     
  0.13410000000000000         -5510040.5000000000     
  0.13520000000000004         -5251132.5000000000     
  0.13630000000000003         -4969329.5000000000     
  0.13740000000000002         -4669257.5000000000     
  0.13850000000000001         -4355415.5000000000     
  0.13960000000000000         -4032068.0000000000     
  0.14070000000000005         -3703212.7500000000     
  0.14180000000000004         -3372598.7500000000     
  0.14290000000000003         -3043704.0000000000     
  0.14400000000000002         -2719706.7500000000     
  0.14510000000000001         -2403445.0000000000     
  0.14620000000000000         -2097357.7500000000     
  0.14730000000000004         -1803494.3750000000     
  0.14840000000000003         -1523561.1250000000     
  0.14950000000000002         -1258974.2500000000     
  0.15060000000000001         -1010870.0625000000     
  0.15170000000000000         -780073.75000000000     
  0.15280000000000005         -567084.62500000000     
  0.15390000000000004         -372092.93750000000     
  0.15500000000000003         -195050.31250000000     
  0.15610000000000002         -35737.890625000000     
  0.15720000000000001          106205.35156250000     
  0.15830000000000000          231309.71875000000     
  0.15940000000000004          340252.00000000000     
  0.16050000000000003          433833.18750000000     
  0.16160000000000002          512939.68750000000     
  0.16270000000000001          578499.50000000000     
  0.16380000000000000          631485.93750000000     
  0.16490000000000005          672915.12500000000     
  0.16600000000000004          703821.50000000000     
  0.16710000000000003          725223.68750000000     
  0.16820000000000002          738082.25000000000     
  0.16930000000000001          743306.50000000000     
  0.17040000000000000          741802.75000000000     
  0.17150000000000004          734493.37500000000     
  0.17260000000000003          722298.68750000000     
  0.17370000000000002          706050.81250000000     
  0.17480000000000001          686454.18750000000     
  0.17590000000000000          664086.75000000000     
  0.17700000000000005          639501.81250000000     
  0.17810000000000004          613295.68750000000     
  0.17920000000000003          586090.00000000000     
  0.18030000000000002          558433.68750000000     
  0.18140000000000001          530710.50000000000     
  0.18250000000000000          503144.68750000000     
  0.18360000000000004          475922.87500000000     
  0.18470000000000003          449309.00000000000     
  0.18580000000000002          423648.50000000000     
  0.18690000000000001          399249.96875000000     
  0.18800000000000000          376254.12500000000     
  0.18910000000000005          354634.12500000000     
  0.19020000000000004          334295.28125000000     
  0.19130000000000003          315237.59375000000     
  0.19240000000000002          297579.65625000000     
  0.19350000000000001          281453.59375000000     
  0.19460000000000005          266869.31250000000     
  0.19570000000000004          253667.31250000000     
  0.19680000000000003          241627.00000000000     
  0.19790000000000002          230609.39062500000     
  0.19900000000000001          220594.32812500000     
  0.20010000000000000          211609.57812500000     
  0.20120000000000005          203602.29687500000     
  0.20230000000000004          196426.73437500000     
  0.20340000000000003          189891.21875000000     
  0.20450000000000002          183853.01562500000     
  0.20560000000000000          178236.67187500000     
  0.20670000000000005          172976.78125000000     
  0.20780000000000004          167956.31250000000     
  0.20890000000000003          163043.17187500000     
