 -0.12000000000000000          0.0000000000000000     
 -0.11889999999999999          0.0000000000000000     
 -0.11780000000000000          0.0000000000000000     
 -0.11670000000000000          0.0000000000000000     
 -0.11559999999999999          0.0000000000000000     
 -0.11449999999999999          0.0000000000000000     
 -0.11340000000000000          0.0000000000000000     
 -0.11230000000000000          0.0000000000000000     
 -0.11119999999999999          0.0000000000000000     
 -0.11009999999999999          0.0000000000000000     
 -0.10900000000000000          4.9195650590763816E-023
 -0.10790000000000000          2.2611131598391761E-016
 -0.10679999999999999          2.7311351304023764E-015
 -0.10569999999999999          1.2513482851100270E-014
 -0.10460000000000000          1.4490858396575858E-014
 -0.10349999999999999         -1.1129424747242933E-013
 -0.10239999999999999         -6.0279868119642033E-013
 -0.10130000000000000         -1.1653203358871767E-012
 -0.10020000000000000          7.2401031567595475E-013
  -9.9099999999999994E-002     9.8707014783983027E-012
  -9.7999999999999990E-002     2.4362846809400374E-011
  -9.6899999999999986E-002     1.5776026318636838E-011
  -9.5799999999999996E-002    -7.2356780289606348E-011
  -9.4699999999999993E-002    -2.4652982433259751E-010
  -9.3599999999999989E-002    -3.0360114422478546E-010
  -9.2499999999999999E-002     1.9664847528133578E-010
  -9.1399999999999995E-002     1.4447988361254716E-009
  -9.0299999999999991E-002     2.4075492710551316E-009
  -8.9200000000000002E-002     5.7960070076745751E-010
  -8.8099999999999984E-002    -5.5939612941813266E-009
  -8.6999999999999994E-002    -1.1874795369237745E-008
  -8.5899999999999990E-002    -6.7301852979539944E-009
  -8.4799999999999986E-002     1.8212148233942571E-008
  -8.3699999999999997E-002     4.7044046880273527E-008
  -8.2599999999999993E-002     3.1896458807523231E-008
  -8.1499999999999989E-002    -6.6261137021683680E-008
  -8.0399999999999999E-002    -1.9209957713428594E-007
  -7.9299999999999995E-002    -1.5630530469934456E-007
  -7.8199999999999992E-002     2.2335679261686892E-007
  -7.7100000000000002E-002     7.9746149594939197E-007
  -7.5999999999999984E-002     8.8035596945701400E-007
  -7.4899999999999994E-002    -3.4649175972845114E-007
  -7.3799999999999991E-002    -2.7172447971679503E-006
  -7.2699999999999987E-002    -4.1346474972669967E-006
  -7.1599999999999997E-002    -1.4127698477750528E-006
  -7.0499999999999993E-002     6.3740394580236170E-006
  -6.9399999999999989E-002     1.4204454600985628E-005
  -6.8300000000000000E-002     1.1897836884600110E-005
  -6.7199999999999996E-002    -7.3937412707891781E-006
  -6.6099999999999992E-002    -3.5244556784164160E-005
  -6.5000000000000002E-002    -4.5197197323432192E-005
  -6.3899999999999985E-002    -1.0577972716419026E-005
  -6.2799999999999995E-002     6.2886778323445469E-005
  -6.1699999999999991E-002     1.1883760453201830E-004
  -6.0599999999999994E-002     7.9981306043919176E-005
  -5.9499999999999990E-002    -7.5218813435640186E-005
  -5.8399999999999994E-002    -2.4808489251881838E-004
  -5.7299999999999990E-002    -2.5327413459308445E-004
  -5.6199999999999986E-002     2.3356458768830635E-005
  -5.5099999999999996E-002     4.4679810525849462E-004
  -5.3999999999999992E-002     6.2981812516227365E-004
  -5.2899999999999989E-002     2.1763391850981861E-004
  -5.1799999999999985E-002    -6.9102382985875010E-004
  -5.0699999999999995E-002    -1.3845389476045966E-003
  -4.9599999999999991E-002    -9.7253307467326522E-004
  -4.8499999999999988E-002     7.3548668297007680E-004
  -4.7399999999999998E-002     2.6342561468482018E-003
  -4.6299999999999994E-002     2.8147972188889980E-003
  -4.5199999999999990E-002     1.7841671069618315E-004
  -4.4099999999999986E-002    -3.9933482185006142E-003
  -4.2999999999999997E-002    -6.2061063945293427E-003
  -4.1899999999999993E-002    -3.3094894606620073E-003
  -4.0799999999999989E-002     4.1252304799854755E-003
  -3.9699999999999985E-002     1.0740056633949280E-002
  -3.8599999999999995E-002     9.7334049642086029E-003
  -3.7499999999999992E-002    -9.5301982946693897E-004
  -3.6399999999999988E-002    -1.4717963524162769E-002
  -3.5299999999999984E-002    -1.9485937431454659E-002
  -3.4199999999999994E-002    -7.5050909072160721E-003
  -3.3099999999999991E-002     1.5552948229014874E-002
  -3.1999999999999987E-002     3.1441204249858856E-002
  -3.0899999999999997E-002     2.2740408778190613E-002
  -2.9799999999999993E-002    -1.0094770230352879E-002
  -2.8699999999999989E-002    -4.3476752936840057E-002
  -2.7599999999999986E-002    -4.6052187681198120E-002
  -2.6499999999999996E-002    -6.2035359442234039E-003
  -2.5399999999999992E-002     5.1121715456247330E-002
  -2.4299999999999988E-002     7.7453009784221649E-002
  -2.3199999999999985E-002     3.9716754108667374E-002
  -2.2099999999999995E-002    -4.4741436839103699E-002
  -2.0999999999999991E-002   -0.11103562265634537     
  -1.9899999999999987E-002    -9.4500139355659485E-002
  -1.8799999999999983E-002     1.0083175264298916E-002
  -1.7699999999999994E-002    0.12989743053913116     
  -1.6599999999999990E-002    0.16248576343059540     
  -1.5499999999999986E-002     6.1408992856740952E-002
  -1.4399999999999996E-002   -0.11107515543699265     
  -1.3299999999999992E-002   -0.21858167648315430     
  -1.2199999999999989E-002   -0.15773710608482361     
  -1.1099999999999985E-002     4.5257717370986938E-002
  -9.9999999999999950E-003    0.23680706322193146     
  -8.8999999999999913E-003    0.25094535946846008     
  -7.7999999999999875E-003     5.2488863468170166E-002
  -6.6999999999999837E-003   -0.21425767242908478     
  -5.5999999999999939E-003   -0.32737416028976440     
  -4.4999999999999901E-003   -0.17016676068305969     
  -3.3999999999999864E-003    0.15496352314949036     
  -2.2999999999999826E-003    0.38909813761711121     
  -1.1999999999999927E-003    0.32125240564346313     
  -9.9999999999988987E-005    -2.6872990652918816E-002
   1.0000000000000148E-003   -0.39615684747695923     
   2.1000000000000185E-003   -0.48530897498130798     
   3.2000000000000084E-003   -0.19704218208789825     
   4.3000000000000121E-003    0.26762175559997559     
   5.4000000000000159E-003    0.55444502830505371     
   6.5000000000000058E-003    0.43286192417144775     
   7.6000000000000234E-003    -1.6182802617549896E-002
   8.7000000000000133E-003   -0.45572406053543091     
   9.8000000000000032E-003   -0.55123931169509888     
   1.0900000000000021E-002   -0.22874963283538818     
   1.2000000000000011E-002    0.26895332336425781     
   1.3100000000000001E-002    0.56755411624908447     
   1.4200000000000018E-002    0.44050157070159912     
   1.5300000000000008E-002    -2.8783103451132774E-002
   1.6400000000000026E-002   -0.51286780834197998     
   1.7500000000000016E-002   -0.67278397083282471     
   1.8600000000000005E-002   -0.38578158617019653     
   1.9700000000000023E-002    0.18028356134891510     
   2.0800000000000013E-002    0.67853629589080811     
   2.1900000000000003E-002    0.79790699481964111     
   2.3000000000000020E-002    0.45138618350028992     
   2.4100000000000010E-002   -0.16567553579807281     
   2.5200000000000000E-002   -0.68188738822937012     
   2.6300000000000018E-002   -0.77326005697250366     
   2.7400000000000008E-002   -0.38327944278717041     
   2.8500000000000025E-002    0.20794507861137390     
   2.9600000000000015E-002    0.54945975542068481     
   3.0700000000000005E-002    0.34985050559043884     
   3.1800000000000023E-002   -0.25364047288894653     
   3.2900000000000013E-002   -0.72858637571334839     
   3.4000000000000002E-002   -0.53106832504272461     
   3.5100000000000020E-002    0.40804836153984070     
   3.6200000000000010E-002     1.4963319301605225     
   3.7300000000000028E-002     1.8265973329544067     
   3.8400000000000017E-002    0.87428367137908936     
   3.9500000000000007E-002   -0.98140972852706909     
   4.0600000000000025E-002    -2.5860269069671631     
   4.1700000000000015E-002    -2.7866418361663818     
   4.2800000000000005E-002    -1.3102669715881348     
   4.3900000000000022E-002    0.95400506258010864     
   4.5000000000000012E-002     2.5469014644622803     
   4.6100000000000002E-002     2.4932532310485840     
   4.7200000000000020E-002     1.0101771354675293     
   4.8300000000000010E-002   -0.69249778985977173     
   4.9400000000000027E-002    -1.3671400547027588     
   5.0500000000000017E-002   -0.68256527185440063     
   5.1600000000000007E-002    0.57223665714263916     
   5.2700000000000025E-002     1.1749298572540283     
   5.3800000000000014E-002    0.47689634561538696     
   5.4900000000000004E-002    -1.0728350877761841     
   5.6000000000000022E-002    -2.2783048152923584     
   5.7100000000000012E-002    -2.1200258731842041     
   5.8200000000000002E-002   -0.52860188484191895     
   5.9300000000000019E-002     1.5547263622283936     
   6.0400000000000009E-002     2.8380935192108154     
   6.1500000000000027E-002     2.5620539188385010     
   6.2600000000000017E-002    0.99930191040039062     
   6.3700000000000007E-002   -0.73581105470657349     
   6.4800000000000024E-002    -1.4234629869461060     
   6.5900000000000014E-002   -0.55776816606521606     
   6.7000000000000004E-002     1.2623900175094604     
   6.8100000000000022E-002     2.6454458236694336     
   6.9200000000000012E-002     2.3101389408111572     
   7.0300000000000029E-002     5.7094153016805649E-002
   7.1400000000000019E-002    -2.8568673133850098     
   7.2500000000000009E-002    -4.3514533042907715     
   7.3600000000000027E-002    -2.8962774276733398     
   7.4700000000000016E-002     1.2647756338119507     
   7.5800000000000006E-002     6.0190129280090332     
   7.6900000000000024E-002     8.6661968231201172     
   7.8000000000000014E-002     7.7962803840637207     
   7.9100000000000004E-002     4.3295111656188965     
   8.0200000000000021E-002    0.86118781566619873     
   8.1300000000000011E-002   -0.28122812509536743     
   8.2400000000000029E-002     1.1974699497222900     
   8.3500000000000019E-002     3.4966537952423096     
   8.4600000000000009E-002     4.3838515281677246     
   8.5700000000000026E-002     3.2803785800933838     
   8.6800000000000016E-002     1.8648115396499634     
   8.7900000000000006E-002     2.6837904453277588     
   8.9000000000000024E-002     6.8853440284729004     
   9.0100000000000013E-002     12.982951164245605     
   9.1200000000000003E-002     17.764345169067383     
   9.2300000000000021E-002     18.666582107543945     
   9.3400000000000011E-002     15.711370468139648     
   9.4500000000000028E-002     11.393180847167969     
   9.5600000000000018E-002     8.9127750396728516     
   9.6700000000000008E-002     9.8732585906982422     
   9.7800000000000026E-002     13.582335472106934     
   9.8900000000000016E-002     17.985746383666992     
  0.10000000000000001          21.152940750122070     
  0.10110000000000002          22.707509994506836     
  0.10220000000000001          23.260719299316406     
  0.10330000000000003          23.942743301391602     
  0.10440000000000002          25.621067047119141     
  0.10550000000000001          28.002285003662109     
  0.10660000000000003          30.646261215209961     
  0.10770000000000002          32.712406158447266     
  0.10880000000000001          33.301132202148438     
  0.10990000000000003          32.164962768554688     
  0.11100000000000002          30.410655975341797     
  0.11210000000000001          29.773225784301758     
  0.11320000000000002          31.487836837768555     
  0.11430000000000001          35.403987884521484     
  0.11540000000000003          39.111766815185547     
  0.11650000000000002          39.451126098632812     
  0.11760000000000001          36.087612152099609     
  0.11870000000000003          30.096319198608398     
  0.11980000000000002          24.810066223144531     
  0.12090000000000001          22.838211059570312     
  0.12200000000000003          23.455621719360352     
  0.12310000000000001          23.299200057983398     
  0.12420000000000003          20.505294799804688     
  0.12530000000000002          15.134347915649414     
  0.12640000000000001          9.1103467941284180     
  0.12750000000000003          5.3712863922119141     
  0.12860000000000002          5.4979977607727051     
  0.12970000000000001          4.5745444297790527     
  0.13080000000000003          8.0720745027065277E-002
  0.13190000000000002         -9.4797344207763672     
  0.13300000000000001         -20.436002731323242     
  0.13410000000000000         -32.567508697509766     
  0.13520000000000004         -39.984931945800781     
  0.13630000000000003         -43.141883850097656     
  0.13740000000000002         -48.076286315917969     
  0.13850000000000001         -54.803241729736328     
  0.13960000000000000         -61.726287841796875     
  0.14070000000000005         -64.540100097656250     
  0.14180000000000004         -62.696411132812500     
  0.14290000000000003         -59.365001678466797     
  0.14400000000000002         -60.462188720703125     
  0.14510000000000001         -62.399257659912109     
  0.14620000000000000         -68.814903259277344     
  0.14730000000000004         -71.733131408691406     
  0.14840000000000003         -75.087318420410156     
  0.14950000000000002         -76.086387634277344     
  0.15060000000000001         -80.433586120605469     
  0.15170000000000000         -84.221778869628906     
  0.15280000000000005         -85.791572570800781     
  0.15390000000000004         -81.035140991210938     
  0.15500000000000003         -69.889686584472656     
  0.15610000000000002         -59.101539611816406     
  0.15720000000000001         -48.694122314453125     
  0.15830000000000000         -42.582271575927734     
  0.15940000000000004         -35.824062347412109     
  0.16050000000000003         -27.023212432861328     
  0.16160000000000002         -16.335741043090820     
  0.16270000000000001         -5.8839340209960938     
  0.16380000000000000         -2.9372942447662354     
  0.16490000000000005         -2.7628231048583984     
  0.16600000000000004         -4.3163642883300781     
  0.16710000000000003          3.5800459384918213     
  0.16820000000000002          19.777420043945312     
  0.16930000000000001          34.282016754150391     
  0.17040000000000000          43.067447662353516     
  0.17150000000000004          41.865272521972656     
  0.17260000000000003          34.715190887451172     
  0.17370000000000002          31.699066162109375     
  0.17480000000000001          38.212982177734375     
  0.17590000000000000          50.570697784423828     
  0.17700000000000005          62.748737335205078     
  0.17810000000000004          67.789665222167969     
  0.17920000000000003          68.612236022949219     
  0.18030000000000002          71.503379821777344     
  0.18140000000000001          78.167152404785156     
  0.18250000000000000          79.819671630859375     
  0.18360000000000004          71.242889404296875     
  0.18470000000000003          49.972373962402344     
  0.18580000000000002          26.212450027465820     
  0.18690000000000001          9.9894580841064453     
  0.18800000000000000          9.0063142776489258     
  0.18910000000000005          17.283323287963867     
  0.19020000000000004          22.977689743041992     
  0.19130000000000003          18.927961349487305     
  0.19240000000000002          7.7562413215637207     
  0.19350000000000001        -0.80395370721817017     
  0.19460000000000005         -1.3185343742370605     
  0.19570000000000004          3.3114569187164307     
  0.19680000000000003          4.6959133148193359     
  0.19790000000000002         -3.3927533626556396     
  0.19900000000000001         -17.923879623413086     
  0.20010000000000000         -32.705162048339844     
  0.20120000000000005         -43.214477539062500     
  0.20230000000000004         -53.027790069580078     
  0.20340000000000003         -65.734367370605469     
  0.20450000000000002         -84.219757080078125     
  0.20560000000000000         -103.37541961669922     
  0.20670000000000005         -116.26186370849609     
  0.20780000000000004         -117.65836334228516     
  0.20890000000000003         -114.20298004150391     
