 -0.12000000000000000          0.0000000000000000     
 -0.11889999999999999          0.0000000000000000     
 -0.11780000000000000          0.0000000000000000     
 -0.11670000000000000        -0.72457563877105713     
 -0.11559999999999999         -2.3218734264373779     
 -0.11449999999999999         -1.7061464786529541     
 -0.11340000000000000          5.7213258743286133     
 -0.11230000000000000          18.141199111938477     
 -0.11119999999999999          22.656106948852539     
 -0.11009999999999999          5.5416979789733887     
 -0.10900000000000000         -27.635614395141602     
 -0.10790000000000000         -46.081264495849609     
 -0.10679999999999999         -19.083299636840820     
 -0.10569999999999999          45.534286499023438     
 -0.10460000000000000          93.923255920410156     
 -0.10349999999999999          71.615119934082031     
 -0.10239999999999999         -14.765089035034180     
 -0.10130000000000000         -87.821746826171875     
 -0.10020000000000000         -67.389892578125000     
  -9.9099999999999994E-002     43.084949493408203     
  -9.7999999999999990E-002     146.11216735839844     
  -9.6899999999999986E-002     142.02120971679688     
  -9.5799999999999996E-002     37.243022918701172     
  -9.4699999999999993E-002    -50.495510101318359     
  -9.3599999999999989E-002    -11.224136352539062     
  -9.2499999999999999E-002     131.56202697753906     
  -9.1399999999999995E-002     231.40632629394531     
  -9.0299999999999991E-002     173.35699462890625     
  -8.9200000000000002E-002     15.856040954589844     
  -8.8099999999999984E-002    -45.489921569824219     
  -8.6999999999999994E-002     121.40576934814453     
  -8.5899999999999990E-002     423.17990112304688     
  -8.4799999999999986E-002     606.72961425781250     
  -8.3699999999999997E-002     511.88415527343750     
  -8.2599999999999993E-002     256.18508911132812     
  -8.1499999999999989E-002     140.38743591308594     
  -8.0399999999999999E-002     346.86245727539062     
  -7.9299999999999995E-002     738.72125244140625     
  -7.8199999999999992E-002     988.35961914062500     
  -7.7100000000000002E-002     924.52703857421875     
  -7.5999999999999984E-002     735.91583251953125     
  -7.4899999999999994E-002     792.99468994140625     
  -7.3799999999999991E-002     1248.5844726562500     
  -7.2699999999999987E-002     1838.1225585937500     
  -7.1599999999999997E-002     2122.3596191406250     
  -7.0499999999999993E-002     1952.4924316406250     
  -6.9399999999999989E-002     1671.4194335937500     
  -6.8300000000000000E-002     1804.5433349609375     
  -6.7199999999999996E-002     2523.8002929687500     
  -6.6099999999999992E-002     3438.8278808593750     
  -6.5000000000000002E-002     3965.1777343750000     
  -6.3899999999999985E-002     3922.8693847656250     
  -6.2799999999999995E-002     3747.9501953125000     
  -6.1699999999999991E-002     4068.8039550781250     
  -6.0599999999999994E-002     5056.5888671875000     
  -5.9499999999999990E-002     6222.8935546875000     
  -5.8399999999999994E-002     6902.7182617187500     
  -5.7299999999999990E-002     6948.3876953125000     
  -5.6199999999999986E-002     6912.1665039062500     
  -5.5099999999999996E-002     7499.4062500000000     
  -5.3999999999999992E-002     8833.6806640625000     
  -5.2899999999999989E-002     10299.449218750000     
  -5.1799999999999985E-002     11153.843750000000     
  -5.0699999999999995E-002     11297.554687500000     
  -4.9599999999999991E-002     11402.069335937500     
  -4.8499999999999988E-002     12235.110351562500     
  -4.7399999999999998E-002     13859.283203125000     
  -4.6299999999999994E-002     15537.535156250000     
  -4.5199999999999990E-002     16465.789062500000     
  -4.4099999999999986E-002     16595.613281250000     
  -4.2999999999999997E-002     16696.250000000000     
  -4.1899999999999993E-002     17576.046875000000     
  -4.0799999999999989E-002     19252.037109375000     
  -3.9699999999999985E-002     20922.794921875000     
  -3.8599999999999995E-002     21780.050781250000     
  -3.7499999999999992E-002     21825.884765625000     
  -3.6399999999999988E-002     21853.185546875000     
  -3.5299999999999984E-002     22610.623046875000     
  -3.4199999999999994E-002     24019.339843750000     
  -3.3099999999999991E-002     25252.144531250000     
  -3.1999999999999987E-002     25587.878906250000     
  -3.0899999999999997E-002     25151.035156250000     
  -2.9799999999999993E-002     24761.843750000000     
  -2.8699999999999989E-002     25069.517578125000     
  -2.7599999999999986E-002     25864.531250000000     
  -2.6499999999999996E-002     26294.236328125000     
  -2.5399999999999992E-002     25744.171875000000     
  -2.4299999999999988E-002     24449.447265625000     
  -2.3199999999999985E-002     23213.193359375000     
  -2.2099999999999995E-002     22542.437500000000     
  -2.0999999999999991E-002     22112.945312500000     
  -1.9899999999999987E-002     21130.898437500000     
  -1.8799999999999983E-002     19169.605468750000     
  -1.7699999999999994E-002     16599.837890625000     
  -1.6599999999999990E-002     14140.698242187500     
  -1.5499999999999986E-002     12057.818359375000     
  -1.4399999999999996E-002     9866.7314453125000     
  -1.3299999999999992E-002     6850.6416015625000     
  -1.2199999999999989E-002     2860.8115234375000     
  -1.1099999999999985E-002    -1513.2902832031250     
  -9.9999999999999950E-003    -5577.5673828125000     
  -8.8999999999999913E-003    -9308.2832031250000     
  -7.7999999999999875E-003    -13387.849609375000     
  -6.6999999999999837E-003    -18480.361328125000     
  -5.5999999999999939E-003    -24492.583984375000     
  -4.4999999999999901E-003    -30628.271484375000     
  -3.3999999999999864E-003    -36203.031250000000     
  -2.2999999999999826E-003    -41348.937500000000     
  -1.1999999999999927E-003    -46846.375000000000     
  -9.9999999999988987E-005    -53240.902343750000     
   1.0000000000000148E-003    -60192.433593750000     
   2.1000000000000185E-003    -66740.359375000000     
   3.2000000000000084E-003    -72255.335937500000     
   4.3000000000000121E-003    -77043.468750000000     
   5.4000000000000159E-003    -81963.046875000000     
   6.5000000000000058E-003    -87458.500000000000     
   7.6000000000000234E-003    -92987.117187500000     
   8.7000000000000133E-003    -97469.882812500000     
   9.8000000000000032E-003    -100292.76562500000     
   1.0900000000000021E-002    -101894.79687500000     
   1.2000000000000011E-002    -103146.55468750000     
   1.3100000000000001E-002    -104458.00000000000     
   1.4200000000000018E-002    -105169.76562500000     
   1.5300000000000008E-002    -104309.57031250000     
   1.6400000000000026E-002    -101460.73437500000     
   1.7500000000000016E-002    -97184.781250000000     
   1.8600000000000005E-002    -92332.625000000000     
   1.9700000000000023E-002    -87116.609375000000     
   2.0800000000000013E-002    -80941.929687500000     
   2.1900000000000003E-002    -73142.531250000000     
   2.3000000000000020E-002    -63646.671875000000     
   2.4100000000000010E-002    -53122.410156250000     
   2.5200000000000000E-002    -42324.632812500000     
   2.6300000000000018E-002    -31404.167968750000     
   2.7400000000000008E-002    -19812.970703125000     
   2.8500000000000025E-002    -7104.3862304687500     
   2.9600000000000015E-002     6458.9208984375000     
   3.0700000000000005E-002     19870.744140625000     
   3.1800000000000023E-002     32458.789062500000     
   3.2900000000000013E-002     44448.601562500000     
   3.4000000000000002E-002     56422.171875000000     
   3.5100000000000020E-002     68496.406250000000     
   3.6200000000000010E-002     80026.671875000000     
   3.7300000000000028E-002     90041.773437500000     
   3.8400000000000017E-002     98149.828125000000     
   3.9500000000000007E-002     104934.53125000000     
   4.0600000000000025E-002     111104.17968750000     
   4.1700000000000015E-002     116586.63281250000     
   4.2800000000000005E-002     120453.18750000000     
   4.3900000000000022E-002     121867.07031250000     
   4.5000000000000012E-002     120834.65625000000     
   4.6100000000000002E-002     118386.68750000000     
   4.7200000000000020E-002     115449.73437500000     
   4.8300000000000010E-002     111913.00781250000     
   4.9400000000000027E-002     106741.61718750000     
   5.0500000000000017E-002     99144.890625000000     
   5.1600000000000007E-002     89525.046875000000     
   5.2700000000000025E-002     79257.601562500000     
   5.3800000000000014E-002     69436.914062500000     
   5.4900000000000004E-002     59872.527343750000     
   5.6000000000000022E-002     49500.710937500000     
   5.7100000000000012E-002     37564.871093750000     
   5.8200000000000002E-002     24719.482421875000     
   5.9300000000000019E-002     12482.194335937500     
   6.0400000000000009E-002     1914.8120117187500     
   6.1500000000000027E-002    -7296.4829101562500     
   6.2600000000000017E-002    -16442.494140625000     
   6.3700000000000007E-002    -26086.117187500000     
   6.4800000000000024E-002    -35511.324218750000     
   6.5900000000000014E-002    -43329.246093750000     
   6.7000000000000004E-002    -48840.992187500000     
   6.8100000000000022E-002    -52626.210937500000     
   6.9200000000000012E-002    -56044.242187500000     
   7.0300000000000029E-002    -59406.937500000000     
   7.1400000000000019E-002    -62087.960937500000     
   7.2500000000000009E-002    -62800.828125000000     
   7.3600000000000027E-002    -61299.695312500000     
   7.4700000000000016E-002    -58562.890625000000     
   7.5800000000000006E-002    -55905.320312500000     
   7.6900000000000024E-002    -53654.601562500000     
   7.8000000000000014E-002    -50769.550781250000     
   7.9100000000000004E-002    -46316.324218750000     
   8.0200000000000021E-002    -40403.363281250000     
   8.1300000000000011E-002    -34260.226562500000     
   8.2400000000000029E-002    -28972.761718750000     
   8.3500000000000019E-002    -24599.908203125000     
   8.4600000000000009E-002    -19969.810546875000     
   8.5700000000000026E-002    -14143.418945312500     
   8.6800000000000016E-002    -7718.1997070312500     
   8.7900000000000006E-002    -2040.7971191406250     
   8.9000000000000024E-002     1914.9969482421875     
   9.0100000000000013E-002     4676.6640625000000     
   9.1200000000000003E-002     7636.1596679687500     
   9.2300000000000021E-002     11586.171875000000     
   9.3400000000000011E-002     15751.100585937500     
   9.4500000000000028E-002     18631.533203125000     
   9.5600000000000018E-002     19522.949218750000     
   9.6700000000000008E-002     19347.169921875000     
   9.7800000000000026E-002     19655.773437500000     
   9.8900000000000016E-002     21038.980468750000     
  0.10000000000000001          22493.974609375000     
  0.10110000000000002          22499.123046875000     
  0.10220000000000001          20682.833984375000     
  0.10330000000000003          18296.250000000000     
  0.10440000000000002          16966.150390625000     
  0.10550000000000001          16999.261718750000     
  0.10660000000000003          17083.080078125000     
  0.10770000000000002          15667.497070312500     
  0.10880000000000001          12624.793945312500     
  0.10990000000000003          9480.9384765625000     
  0.11100000000000002          7843.5927734375000     
  0.11210000000000001          7801.3339843750000     
  0.11320000000000002          7784.5273437500000     
  0.11430000000000001          6323.1850585937500     
  0.11540000000000003          3512.2922363281250     
  0.11650000000000002          938.45941162109375     
  0.11760000000000001          54.500709533691406     
  0.11870000000000003          657.75323486328125     
  0.11980000000000002          1125.6914062500000     
  0.12090000000000001          108.65476989746094     
  0.12200000000000003         -2075.6545410156250     
  0.12310000000000001         -3774.7377929687500     
  0.12420000000000003         -3745.1857910156250     
  0.12530000000000002         -2466.2114257812500     
  0.12640000000000001         -1591.1269531250000     
  0.12750000000000003         -2218.8857421875000     
  0.12860000000000002         -3784.6926269531250     
  0.12970000000000001         -4680.8051757812500     
  0.13080000000000003         -3978.5285644531250     
  0.13190000000000002         -2412.6630859375000     
  0.13300000000000001         -1556.8413085937500     
  0.13410000000000000         -2173.6057128906250     
  0.13520000000000004         -3390.7219238281250     
  0.13630000000000003         -3707.7895507812500     
  0.13740000000000002         -2609.4052734375000     
  0.13850000000000001         -1098.2226562500000     
  0.13960000000000000         -602.12500000000000     
  0.14070000000000005         -1433.8784179687500     
  0.14180000000000004         -2454.3261718750000     
  0.14290000000000003         -2304.3239746093750     
  0.14400000000000002         -910.55462646484375     
  0.14510000000000001          401.10485839843750     
  0.14620000000000000          335.72583007812500     
  0.14730000000000004         -952.34436035156250     
  0.14840000000000003         -1976.4680175781250     
  0.14950000000000002         -1469.1778564453125     
  0.15060000000000001          204.02851867675781     
  0.15170000000000000          1411.6408691406250     
  0.15280000000000005          937.67523193359375     
  0.15390000000000004         -694.39862060546875     
  0.15500000000000003         -1720.7225341796875     
  0.15610000000000002         -986.86761474609375     
  0.15720000000000001          830.64404296875000     
  0.15830000000000000          1884.4138183593750     
  0.15940000000000004          1063.9078369140625     
  0.16050000000000003         -817.26300048828125     
  0.16160000000000002         -1830.2967529296875     
  0.16270000000000001         -916.64996337890625     
  0.16380000000000000          1016.6665649414062     
  0.16490000000000005          2008.6485595703125     
  0.16600000000000004          1067.9528808593750     
  0.16710000000000003         -821.68762207031250     
  0.16820000000000002         -1722.6655273437500     
  0.16930000000000001         -740.32623291015625     
  0.17040000000000000          1077.9932861328125     
  0.17150000000000004          1839.9892578125000     
  0.17260000000000003          777.25817871093750     
  0.17370000000000002         -990.34991455078125     
  0.17480000000000001         -1642.3565673828125     
  0.17590000000000000         -542.62878417968750     
  0.17700000000000005          1130.6254882812500     
  0.17810000000000004          1641.7247314453125     
  0.17920000000000003          499.27133178710938     
  0.18030000000000002         -1067.1137695312500     
  0.18140000000000001         -1434.8142089843750     
  0.18250000000000000         -284.59780883789062     
  0.18360000000000004          1116.5808105468750     
  0.18470000000000003          1276.4481201171875     
  0.18580000000000002          58.738166809082031     
  0.18690000000000001         -1207.2028808593750     
  0.18800000000000000         -1167.4448242187500     
  0.18910000000000005          120.27780151367188     
  0.19020000000000004          1258.9041748046875     
  0.19130000000000003          1012.1246948242188     
  0.19240000000000002         -371.91134643554688     
  0.19350000000000001         -1429.4295654296875     
  0.19460000000000005         -1033.9619140625000     
  0.19570000000000004          406.29830932617188     
  0.19680000000000003          1381.4735107421875     
  0.19790000000000002          871.36273193359375     
  0.19900000000000001         -568.38049316406250     
  0.20010000000000000         -1401.3690185546875     
  0.20120000000000005         -729.80993652343750     
  0.20230000000000004          748.36114501953125     
  0.20340000000000003          1473.0826416015625     
  0.20450000000000002          668.67486572265625     
  0.20560000000000000         -829.75726318359375     
  0.20670000000000005         -1443.6787109375000     
  0.20780000000000004         -503.45391845703125     
  0.20890000000000003          1033.6788330078125     
