 -0.12000000000000000          0.0000000000000000     
 -0.11889999999999999          0.0000000000000000     
 -0.11780000000000000          0.0000000000000000     
 -0.11670000000000000         -7.0642532622178233E-012
 -0.11559999999999999          4.9449774136567370E-011
 -0.11449999999999999         -5.6514026097742587E-011
 -0.11340000000000000         -5.6514026097742587E-011
 -0.11230000000000000         -5.6514026097742587E-011
 -0.11119999999999999          4.2385520093723983E-010
 -0.11009999999999999         -1.1302805219548517E-010
 -0.10900000000000000         -1.6954208037489593E-009
 -0.10790000000000000         -9.0422441756388139E-010
 -0.10679999999999999          2.2605610716652791E-009
 -0.10569999999999999          4.0690100178153443E-009
 -0.10460000000000000          2.3453321507105329E-009
 -0.10349999999999999         -2.2605610716652791E-009
 -0.10239999999999999         -4.9732342688457720E-009
 -0.10130000000000000         -4.0690100178153443E-009
 -0.10020000000000000         -4.9732342688457720E-009
  -9.9099999999999994E-002    -1.3563365985902465E-009
  -9.7999999999999990E-002    -4.5211220878194069E-010
  -9.6899999999999986E-002     4.9732342688457720E-009
  -9.5799999999999996E-002     1.8988712824352660E-008
  -9.4699999999999993E-002     1.3563366429991675E-008
  -9.3599999999999989E-002     6.3295710894806234E-009
  -9.2499999999999999E-002     1.2659142178961247E-008
  -9.1399999999999995E-002    -2.4414060106892066E-008
  -9.0299999999999991E-002    -4.6115445684336009E-008
  -8.9200000000000002E-002    -7.3242176767962519E-008
  -8.8099999999999984E-002    -3.4134473025915213E-008
  -8.6999999999999994E-002     4.7923894186396865E-008
  -8.5899999999999990E-002     1.3020832057009102E-007
  -8.4799999999999986E-002     1.4286746363723068E-007
  -8.3699999999999997E-002     6.8721057289167220E-008
  -8.2599999999999993E-002    -1.2297452656184760E-007
  -8.1499999999999989E-002    -2.5679972281977825E-007
  -8.0399999999999999E-002    -8.6805542309775774E-008
  -7.9299999999999995E-002     7.9571748301532352E-008
  -7.8199999999999992E-002     1.9531248085513653E-007
  -7.7100000000000002E-002    -5.0636568715844987E-008
  -7.5999999999999984E-002    -1.8807867263603839E-007
  -7.4899999999999994E-002    -8.6805542309775774E-008
  -7.3799999999999991E-002     2.3148145089635364E-007
  -7.2699999999999987E-002     8.1018509945351980E-007
  -7.1599999999999997E-002     5.4976845831333776E-007
  -7.0499999999999993E-002    -8.1018509945351980E-007
  -6.9399999999999989E-002    -1.9965275441791164E-006
  -6.8300000000000000E-002    -1.8229163742944365E-006
  -6.7199999999999996E-002     3.4722216923910310E-007
  -6.6099999999999992E-002     2.6620366497809300E-006
  -6.5000000000000002E-002     3.0671292279293993E-006
  -6.3899999999999985E-002     2.7199071155337151E-006
  -6.2799999999999995E-002     5.7870362724088409E-008
  -6.1699999999999991E-002    -3.9351848499791231E-006
  -6.0599999999999994E-002    -5.9027770475950092E-006
  -5.9499999999999990E-002    -4.1666662582429126E-006
  -5.8399999999999994E-002     2.3148145089635364E-007
  -5.7299999999999990E-002     6.7129622038919479E-006
  -5.6199999999999986E-002     6.9444436121557374E-006
  -5.5099999999999996E-002     3.7037032143416582E-006
  -5.3999999999999992E-002    -5.0925918912980705E-006
  -5.2899999999999989E-002    -1.0648146599123720E-005
  -5.1799999999999985E-002    -1.8518516071708291E-006
  -5.0699999999999995E-002     1.3425924407783896E-005
  -4.9599999999999991E-002     1.5277775673894212E-005
  -4.8499999999999988E-002     9.7222209660685621E-006
  -4.7399999999999998E-002    -6.9444436121557374E-006
  -4.6299999999999994E-002    -2.7777774448622949E-005
  -4.5199999999999990E-002    -3.7962956412229687E-005
  -4.4099999999999986E-002    -2.5925923182512634E-005
  -4.2999999999999997E-002     2.7777773539128248E-006
  -4.1899999999999993E-002     4.2592586396494880E-005
  -4.0799999999999989E-002     6.0185178881511092E-005
  -3.9699999999999985E-002     6.0185178881511092E-005
  -3.8599999999999995E-002     2.5925923182512634E-005
  -3.7499999999999992E-002    -5.7407400163356215E-005
  -3.6399999999999988E-002    -1.1481480032671243E-004
  -3.5299999999999984E-002    -1.0185183782596141E-004
  -3.4199999999999994E-002    -1.1111109415651299E-005
  -3.3099999999999991E-002     4.9999995098914951E-005
  -3.1999999999999987E-002     8.3333325164858252E-005
  -3.0899999999999997E-002     5.9259251429466531E-005
  -2.9799999999999993E-002     1.4444442058447748E-004
  -2.8699999999999989E-002     1.0740739526227117E-004
  -2.7599999999999986E-002     4.4444437662605196E-005
  -2.6499999999999996E-002    -2.5925922091118991E-004
  -2.5399999999999992E-002    -4.0740735130384564E-004
  -2.4299999999999988E-002    -2.4444441078230739E-004
  -2.3199999999999985E-002    -7.4074064286833163E-006
  -2.2099999999999995E-002     2.5185183039866388E-004
  -2.0999999999999991E-002     4.3703697156161070E-004
  -1.9899999999999987E-002     5.0740735605359077E-004
  -1.8799999999999983E-002     1.9629627058748156E-004
  -1.7699999999999994E-002    -1.5185182564891875E-004
  -1.6599999999999990E-002    -3.9999996079131961E-004
  -1.5499999999999986E-002    -4.1481477092020214E-004
  -1.4399999999999996E-002    -2.1481479052454233E-004
  -1.3299999999999992E-002    -2.7777775540016592E-004
  -1.2199999999999989E-002    -4.4814808643423021E-004
  -1.1099999999999985E-002    -1.8518515571486205E-004
  -9.9999999999999950E-003     7.7777769183740020E-004
  -8.8999999999999913E-003     1.5296294586732984E-003
  -7.7999999999999875E-003     1.1574072996154428E-003
  -6.6999999999999837E-003     8.5185172792989761E-005
  -5.5999999999999939E-003    -1.9287033937871456E-003
  -4.4999999999999901E-003    -2.3685181513428688E-003
  -3.3999999999999864E-003    -9.5925910864025354E-004
  -2.2999999999999826E-003     1.2370368931442499E-003
  -1.1999999999999927E-003     2.7703701052814722E-003
  -9.9999999999988987E-005     1.5703701646998525E-003
   1.0000000000000148E-003    -1.1111109779449180E-004
   2.1000000000000185E-003    -1.5407404862344265E-003
   3.2000000000000084E-003    -1.4962961431592703E-003
   4.3000000000000121E-003    -2.5185183039866388E-004
   5.4000000000000159E-003    -5.4814806208014488E-004
   6.5000000000000058E-003    -6.5185176208615303E-004
   7.6000000000000234E-003     6.8148138234391809E-004
   8.7000000000000133E-003     1.5407404862344265E-003
   9.8000000000000032E-003     2.5185181293636560E-003
   1.0900000000000021E-002     1.1259258026257157E-003
   1.2000000000000011E-002    -1.3925924431532621E-003
   1.3100000000000001E-002    -3.4370366483926773E-003
   1.4200000000000018E-002    -2.1925922483205795E-003
   1.5300000000000008E-002     3.8518512155860662E-004
   1.6400000000000026E-002     1.6592590836808085E-003
   1.7500000000000016E-002     1.3629627646878362E-003
   1.8600000000000005E-002    -7.1111100260168314E-004
   1.9700000000000023E-002    -9.4814802287146449E-004
   2.0800000000000013E-002    -1.1851850285893306E-004
   2.1900000000000003E-002     1.3629627646878362E-003
   2.3000000000000020E-002     2.1925922483205795E-003
   2.4100000000000010E-002     7.7037024311721325E-004
   2.5200000000000000E-002    -2.0740737672895193E-003
   2.6300000000000018E-002    -1.3037035241723061E-003
   2.7400000000000008E-002     1.0666665621101856E-003
   2.8500000000000025E-002     2.1037033293396235E-003
   2.9600000000000015E-002     2.1629626862704754E-003
   3.0700000000000005E-002    -2.3111107293516397E-003
   3.1800000000000023E-002    -4.9777771346271038E-003
   3.2900000000000013E-002    -3.6444440484046936E-003
   3.4000000000000002E-002     1.3185183051973581E-003
   3.5100000000000020E-002     3.6074069794267416E-003
   3.6200000000000010E-002     2.2203701082617044E-003
   3.7300000000000028E-002    -4.4444437662605196E-005
   3.8400000000000017E-002    -1.7185183241963387E-003
   3.9500000000000007E-002    -2.9629626078531146E-004
   4.0600000000000025E-002     1.0074073215946555E-003
   4.1700000000000015E-002     3.9703696966171265E-003
   4.2800000000000005E-002     3.4962957724928856E-003
   4.3900000000000022E-002    -1.0666665621101856E-003
   4.5000000000000012E-002    -6.6962954588234425E-003
   4.6100000000000002E-002    -7.7629620209336281E-003
   4.7200000000000020E-002    -9.4814802287146449E-004
   4.8300000000000010E-002     4.4444440864026546E-003
   4.9400000000000027E-002     7.4666654691100121E-003
   5.0500000000000017E-002     5.0962958484888077E-003
   5.1600000000000007E-002     1.1851850285893306E-004
   5.2700000000000025E-002    -5.6888880208134651E-003
   5.3800000000000014E-002    -4.9777771346271038E-003
   5.4900000000000004E-002    -2.1333331242203712E-003
   5.6000000000000022E-002     1.3037035241723061E-003
   5.7100000000000012E-002     2.6074070483446121E-003
   5.8200000000000002E-002    -1.1851850285893306E-004
   5.9300000000000019E-002     0.0000000000000000     
   6.0400000000000009E-002     2.0740737672895193E-003
   6.1500000000000027E-002     1.3037035241723061E-003
   6.2600000000000017E-002     3.5555550130084157E-004
   6.3700000000000007E-002    -2.7259255293756723E-003
   6.4800000000000024E-002    -2.0740737672895193E-003
   6.5900000000000014E-002    -2.1333331242203712E-003
   6.7000000000000004E-002     4.1481475345790386E-003
   6.8100000000000022E-002     3.3481477294117212E-003
   6.9200000000000012E-002     3.5259255673736334E-003
   7.0300000000000029E-002     1.7777775647118688E-003
   7.1400000000000019E-002    -1.5851849457249045E-003
   7.2500000000000009E-002    -6.7999991588294506E-003
   7.3600000000000027E-002    -8.7259244173765182E-003
   7.4700000000000016E-002    -6.5425918437540531E-003
   7.5800000000000006E-002    -2.9629626078531146E-004
   7.6900000000000024E-002     7.9703694209456444E-003
   7.8000000000000014E-002     6.6814804449677467E-003
   7.9100000000000004E-002     3.1999996863305569E-003
   8.0200000000000021E-002     5.6296288967132568E-003
   8.1300000000000011E-002     2.8444440104067326E-003
   8.2400000000000029E-002    -2.9629626078531146E-004
   8.3500000000000019E-002    -2.6666664052754641E-003
   8.4600000000000009E-002    -4.2074066586792469E-003
   8.5700000000000026E-002    -8.7111098691821098E-003
   8.6800000000000016E-002    -9.1259246692061424E-003
   8.7900000000000006E-002    -4.7407401725649834E-003
   8.9000000000000024E-002     5.5703697726130486E-003
   9.0100000000000013E-002     1.3629627414047718E-002
   9.1200000000000003E-002     1.5466664917767048E-002
   9.2300000000000021E-002     6.8740732967853546E-003
   9.3400000000000011E-002    -6.2814806587994099E-003
   9.4500000000000028E-002    -1.3451850041747093E-002
   9.5600000000000018E-002    -9.2444429174065590E-003
   9.6700000000000008E-002     2.3703700571786612E-004
   9.7800000000000026E-002     4.3555549345910549E-003
   9.8900000000000016E-002    -1.1259258026257157E-003
  0.10000000000000001         -7.9407393932342529E-003
  0.10110000000000002         -6.8740732967853546E-003
  0.10220000000000001          4.0592588484287262E-003
  0.10330000000000003          1.5229627490043640E-002
  0.10440000000000002          1.5496294014155865E-002
  0.10550000000000001          2.7407403104007244E-003
  0.10660000000000003         -1.1140739545226097E-002
  0.10770000000000002         -1.3125924393534660E-002
  0.10880000000000001         -3.4518514294177294E-003
  0.10990000000000003          7.3333322070538998E-003
  0.11100000000000002          7.9851839691400528E-003
  0.11210000000000001         -2.9111106414347887E-003
  0.11320000000000002         -1.2511109001934528E-002
  0.11430000000000001         -1.0274073109030724E-002
  0.11540000000000003          3.9722216315567493E-003
  0.11650000000000002          1.5799071639776230E-002
  0.11760000000000001          1.5046178363263607E-002
  0.11870000000000003          9.7685167565941811E-004
  0.11980000000000002         -1.3346294872462749E-002
  0.12090000000000001         -1.4118516817688942E-002
  0.12200000000000003         -8.5555546684190631E-004
  0.12310000000000001          1.0996295139193535E-002
  0.12420000000000003          9.1555546969175339E-003
  0.12530000000000002         -4.1740736924111843E-003
  0.12640000000000001         -1.3837034814059734E-002
  0.12750000000000003         -9.2111099511384964E-003
  0.12860000000000002          6.1481473967432976E-003
  0.12970000000000001          1.7270367592573166E-002
  0.13080000000000003          1.2703701853752136E-002
  0.13190000000000002         -3.9592585526406765E-003
  0.13300000000000001         -1.5529627911746502E-002
  0.13410000000000000         -1.1559257283806801E-002
  0.13520000000000004          3.6259253975003958E-003
  0.13630000000000003          1.4577776193618774E-002
  0.13740000000000002          1.0203702375292778E-002
  0.13850000000000001         -5.2370363846421242E-003
  0.13960000000000000         -1.5774071216583252E-002
  0.14070000000000005         -1.0855553671717644E-002
  0.14180000000000004          4.8333327285945415E-003
  0.14290000000000003          1.4966664835810661E-002
  0.14400000000000002          1.0118517093360424E-002
  0.14510000000000001         -4.6629621647298336E-003
  0.14620000000000000         -1.3766665011644363E-002
  0.14730000000000004         -9.0481471270322800E-003
  0.14840000000000003          4.4759251177310944E-003
  0.14950000000000002          1.3120369054377079E-002
  0.15060000000000001          8.6370361968874931E-003
  0.15170000000000000         -3.7314810324460268E-003
  0.15280000000000005         -1.1611109599471092E-002
  0.15390000000000004         -8.4240725263953209E-003
  0.15500000000000003          1.4185183681547642E-003
  0.15610000000000002          7.6037026010453701E-003
  0.15720000000000001          5.5999993346631527E-003
  0.15830000000000000         -1.7592590302228928E-004
  0.15940000000000004         -1.9416663562878966E-003
  0.16050000000000003          1.4259257586672902E-003
  0.16160000000000002          4.6027773059904575E-003
  0.16270000000000001          2.0194442477077246E-003
  0.16380000000000000         -4.6101845800876617E-003
  0.16490000000000005         -8.1435171887278557E-003
  0.16600000000000004         -4.1379625909030437E-003
  0.16710000000000003          3.3499996643513441E-003
  0.16820000000000002          6.1175916343927383E-003
  0.16930000000000001          9.0555544011294842E-004
  0.17040000000000000         -5.9898141771554947E-003
  0.17150000000000004         -5.6699067354202271E-003
  0.17260000000000003          3.0124995391815901E-003
  0.17370000000000002          1.0830091312527657E-002
  0.17480000000000001          8.1953695043921471E-003
  0.17590000000000000         -4.0189810097217560E-003
  0.17700000000000005         -1.4127776026725769E-002
  0.17810000000000004         -1.1056479997932911E-002
  0.17920000000000003          3.3365737181156874E-003
  0.18030000000000002          1.5248145908117294E-002
  0.18140000000000001          1.2266201898455620E-002
  0.18250000000000000         -3.1527774408459663E-003
  0.18360000000000004         -1.5690276399254799E-002
  0.18470000000000003         -1.2298146262764931E-002
  0.18580000000000002          4.1578696109354496E-003
  0.18690000000000001          1.7102776095271111E-002
  0.18800000000000000          1.3203239068388939E-002
  0.18910000000000005         -4.1469903662800789E-003
  0.19020000000000004         -1.7640970647335052E-002
  0.19130000000000003         -1.3873609714210033E-002
  0.19240000000000002          3.2791662961244583E-003
  0.19350000000000001          1.6471294686198235E-002
  0.19460000000000005          1.2674072757363319E-002
  0.19570000000000004         -3.4495366271585226E-003
  0.19680000000000003         -1.4896756969392300E-002
  0.19790000000000002         -9.9956002086400986E-003
  0.19900000000000001          5.5087953805923462E-003
  0.20010000000000000          1.4490044675767422E-002
  0.20120000000000005          7.1504618972539902E-003
  0.20230000000000004         -8.8020823895931244E-003
  0.20340000000000003         -1.5986224636435509E-002
  0.20450000000000002         -5.9531242586672306E-003
  0.20560000000000000          1.1577312834560871E-002
  0.20670000000000005          1.8400691449642181E-002
  0.20780000000000004          7.0221056230366230E-003
  0.20890000000000003         -1.1383795179426670E-002
