 -0.12000000000000000          0.0000000000000000
 -0.11889999999999999          0.0000000000000000
 -0.11780000000000000          0.0000000000000000
 -0.11670000000000000          0.0000000000000000
 -0.11559999999999999          0.0000000000000000
 -0.11449999999999999          0.0000000000000000
 -0.11340000000000000          0.0000000000000000
 -0.11230000000000000          0.0000000000000000
 -0.11119999999999999          0.0000000000000000
 -0.11009999999999999          0.0000000000000000
 -0.10900000000000000          0.0000000000000000
 -0.10790000000000000          0.0000000000000000
 -0.10679999999999999          0.0000000000000000
 -0.10569999999999999         -2.5894973086503494E-020
 -0.10460000000000000         -4.0804209571539097E-019
 -0.10349999999999999         -2.7599760017232606E-018
 -0.10239999999999999         -9.1005492822604171E-018
 -0.10130000000000000         -2.8683716103485876E-018
 -0.10020000000000000          1.1434027610069856E-016
  -9.9099999999999994E-002     5.5750623327314379E-016
  -9.7999999999999990E-002     1.2306531102745889E-015
  -9.6899999999999986E-002     1.2292756229441166E-016
  -9.5799999999999996E-002    -8.6358261579093376E-015
  -9.4699999999999993E-002    -3.0676778798406287E-014
  -9.3599999999999989E-002    -4.9306458709767048E-014
  -9.2499999999999999E-002     1.2932783641748935E-014
  -9.1399999999999995E-002     2.9011179309562651E-013
  -9.0299999999999991E-002     7.9224707306632669E-013
  -8.9200000000000002E-002     9.7363599387695343E-013
  -8.8099999999999984E-002    -6.0604049990226061E-013
  -8.6999999999999994E-002    -5.4773043739464455E-012
  -8.5899999999999990E-002    -1.2171691605999957E-011
  -8.4799999999999986E-002    -1.1848563796768019E-011
  -8.3699999999999997E-002     1.1541178603080571E-011
  -8.2599999999999993E-002     6.7205435660966373E-011
  -8.1499999999999989E-002     1.2713419206278331E-010
  -8.0399999999999999E-002     1.0108399534081158E-010
  -7.9299999999999995E-002    -1.3169534907042646E-010
  -7.8199999999999992E-002    -5.8761956411856886E-010
  -7.7100000000000002E-002    -9.8104024903733489E-010
  -7.5999999999999984E-002    -6.6053340574967478E-010
  -7.4899999999999994E-002     1.0318361720607072E-009
  -7.3799999999999991E-002     3.8842387084514485E-009
  -7.2699999999999987E-002     5.9094067417220231E-009
  -7.1599999999999997E-002     3.5513472163017923E-009
  -7.0499999999999993E-002    -5.9093343551808175E-009
  -6.9399999999999989E-002    -2.0160012326186916E-008
  -6.8300000000000000E-002    -2.8886894654078787E-008
  -6.7199999999999996E-002    -1.6731746654841118E-008
  -6.6099999999999992E-002     2.5256252200733798E-008
  -6.5000000000000002E-002     8.4101458242002991E-008
  -6.3899999999999985E-002     1.1801763832863799E-007
  -6.2799999999999995E-002     7.2471742385005200E-008
  -6.1699999999999991E-002    -7.8376025669513183E-008
  -6.0599999999999994E-002    -2.8540469543258951E-007
  -5.9499999999999990E-002    -4.1278704543401545E-007
  -5.8399999999999994E-002    -2.9418967528727080E-007
  -5.7299999999999990E-002     1.4895289268679335E-007
  -5.6199999999999986E-002     7.8825058835718664E-007
  -5.5099999999999996E-002     1.2617028914974071E-006
  -5.3999999999999992E-002     1.1074595249738195E-006
  -5.2899999999999989E-002     4.1372807402240142E-008
  -5.1799999999999985E-002    -1.7416599575881264E-006
  -5.0699999999999995E-002    -3.4274692097824300E-006
  -4.9599999999999991E-002    -3.7735708247055300E-006
  -4.8499999999999988E-002    -1.6938469116212218E-006
  -4.7399999999999998E-002     2.8964952889509732E-006
  -4.6299999999999994E-002     8.3656314018298872E-006
  -4.5199999999999990E-002     1.1381990589143243E-005
  -4.4099999999999986E-002     8.2083506640628912E-006
  -4.2999999999999997E-002    -2.7617611522146035E-006
  -4.1899999999999993E-002    -1.8345903299632482E-005
  -4.0799999999999989E-002    -2.9910979719716124E-005
  -3.9699999999999985E-002    -2.6663374228519388E-005
  -3.8599999999999995E-002    -2.7450309971754905E-006
  -3.7499999999999992E-002     3.5439621569821611E-005
  -3.6399999999999988E-002     6.7615139414556324E-005
  -3.5299999999999984E-002     6.8128349084872752E-005
  -3.4199999999999994E-002     2.2644822820439003E-005
  -3.3099999999999991E-002    -5.6556444178568199E-005
  -3.1999999999999987E-002    -1.2919270375277847E-004
  -3.0899999999999997E-002    -1.4552939683198929E-004
  -2.9799999999999993E-002    -7.7237506047822535E-005
  -2.8699999999999989E-002     5.8571768022375181E-005
  -2.7599999999999986E-002     2.0027287246193737E-004
  -2.6499999999999996E-002     2.7040558052249253E-004
  -2.5399999999999992E-002     2.1571874094661325E-004
  -2.4299999999999988E-002     3.4899392630904913E-005
  -2.3199999999999985E-002    -2.1843204740434885E-004
  -2.2099999999999995E-002    -4.5092019718140364E-004
  -2.0999999999999991E-002    -5.4965092567726970E-004
  -1.9899999999999987E-002    -4.0779725532047451E-004
  -1.8799999999999983E-002     2.7314137696521357E-005
  -1.7699999999999994E-002     6.7820725962519646E-004
  -1.6599999999999990E-002     1.2757198419421911E-003
  -1.5499999999999986E-002     1.3998777139931917E-003
  -1.4399999999999996E-002     6.8810622906312346E-004
  -1.3299999999999992E-002    -8.4501405945047736E-004
  -1.2199999999999989E-002    -2.5857852306216955E-003
  -1.1099999999999985E-002    -3.4521319903433323E-003
  -9.9999999999999950E-003    -2.4621968623250723E-003
  -8.8999999999999913E-003     5.0739722792059183E-004
  -7.7999999999999875E-003     4.2881867848336697E-003
  -6.6999999999999837E-003     6.7635783925652504E-003
  -5.5999999999999939E-003     5.9886537492275238E-003
  -4.4999999999999901E-003     1.4995060628280044E-003
  -3.3999999999999864E-003    -5.0514326430857182E-003
  -2.2999999999999826E-003    -1.0480676777660847E-002
  -1.1999999999999927E-003    -1.1662682518362999E-002
  -9.9999999999988987E-005    -7.2253104299306870E-003
   1.0000000000000148E-003     1.6263833967968822E-003
   2.1000000000000185E-003     1.1552846059203148E-002
   3.2000000000000084E-003     1.8408788368105888E-002
   4.3000000000000121E-003     1.8724210560321808E-002
   5.4000000000000159E-003     1.0868137702345848E-002
   6.5000000000000058E-003    -4.1126781143248081E-003
   7.6000000000000234E-003    -2.1951336413621902E-002
   8.7000000000000133E-003    -3.5405047237873077E-002
   9.8000000000000032E-003    -3.6198675632476807E-002
   1.0900000000000021E-002    -1.9007761031389236E-002
   1.2000000000000011E-002     1.3891601935029030E-002
   1.3100000000000001E-002     5.0387550145387650E-002
   1.4200000000000018E-002     7.1721397340297699E-002
   1.5300000000000008E-002     6.1385571956634521E-002
   1.6400000000000026E-002     1.5854759141802788E-002
   1.7500000000000016E-002    -4.9426615238189697E-002
   1.8600000000000005E-002   -0.10406276583671570
   1.9700000000000023E-002   -0.11663798242807388
   2.0800000000000013E-002    -7.2094038128852844E-002
   2.1900000000000003E-002     1.7088213935494423E-002
   2.3000000000000020E-002    0.11308858543634415
   2.4100000000000010E-002    0.16861754655838013
   2.5200000000000000E-002    0.14944021403789520
   2.6300000000000018E-002     5.2927922457456589E-002
   2.7400000000000008E-002    -8.6323462426662445E-002
   2.8500000000000025E-002   -0.20726326107978821
   2.9600000000000015E-002   -0.24648527801036835
   3.0700000000000005E-002   -0.16733779013156891
   3.1800000000000023E-002     1.7222892493009567E-002
   3.2900000000000013E-002    0.23922269046306610
   3.4000000000000002E-002    0.39470201730728149
   3.5100000000000020E-002    0.38527885079383850
   3.6200000000000010E-002    0.16861400008201599
   3.7300000000000028E-002   -0.20504307746887207
   3.8400000000000017E-002   -0.59297353029251099
   3.9500000000000007E-002   -0.80665749311447144
   4.0600000000000025E-002   -0.69277936220169067
   4.1700000000000015E-002   -0.21547572314739227
   4.2800000000000005E-002    0.50081413984298706
   4.3900000000000022E-002     1.1961494684219360
   4.5000000000000012E-002     1.5670582056045532
   4.6100000000000002E-002     1.3928160667419434
   4.7200000000000020E-002    0.64284133911132812
   4.8300000000000010E-002   -0.48546001315116882
   4.9400000000000027E-002    -1.6229554414749146
   5.0500000000000017E-002    -2.3640453815460205
   5.1600000000000007E-002    -2.4291889667510986
   5.2700000000000025E-002    -1.7857974767684937
   5.3800000000000014E-002   -0.67012935876846313
   5.4900000000000004E-002    0.50921487808227539
   5.6000000000000022E-002     1.3549010753631592
   5.7100000000000012E-002     1.6769533157348633
   5.8200000000000002E-002     1.6096658706665039
   5.9300000000000019E-002     1.5773437023162842
   6.0400000000000009E-002     2.0912909507751465
   6.1500000000000027E-002     3.4347424507141113
   6.2600000000000017E-002     5.3610625267028809
   6.3700000000000007E-002     6.9624657630920410
   6.4800000000000024E-002     6.8348126411437988
   6.5900000000000014E-002     3.5607151985168457
   6.7000000000000004E-002    -3.6155967712402344
   6.8100000000000022E-002    -14.180332183837891
   6.9200000000000012E-002    -26.105697631835938
   7.0300000000000029E-002    -36.159042358398438
   7.1400000000000019E-002    -40.724361419677734
   7.2500000000000009E-002    -36.838489532470703
   7.3600000000000027E-002    -23.000497817993164
   7.4700000000000016E-002    0.61943387985229492
   7.5800000000000006E-002     32.675662994384766
   7.6900000000000024E-002     71.610076904296875
   7.8000000000000014E-002     116.61942291259766
   7.9100000000000004E-002     168.18212890625000
   8.0200000000000021E-002     227.96110534667969
   8.1300000000000011E-002     298.25320434570312
   8.2400000000000029E-002     381.40609741210938
   8.3500000000000019E-002     479.62930297851562
   8.4600000000000009E-002     595.39471435546875
   8.5700000000000026E-002     732.30096435546875
   8.6800000000000016E-002     896.04229736328125
   8.7900000000000006E-002     1095.0998535156250
   8.9000000000000024E-002     1340.9320068359375
   9.0100000000000013E-002     1647.6925048828125
   9.1200000000000003E-002     2031.6632080078125
   9.2300000000000021E-002     2510.6364746093750
   9.3400000000000011E-002     3103.4641113281250
   9.4500000000000028E-002     3829.8823242187500
   9.5600000000000018E-002     4710.8520507812500
   9.6700000000000008E-002     5769.5776367187500
   9.7800000000000026E-002     7033.3579101562500
   9.8900000000000016E-002     8536.0751953125000
  0.10000000000000001          10320.767578125000
  0.10110000000000002          12441.315429687500
  0.10220000000000001          14962.531250000000
  0.10330000000000003          17958.421875000000
  0.10440000000000002          21509.521484375000
  0.10550000000000001          25700.886718750000
  0.10660000000000003          30622.082031250000
  0.10770000000000002          36370.226562500000
  0.10880000000000001          43054.683593750000
  0.10990000000000003          50801.863281250000
  0.11100000000000002          59757.609375000000
  0.11210000000000001          70086.312500000000
  0.11320000000000002          81966.929687500000
  0.11430000000000001          95588.929687500000
  0.11540000000000003          111149.21875000000
  0.11650000000000002          128852.07812500000
  0.11760000000000001          148911.37500000000
  0.11870000000000003          171553.01562500000
  0.11980000000000002          197015.31250000000
  0.12090000000000001          225546.03125000000
  0.12200000000000003          257395.93750000000
  0.12310000000000001          292812.28125000000
  0.12420000000000003          332034.09375000000
  0.12530000000000002          375286.31250000000
  0.12640000000000001          422777.34375000000
  0.12750000000000003          474693.68750000000
  0.12860000000000002          531193.50000000000
  0.12970000000000001          592394.56250000000
  0.13080000000000003          658367.37500000000
  0.13190000000000002          729121.93750000000
  0.13300000000000001          804602.06250000000
  0.13410000000000000          884678.81250000000
  0.13520000000000004          969142.31250000000
  0.13630000000000003          1057692.5000000000
  0.13740000000000002          1149927.7500000000
  0.13850000000000001          1245324.0000000000
  0.13960000000000000          1343223.1250000000
  0.14070000000000005          1442832.1250000000
  0.14180000000000004          1543229.2500000000
  0.14290000000000003          1643365.2500000000
  0.14400000000000002          1742073.8750000000
  0.14510000000000001          1838061.2500000000
  0.14620000000000000          1929906.6250000000
  0.14730000000000004          2016050.0000000000
  0.14840000000000003          2094800.8750000000
  0.14950000000000002          2164361.0000000000
  0.15060000000000001          2222860.2500000000
  0.15170000000000000          2268362.0000000000
  0.15280000000000005          2298910.5000000000
  0.15390000000000004          2312567.0000000000
  0.15500000000000003          2307397.0000000000
  0.15610000000000002          2281532.0000000000
  0.15720000000000001          2233183.2500000000
  0.15830000000000000          2160699.5000000000
  0.15940000000000004          2062591.0000000000
  0.16050000000000003          1937587.3750000000
  0.16160000000000002          1784683.7500000000
  0.16270000000000001          1603166.5000000000
  0.16380000000000000          1392691.1250000000
  0.16490000000000005          1153238.5000000000
  0.16600000000000004          885210.31250000000
  0.16710000000000003          589374.50000000000
  0.16820000000000002          266955.40625000000
  0.16930000000000001         -80366.390625000000
  0.17040000000000000         -450445.90625000000
  0.17150000000000004         -840659.37500000000
  0.17260000000000003         -1247965.0000000000
  0.17370000000000002         -1668909.0000000000
  0.17480000000000001         -2099657.5000000000
  0.17590000000000000         -2536009.0000000000
  0.17700000000000005         -2973445.0000000000
  0.17810000000000004         -3407174.7500000000
  0.17920000000000003         -3832232.2500000000
  0.18030000000000002         -4243568.0000000000
  0.18140000000000001         -4636126.0000000000
  0.18250000000000000         -5004869.5000000000
  0.18360000000000004         -5344876.0000000000
  0.18470000000000003         -5651366.5000000000
  0.18580000000000002         -5919876.0000000000
  0.18690000000000001         -6146297.5000000000
  0.18800000000000000         -6326983.5000000000
  0.18910000000000005         -6458776.0000000000
  0.19020000000000004         -6539100.5000000000
  0.19130000000000003         -6566004.5000000000
  0.19240000000000002         -6538220.0000000000
  0.19350000000000001         -6455185.0000000000
  0.19460000000000005         -6317056.5000000000
  0.19570000000000004         -6124685.5000000000
  0.19680000000000003         -5879634.0000000000
  0.19790000000000002         -5584166.0000000000
  0.19900000000000001         -5241257.0000000000
  0.20010000000000000         -4854554.0000000000
  0.20120000000000005         -4428219.0000000000
  0.20230000000000004         -3966922.0000000000
  0.20340000000000003         -3475743.5000000000
  0.20450000000000002         -2960142.7500000000
  0.20560000000000000         -2425860.7500000000
  0.20670000000000005         -1878857.6250000000
  0.20780000000000004         -1325160.2500000000
  0.20890000000000003         -770778.87500000000
