 -0.12000000000000000          0.0000000000000000     
 -0.11889999999999999          0.0000000000000000     
 -0.11780000000000000          0.0000000000000000     
 -0.11670000000000000          0.0000000000000000     
 -0.11559999999999999          0.0000000000000000     
 -0.11449999999999999          0.0000000000000000     
 -0.11340000000000000          0.0000000000000000     
 -0.11230000000000000          0.0000000000000000     
 -0.11119999999999999         -4.6316853547364812E-022
 -0.11009999999999999          2.5474268946179667E-021
 -0.10900000000000000          1.3431887225813208E-020
 -0.10790000000000000         -4.2148338646611700E-020
 -0.10679999999999999         -1.1996065341397815E-019
 -0.10569999999999999         -1.3895083327242328E-021
 -0.10460000000000000          3.9878811601003055E-019
 -0.10349999999999999          3.0985976366143864E-019
 -0.10239999999999999         -4.5853671582323113E-020
 -0.10130000000000000          1.8512845980189513E-018
 -0.10020000000000000          2.7998535518738295E-018
  -9.9099999999999994E-002     9.0271523057376681E-019
  -9.7999999999999990E-002    -7.6344072152765153E-018
  -9.6899999999999986E-002    -2.0914375050786648E-017
  -9.5799999999999996E-002    -3.3245775173212821E-017
  -9.4699999999999993E-002    -9.5315459501668843E-018
  -9.3599999999999989E-002     1.0429675498219810E-016
  -9.2499999999999999E-002     2.3330217571985339E-016
  -9.1399999999999995E-002     2.2571363401518172E-016
  -9.0299999999999991E-002     5.6455937074581194E-018
  -8.9200000000000002E-002    -5.8626157246432879E-016
  -8.8099999999999984E-002    -1.1022831495358315E-015
  -8.6999999999999994E-002    -9.2015783098635612E-016
  -8.5899999999999990E-002     2.4847933853853555E-016
  -8.4799999999999986E-002     2.0545550700470320E-015
  -8.3699999999999997E-002     3.4508490730472251E-015
  -8.2599999999999993E-002     3.3294324057724783E-015
  -8.1499999999999989E-002     2.9401106522259843E-016
  -8.0399999999999999E-002    -4.6840799163385457E-015
  -7.9299999999999995E-002    -7.9623350149543928E-015
  -7.8199999999999992E-002    -8.4480025310863273E-015
  -7.7100000000000002E-002    -4.7144346125528244E-015
  -7.5999999999999984E-002     4.3614751363990102E-015
  -7.4899999999999994E-002     1.6745993833148023E-014
  -7.3799999999999991E-002     2.6702174949237364E-014
  -7.2699999999999987E-002     2.7066424527545131E-014
  -7.1599999999999997E-002     1.2132152006378173E-014
  -7.0499999999999993E-002    -1.7493559701406251E-014
  -6.9399999999999989E-002    -5.7318285859829510E-014
  -6.8300000000000000E-002    -9.1315010294999027E-014
  -6.7199999999999996E-002    -9.2286347021328791E-014
  -6.6099999999999992E-002    -2.7206911718110835E-014
  -6.5000000000000002E-002     9.3238608565686387E-014
  -6.3899999999999985E-002     2.0979878533229634E-013
  -6.2799999999999995E-002     2.5739417650223750E-013
  -6.1699999999999991E-002     1.8065871064745775E-013
  -6.0599999999999994E-002    -4.2748295951255261E-014
  -5.9499999999999990E-002    -3.7105946570567538E-013
  -5.8399999999999994E-002    -6.3720518661894432E-013
  -5.7299999999999990E-002    -6.5857454038809049E-013
  -5.6199999999999986E-002    -3.2249268359929584E-013
  -5.5099999999999996E-002     3.5161364922084437E-013
  -5.3999999999999992E-002     1.1209108728010841E-012
  -5.2899999999999989E-002     1.5832662871723135E-012
  -5.1799999999999985E-002     1.2996365051851089E-012
  -5.0699999999999995E-002     7.9639962159705480E-014
  -4.9599999999999991E-002    -1.7969789068220110E-012
  -4.8499999999999988E-002    -3.3783119531005656E-012
  -4.7399999999999998E-002    -3.3627703486388549E-012
  -4.6299999999999994E-002    -1.0665348812444186E-012
  -4.5199999999999990E-002     2.7682947080498455E-012
  -4.4099999999999986E-002     6.0863740262984134E-012
  -4.2999999999999997E-002     6.4812218092402674E-012
  -4.1899999999999993E-002     2.7032150389655341E-012
  -4.0799999999999989E-002    -3.9484860693550505E-012
  -3.9699999999999985E-002    -9.6210817090991441E-012
  -3.8599999999999995E-002    -1.0199997964310814E-011
  -3.7499999999999992E-002    -4.1427542819827412E-012
  -3.6399999999999988E-002     5.8037142799949315E-012
  -3.5299999999999984E-002     1.3263565593057969E-011
  -3.4199999999999994E-002     1.2268917652658029E-011
  -3.3099999999999991E-002     1.9339148338293199E-012
  -3.1999999999999987E-002    -1.1381142556166068E-011
  -3.0899999999999997E-002    -1.7387875861363256E-011
  -2.9799999999999993E-002    -9.2636306611715291E-012
  -2.8699999999999989E-002     9.2694376480073615E-012
  -2.7599999999999986E-002     2.4266847212239817E-011
  -2.6499999999999996E-002     2.1749147621763498E-011
  -2.5399999999999992E-002    -7.8582106100011373E-013
  -2.4299999999999988E-002    -3.0228923530994933E-011
  -2.3199999999999985E-002    -4.6461872543757110E-011
  -2.2099999999999995E-002    -3.6826233035247569E-011
  -2.0999999999999991E-002    -3.7853088719064232E-012
  -1.9899999999999987E-002     3.6218143067978659E-011
  -1.8799999999999983E-002     6.4907489105703320E-011
  -1.7699999999999994E-002     7.1434858028851522E-011
  -1.6599999999999990E-002     5.7742921555359317E-011
  -1.5499999999999986E-002     2.9473194718132589E-011
  -1.4399999999999996E-002    -2.3895826289921374E-011
  -1.3299999999999992E-002    -1.1083417517099292E-010
  -1.2199999999999989E-002    -2.0868257122330647E-010
  -1.1099999999999985E-002    -2.3404606031007802E-010
  -9.9999999999999950E-003    -8.4103043973549063E-011
  -8.8999999999999913E-003     2.3368662560585562E-010
  -7.7999999999999875E-003     5.3108600850393373E-010
  -6.6999999999999837E-003     5.2163684483019779E-010
  -5.5999999999999939E-003     3.7741143543712496E-011
  -4.4999999999999901E-003    -7.1918510036184102E-010
  -3.3999999999999864E-003    -1.2443586161481335E-009
  -2.2999999999999826E-003    -1.0016647511434940E-009
  -1.1999999999999927E-003     1.5113094109509007E-010
  -9.9999999999988987E-005     1.6550369963397316E-009
   1.0000000000000148E-003     2.5919943968943926E-009
   2.1000000000000185E-003     2.3134933968549376E-009
   3.2000000000000084E-003     6.7232608369494073E-010
   4.3000000000000121E-003    -1.6869762253790554E-009
   5.4000000000000159E-003    -3.7996059631950629E-009
   6.5000000000000058E-003    -4.6430663758201263E-009
   7.6000000000000234E-003    -3.1948603762543826E-009
   8.7000000000000133E-003     8.3942719442120506E-010
   9.8000000000000032E-003     6.4412781775047279E-009
   1.0900000000000021E-002     1.0762024160726469E-008
   1.2000000000000011E-002     9.5684482559477146E-009
   1.3100000000000001E-002     1.1338432415186617E-009
   1.4200000000000018E-002    -1.0579118026043943E-008
   1.5300000000000008E-002    -1.8488551134510089E-008
   1.6400000000000026E-002    -1.5942255515710713E-008
   1.7500000000000016E-002    -3.2107756453569891E-009
   1.8600000000000005E-002     1.1876027272705869E-008
   1.9700000000000023E-002     1.9037484477735234E-008
   2.0800000000000013E-002     1.4772439271837357E-008
   2.1900000000000003E-002     5.5421165434665909E-009
   2.3000000000000020E-002    -2.4150581534598814E-009
   2.4100000000000010E-002    -7.1257053591011754E-009
   2.5200000000000000E-002    -1.2345612532271844E-008
   2.6300000000000018E-002    -2.4822462307838578E-008
   2.7400000000000008E-002    -3.7426627130798806E-008
   2.8500000000000025E-002    -2.9787738498043836E-008
   2.9600000000000015E-002     3.9506833360292148E-009
   3.0700000000000005E-002     4.9402068214021710E-008
   3.1800000000000023E-002     8.0212252839828579E-008
   3.2900000000000013E-002     7.6138178428664105E-008
   3.4000000000000002E-002     3.5397441422446718E-008
   3.5100000000000020E-002    -3.8190510309732417E-008
   3.6200000000000010E-002    -1.0312105303000862E-007
   3.7300000000000028E-002    -1.2094511703253374E-007
   3.8400000000000017E-002    -9.7009937860548234E-008
   3.9500000000000007E-002    -3.7426612919944091E-008
   4.0600000000000025E-002     4.3036340713342724E-008
   4.1700000000000015E-002     9.7017817779487814E-008
   4.2800000000000005E-002     8.1740040513977874E-008
   4.3900000000000022E-002     1.0953012719028266E-008
   4.5000000000000012E-002    -5.7287721233478806E-008
   4.6100000000000002E-002    -7.2565498498988745E-008
   4.7200000000000020E-002    -2.8769203908041163E-008
   4.8300000000000010E-002     4.1508563697334466E-008
   4.9400000000000027E-002     6.4934482679745997E-008
   5.0500000000000017E-002     3.9471522939038550E-008
   5.1600000000000007E-002     2.8267821861049924E-008
   5.2700000000000025E-002     7.6138185534091463E-008
   5.3800000000000014E-002     1.4030484862814774E-007
   5.4900000000000004E-002     1.1993448367775272E-007
   5.6000000000000022E-002     3.6415972459735713E-008
   5.7100000000000012E-002    -7.7658086183873820E-008
   5.8200000000000002E-002    -2.3247287117555970E-007
   5.9300000000000019E-002    -2.6506546646487550E-007
   6.0400000000000009E-002    -5.5250694686037605E-008
   6.1500000000000027E-002     2.5845295681392599E-007
   6.2600000000000017E-002     4.9474920160719194E-007
   6.3700000000000007E-002     4.7234178168764629E-007
   6.4800000000000024E-002     1.5456404867109086E-007
   6.5900000000000014E-002    -3.3228772622351244E-007
   6.7000000000000004E-002    -8.3339875800447771E-007
   6.8100000000000022E-002    -9.5154689461196540E-007
   6.9200000000000012E-002    -3.7710253764089430E-007
   7.0300000000000029E-002     4.6826772859276389E-007
   7.1400000000000019E-002     8.8586028823556262E-007
   7.2500000000000009E-002     5.1511960919015110E-007
   7.3600000000000027E-002    -2.2839881808067730E-007
   7.4700000000000016E-002    -6.0321360706439009E-007
   7.5800000000000006E-002    -4.8710251121519832E-007
   7.6900000000000024E-002    -5.9324804624338867E-008
   7.8000000000000014E-002     2.9715658911300125E-007
   7.9100000000000004E-002     2.8289730380492983E-007
   8.0200000000000021E-002     4.4564004042513261E-008
   8.1300000000000011E-002    -1.8969521420331148E-007
   8.2400000000000029E-002    -1.9988040378393634E-007
   8.3500000000000019E-002    -1.0413967288513959E-007
   8.4600000000000009E-002    -1.5913965967229160E-007
   8.5700000000000026E-002    -3.1497296504312544E-007
   8.6800000000000016E-002    -3.8117664757919556E-007
   8.7900000000000006E-002    -1.1890816153936612E-007
   8.9000000000000024E-002     3.5062879533143132E-007
   9.0100000000000013E-002     6.0589496797547326E-007
   9.1200000000000003E-002     5.3574450475935009E-007
   9.2300000000000021E-002     1.9352233948666253E-007
   9.3400000000000011E-002    -1.6397760305153497E-007
   9.4500000000000028E-002    -2.1795906945953902E-007
   9.5600000000000018E-002    -2.1592202870124311E-007
   9.6700000000000008E-002    -5.9481089920154773E-007
   9.7800000000000026E-002    -1.1366627177267219E-006
   9.8900000000000016E-002    -1.1040700655939872E-006
  0.10000000000000001         -1.2221835277159698E-007
  0.10110000000000002          1.2996332543480094E-006
  0.10220000000000001          1.8944481325888773E-006
  0.10330000000000003          1.0388928330939962E-006
  0.10440000000000002         -6.0703285953422892E-007
  0.10550000000000001         -1.8455511963111348E-006
  0.10660000000000003         -1.6499957382620778E-006
  0.10770000000000002         -1.9147745433656382E-007
  0.10880000000000001          1.7233371636393713E-006
  0.10990000000000003          3.0188925848051440E-006
  0.11100000000000002          2.8151889637229033E-006
  0.11210000000000001          1.1285225127721787E-006
  0.11320000000000002         -1.0062919955089455E-006
  0.11430000000000001         -2.3262919057742693E-006
  0.11540000000000003         -3.0433288884523790E-006
  0.11650000000000002         -3.1085139653441729E-006
  0.11760000000000001         -1.5929584833429544E-006
  0.11870000000000003          1.6011151728889672E-006
  0.11980000000000002          4.5833367039449513E-006
  0.12090000000000001          4.6322256821440533E-006
  0.12200000000000003          1.5848186194489244E-006
  0.12310000000000001         -2.2936992536415346E-006
  0.12420000000000003         -3.2877730973268626E-006
  0.12530000000000002         -6.4777339048305294E-007
  0.12640000000000001          2.3670409063925035E-006
  0.12750000000000003          2.9700038339797175E-006
  0.12860000000000002          8.1889299963222584E-007
  0.12970000000000001         -1.7070325384338503E-006
  0.13080000000000003         -2.4729583856242243E-006
  0.13190000000000002         -7.6184767294762423E-007
  0.13300000000000001          1.7966704035643488E-006
  0.13410000000000000          1.5359296412498225E-006
  0.13520000000000004         -2.6522179723542649E-006
  0.13630000000000003         -5.9766616686829366E-006
  0.13740000000000002         -4.7218472900567576E-006
  0.13850000000000001         -1.2629243428818882E-007
  0.13960000000000000          4.2492624743317720E-006
  0.14070000000000005          4.8440774662594777E-006
  0.14180000000000004          1.8700038708630018E-006
  0.14290000000000003         -1.1936995178984944E-006
  0.14400000000000002         -1.5338846424128860E-006
  0.14510000000000001          1.7799010265662218E-007
  0.14620000000000000          1.8939389292427222E-006
  0.14730000000000004          1.7289389688812662E-006
  0.14840000000000003         -3.4069040566464537E-007
  0.14950000000000002         -2.2392086975742131E-006
  0.15060000000000001         -1.2043939250361291E-006
  0.15170000000000000          2.6252350835420657E-006
  0.15280000000000005          4.8904203140409663E-006
  0.15390000000000004          3.1304207368521020E-006
  0.15500000000000003         -1.1555046057765139E-006
  0.15610000000000002         -5.0177263801742811E-006
  0.15720000000000001         -4.1051339394471142E-006
  0.15830000000000000          1.3704209322895622E-006
  0.15940000000000004          5.3793091865372844E-006
  0.16050000000000003          3.7496797631320078E-006
  0.16160000000000002         -2.4429118639091030E-006
  0.16270000000000001         -7.3643927862576675E-006
  0.16380000000000000         -5.1155043365724850E-006
  0.16490000000000005          3.4563463486847468E-006
  0.16600000000000004          9.6815310826059431E-006
  0.16710000000000003          6.1289392760954797E-006
  0.16820000000000002         -4.2680962906160858E-006
  0.16930000000000001         -1.0949576790153515E-005
  0.17040000000000000         -8.3421700765029527E-006
  0.17150000000000004         -3.8957887227297761E-007
  0.17260000000000003          4.8904203140409663E-006
  0.17370000000000002          1.9570875338104088E-006
  0.17480000000000001         -5.7021707107196562E-006
  0.17590000000000000         -9.3525404736283235E-006
  0.17700000000000005         -1.3021708582527936E-006
  0.17810000000000004          1.5352641639765352E-005
  0.17920000000000003          2.3989676265046000E-005
  0.18030000000000002          1.4733381249243394E-005
  0.18140000000000001         -5.2132827477180399E-006
  0.18250000000000000         -1.9081429854850285E-005
  0.18360000000000004         -1.6498468539793976E-005
  0.18470000000000003         -1.3999533621245064E-006
  0.18580000000000002          1.1164488569193054E-005
  0.18690000000000001          8.0967110989149660E-006
  0.18800000000000000         -6.1951386669534259E-006
  0.18910000000000005         -1.4673285477329046E-005
  0.19020000000000004         -5.5555092330905609E-006
  0.19130000000000003          1.2484488252084702E-005
  0.19240000000000002          1.9524488379829563E-005
  0.19350000000000001          7.0415280788438395E-006
  0.19460000000000005         -1.3540690815716516E-005
  0.19570000000000004         -2.2601430828217417E-005
  0.19680000000000003         -1.3002914784010500E-005
  0.19790000000000002          3.6518972592602950E-006
  0.19900000000000001          1.1262266525591258E-005
  0.20010000000000000          4.6948603085184004E-006
  0.20120000000000005         -5.8814343901758548E-006
  0.20230000000000004         -5.2458790378295816E-006
  0.20340000000000003          7.5793050200445578E-006
  0.20450000000000002          1.7520045730634592E-005
  0.20560000000000000          1.1278564670647029E-005
  0.20670000000000005         -7.7881004472146742E-006
  0.20780000000000004         -2.2226617147680372E-005
  0.20890000000000003         -1.7598467820789665E-005
