 -0.12000000000000000          0.0000000000000000
 -0.11914999999999999          0.0000000000000000
 -0.11830000000000000          0.0000000000000000
 -0.11745000000000000          0.0000000000000000
 -0.11660000000000000          0.0000000000000000
 -0.11574999999999999          0.0000000000000000
 -0.11490000000000000         -8.5646564341208316E-027
 -0.11405000000000000         -9.7915367713211906E-026
 -0.11320000000000000         -5.8544875613545569E-025
 -0.11234999999999999         -2.4168116739677025E-024
 -0.11150000000000000         -7.6625136604177483E-024
 -0.11065000000000000         -1.9623192461683449E-023
 -0.10979999999999999         -4.1441470685852642E-023
 -0.10894999999999999         -7.1759766238138403E-023
 -0.10810000000000000         -9.6658698923265751E-023
 -0.10725000000000000         -7.9805903599777291E-023
 -0.10639999999999999          4.2206149321475764E-023
 -0.10554999999999999          3.4622207922190371E-022
 -0.10470000000000000          8.7404640132865363E-022
 -0.10385000000000000          1.5380680096478861E-021
 -0.10299999999999999          1.9909941715990695E-021
 -0.10214999999999999          1.5093761814996551E-021
 -0.10130000000000000         -1.0074587610424959E-021
 -0.10045000000000000         -6.7776799484753430E-021
  -9.9599999999999994E-002    -1.6470956930876531E-020
  -9.8750000000000004E-002    -2.9077281393693190E-020
  -9.7900000000000001E-002    -4.0458525755511266E-020
  -9.7049999999999997E-002    -4.2056155293032618E-020
  -9.6199999999999994E-002    -2.0609103730359205E-020
  -9.5349999999999990E-002     3.9970864438347092E-020
  -9.4500000000000001E-002     1.5342534623485960E-019
  -9.3649999999999997E-002     3.2207868356746677E-019
  -9.2799999999999994E-002     5.2452472836149003E-019
  -9.1950000000000004E-002     7.0268294783018505E-019
  -9.1100000000000000E-002     7.5319849666236025E-019
  -9.0249999999999997E-002     5.3026540442865130E-019
  -8.9399999999999993E-002    -1.3220366709606327E-019
  -8.8549999999999990E-002    -1.3727162908636768E-018
  -8.7700000000000000E-002    -3.2273198738681135E-018
  -8.6849999999999997E-002    -5.5352097067168206E-018
  -8.5999999999999993E-002    -7.8443118902404400E-018
  -8.5150000000000003E-002    -9.3492986001000116E-018
  -8.4300000000000000E-002    -8.9046867206637097E-018
  -8.3449999999999996E-002    -5.1583000515482165E-018
  -8.2600000000000007E-002     3.1598846496134749E-018
  -8.1749999999999989E-002     1.6785508200225646E-017
  -8.0900000000000000E-002     3.5341116303486773E-017
  -8.0049999999999996E-002     5.6726926354974532E-017
  -7.9199999999999993E-002     7.6640538719503562E-017
  -7.8350000000000003E-002     8.8437158436845166E-017
  -7.7499999999999999E-002     8.3562123229335245E-017
  -7.6649999999999996E-002     5.2754876238005300E-017
  -7.5800000000000006E-002    -1.1880339024557589E-017
  -7.4949999999999989E-002    -1.1402215154047112E-016
  -7.4099999999999999E-002    -2.4982964670456041E-016
  -7.3249999999999996E-002    -4.0480159932099764E-016
  -7.2399999999999992E-002    -5.5166626880694001E-016
  -7.1550000000000002E-002    -6.5033021768473241E-016
  -7.0699999999999999E-002    -6.5089465450366722E-016
  -6.9849999999999995E-002    -5.0047337981646195E-016
  -6.9000000000000006E-002    -1.5398024488567137E-016
  -6.8149999999999988E-002     4.1179967267364886E-016
  -6.7299999999999999E-002     1.1825925940119553E-015
  -6.6449999999999995E-002     2.0922957970205821E-015
  -6.5599999999999992E-002     3.0136337537940428E-015
  -6.4750000000000002E-002     3.7579486039011875E-015
  -6.3899999999999998E-002     4.0879374240520467E-015
  -6.3049999999999995E-002     3.7458802640215908E-015
  -6.2199999999999998E-002     2.4976117753213954E-015
  -6.1350000000000002E-002     1.8931972038409668E-016
  -6.0499999999999998E-002    -3.1894523380875682E-015
  -5.9650000000000002E-002    -7.4468372231990493E-015
  -5.8799999999999998E-002    -1.2146761631770082E-014
  -5.7950000000000002E-002    -1.6598332153260288E-014
  -5.7099999999999998E-002    -1.9889361860429682E-014
  -5.6249999999999994E-002    -2.0972754932500423E-014
  -5.5400000000000005E-002    -1.8807292941932162E-014
  -5.4550000000000001E-002    -1.2544794143860342E-014
  -5.3699999999999998E-002    -1.7446559928731113E-015
  -5.2849999999999994E-002     1.3413721892853367E-014
  -5.2000000000000005E-002     3.1958397334921495E-014
  -5.1150000000000001E-002     5.2033655458188575E-014
  -5.0299999999999997E-002     7.0928901483599928E-014
  -4.9449999999999994E-002     8.5256544055211553E-014
  -4.8600000000000004E-002     9.1290228066324325E-014
  -4.7750000000000001E-002     8.5451272786729911E-014
  -4.6899999999999997E-002     6.4903956345711250E-014
  -4.6049999999999994E-002     2.8193464442973821E-014
  -4.5200000000000004E-002    -2.4161978759975001E-014
  -4.4350000000000001E-002    -8.9226033319607870E-014
  -4.3499999999999997E-002    -1.6144718251185334E-013
  -4.2649999999999993E-002    -2.3279436652445613E-013
  -4.1800000000000004E-002    -2.9327786833929919E-013
  -4.0950000000000000E-002    -3.3186163793315759E-013
  -4.0099999999999997E-002    -3.3771753010062409E-013
  -3.9249999999999993E-002    -3.0171454625078710E-013
  -3.8400000000000004E-002    -2.1798246030190147E-013
  -3.7550000000000000E-002    -8.5354079080554211E-014
  -3.6699999999999997E-002     9.1527615927908264E-014
  -3.5850000000000007E-002     3.0163669497183192E-013
  -3.5000000000000003E-002     5.2768527422220480E-013
  -3.4150000000000000E-002     7.4702808916362824E-013
  -3.3299999999999996E-002     9.3335133356784370E-013
  -3.2450000000000007E-002     1.0590479259311033E-012
  -3.1600000000000003E-002     1.0980823808143124E-012
  -3.0750000000000000E-002     1.0290707778707719E-012
  -2.9899999999999996E-002     8.3824759965980311E-013
  -2.9050000000000006E-002     5.2197611723313104E-013
  -2.8200000000000003E-002     8.8490520642570164E-014
  -2.7349999999999999E-002    -4.4137789805259821E-013
  -2.6499999999999996E-002    -1.0346332799419129E-012
  -2.5650000000000006E-002    -1.6477300239191430E-012
  -2.4800000000000003E-002    -2.2292671145099707E-012
  -2.3949999999999999E-002    -2.7235481367246718E-012
  -2.3099999999999996E-002    -3.0747068559175553E-012
  -2.2250000000000006E-002    -3.2310560164528545E-012
  -2.1400000000000002E-002    -3.1493122823007762E-012
  -2.0549999999999999E-002    -2.7983943434780487E-012
  -1.9699999999999995E-002    -2.1625504372684696E-012
  -1.8850000000000006E-002    -1.2436726276654316E-012
  -1.8000000000000002E-002    -6.2727512625602539E-014
  -1.7149999999999999E-002     1.3396925258375016E-012
  -1.6299999999999995E-002     2.9036490723632648E-012
  -1.5450000000000005E-002     4.5509235672085570E-012
  -1.4600000000000002E-002     6.1868389907440333E-012
  -1.3749999999999998E-002     7.7028659760159789E-012
  -1.2899999999999995E-002     8.9800833599261340E-012
  -1.2050000000000005E-002     9.8936143845946222E-012
  -1.1200000000000002E-002     1.0318151784589274E-011
  -1.0349999999999998E-002     1.0134675464384586E-011
  -9.5000000000000084E-003     9.2383389412314358E-012
  -8.6500000000000049E-003     7.5473947055747362E-012
  -7.8000000000000014E-003     5.0128407594075129E-012
  -6.9499999999999978E-003     1.6282759547698858E-012
  -6.1000000000000082E-003    -2.5607251800310011E-012
  -5.2500000000000047E-003    -7.4485583336761437E-012
  -4.4000000000000011E-003    -1.2863796266456988E-011
  -3.5499999999999976E-003    -1.8566596043806661E-011
  -2.7000000000000079E-003    -2.4250198615598114E-011
  -1.8500000000000044E-003    -2.9547221644657771E-011
  -1.0000000000000009E-003    -3.4041245113243366E-011
  -1.4999999999999736E-004    -3.7283828443146367E-011
   6.9999999999999230E-004    -3.8816794435975002E-011
   1.5499999999999958E-003    -3.8199164576289052E-011
   2.3999999999999994E-003    -3.5037762729681832E-011
   3.2500000000000029E-003    -2.9020105762135307E-011
   4.0999999999999925E-003    -1.9947872512319443E-011
   4.9499999999999961E-003    -7.7689057021082291E-012
   5.7999999999999996E-003     7.3943512693863988E-012
   6.6499999999999893E-003     2.5222321992317515E-011
   7.5000000000000067E-003     4.5183818147312175E-011
   8.3499999999999963E-003     6.6531545247637334E-011
   9.1999999999999860E-003     8.8309246645537948E-011
   1.0050000000000003E-002     1.0937150894983153E-010
   1.0899999999999993E-002     1.2841673040075931E-010
   1.1750000000000010E-002     1.4403288069591742E-010
   1.2600000000000000E-002     1.5475508714856074E-010
   1.3449999999999990E-002     1.5913337384503334E-010
   1.4300000000000007E-002     1.5580788904436120E-010
   1.5149999999999997E-002     1.4358885048813788E-010
   1.5999999999999986E-002     1.2153782407756153E-010
   1.6850000000000004E-002     8.9046628975925300E-011
   1.7699999999999994E-002     4.5910422646880556E-011
   1.8549999999999983E-002    -7.6088508212200608E-012
   1.9400000000000001E-002    -7.0731684633331754E-011
   2.0249999999999990E-002    -1.4212634011116869E-010
   2.1100000000000008E-002    -2.1989298528528796E-010
   2.1949999999999997E-002    -3.0156915631903889E-010
   2.2799999999999987E-002    -3.8415918320420917E-010
   2.3650000000000004E-002    -4.6418888729104661E-010
   2.4499999999999994E-002    -5.3778843314828260E-010
   2.5349999999999984E-002    -6.0080316154213427E-010
   2.6200000000000001E-002    -6.4893476381319536E-010
   2.7049999999999991E-002    -6.7791151416114013E-010
   2.7900000000000008E-002    -6.8368692932284743E-010
   2.8749999999999998E-002    -6.6266473457011647E-010
   2.9599999999999987E-002    -6.1194599731164720E-010
   3.0450000000000005E-002    -5.2959300002848288E-010
   3.1299999999999994E-002    -4.1490228526801849E-010
   3.2149999999999984E-002    -2.6867902350045586E-010
   3.3000000000000002E-002    -9.3502215127474962E-011
   3.3849999999999991E-002     1.0602849232966759E-010
   3.4700000000000009E-002     3.2307467074155193E-010
   3.5549999999999998E-002     5.4837839095813084E-010
   3.6399999999999988E-002     7.7012292937918466E-010
   3.7250000000000005E-002     9.7384013979934234E-010
   3.8099999999999995E-002     1.1423612146465287E-009
   3.8949999999999985E-002     1.2558042541415598E-009
   3.9800000000000002E-002     1.2915887290363855E-009
   4.0649999999999992E-002     1.2244610955384720E-009
   4.1500000000000009E-002     1.0265089286571897E-009
   4.2349999999999999E-002     6.6713816683318571E-010
   4.3199999999999988E-002     1.1299443853559992E-010
   4.4050000000000006E-002    -6.7220555979665292E-010
   4.4899999999999995E-002    -1.7279592771346695E-009
   4.5749999999999985E-002    -3.0974035832591933E-009
   4.6600000000000003E-002    -4.8279244125209165E-009
   4.7449999999999992E-002    -6.9719398309063133E-009
   4.8299999999999982E-002    -9.5879207509191399E-009
   4.9149999999999999E-002    -1.2741651970194002E-008
   4.9999999999999989E-002    -1.6507765612339704E-008
   5.0850000000000006E-002    -2.0971554524901650E-008
   5.1699999999999996E-002    -2.6231148029578304E-008
   5.2549999999999986E-002    -3.2400000810089644E-008
   5.3400000000000003E-002    -3.9609791411764346E-008
   5.4249999999999993E-002    -4.8013773566346590E-008
   5.5099999999999982E-002    -5.7790564778907124E-008
   5.5950000000000000E-002    -6.9148435002647264E-008
   5.6799999999999989E-002    -8.2330201728980428E-008
   5.7650000000000007E-002    -9.7618711880707608E-008
   5.8499999999999996E-002    -1.1534296752084181E-007
   5.9349999999999986E-002    -1.3588498576253641E-007
   6.0200000000000004E-002    -1.5968749027743018E-007
   6.1049999999999993E-002    -1.8726238542687093E-007
   6.1899999999999983E-002    -2.1920008179658282E-007
   6.2750000000000000E-002    -2.5617996550631504E-007
   6.3599999999999990E-002    -2.9898162676328798E-007
   6.4450000000000007E-002    -3.4849784814196040E-007
   6.5299999999999997E-002    -4.0574777869042426E-007
   6.6149999999999987E-002    -4.7189245744364234E-007
   6.7000000000000004E-002    -5.4825114598037322E-007
   6.7849999999999994E-002    -6.3631940105947073E-007
   6.8699999999999983E-002    -7.3778837863449029E-007
   6.9550000000000001E-002    -8.5456603771176505E-007
   7.0399999999999990E-002    -9.8880042791908700E-007
   7.1249999999999980E-002    -1.1429035641293738E-006
   7.2099999999999997E-002    -1.3195782116164675E-006
   7.2949999999999987E-002    -1.5218464048367948E-006
   7.3800000000000004E-002    -1.7530782361609312E-006
   7.4649999999999994E-002    -2.0170249898140506E-006
   7.5499999999999984E-002    -2.3178514177556022E-006
   7.6350000000000001E-002    -2.6601699228539857E-006
   7.7199999999999991E-002    -3.0490772808667285E-006
   7.8049999999999981E-002    -3.4901908793928930E-006
   7.8899999999999998E-002    -3.9896862089581705E-006
   7.9749999999999988E-002    -4.5543345615454868E-006
   8.0600000000000005E-002    -5.1915397767921415E-006
   8.1449999999999995E-002    -5.9093729528578274E-006
   8.2299999999999984E-002    -6.7166097217173736E-006
   8.3150000000000002E-002    -7.6227573910366878E-006
   8.3999999999999991E-002    -8.6380893270025168E-006
   8.4849999999999981E-002    -9.7736644161838373E-006
   8.5699999999999998E-002    -1.1041346360855786E-005
   8.6549999999999988E-002    -1.2453816706056303E-005
   8.7400000000000005E-002    -1.4024578637069718E-005
   8.8249999999999995E-002    -1.5767949674853791E-005
   8.9099999999999985E-002    -1.7699049244933924E-005
   8.9950000000000002E-002    -1.9833763381523655E-005
   9.0799999999999992E-002    -2.2188712723323304E-005
   9.1649999999999981E-002    -2.4781180319566440E-005
   9.2499999999999999E-002    -2.7629053185178656E-005
   9.3349999999999989E-002    -3.0750719918960738E-005
   9.4200000000000006E-002    -3.4164955203783150E-005
   9.5049999999999996E-002    -3.7890806418705641E-005
   9.5899999999999985E-002    -4.1947421489943408E-005
   9.6750000000000003E-002    -4.6353842113640540E-005
   9.7599999999999992E-002    -5.1128856222018493E-005
   9.8449999999999982E-002    -5.6290728977676391E-005
   9.9299999999999999E-002    -6.1856958841957356E-005
  0.10014999999999999         -6.7843985527674708E-005
  0.10099999999999998         -7.4266910667843472E-005
  0.10185000000000000         -8.1139125345761789E-005
  0.10269999999999999         -8.8471980387410428E-005
  0.10355000000000000         -9.6274397225098660E-005
  0.10439999999999999         -1.0455250663094688E-004
  0.10524999999999998         -1.1330918348285643E-004
  0.10610000000000000         -1.2254362621419017E-004
  0.10694999999999999         -1.3225092314020907E-004
  0.10779999999999998         -1.4242158393971532E-004
  0.10865000000000000         -1.5304113087525497E-004
  0.10949999999999999         -1.6408966474222239E-004
  0.11035000000000000         -1.7554134056975063E-004
  0.11119999999999999         -1.8736405596674150E-004
  0.11204999999999998         -1.9951899226485891E-004
  0.11290000000000000         -2.1196029805997036E-004
  0.11374999999999999         -2.2463470381610130E-004
  0.11459999999999998         -2.3748141744944887E-004
  0.11545000000000000         -2.5043162001316469E-004
  0.11629999999999999         -2.6340867972607422E-004
  0.11715000000000000         -2.7632775627998535E-004
  0.11799999999999999         -2.8909613278221244E-004
  0.11884999999999998         -3.0161297359940312E-004
  0.11970000000000000         -3.1376976710626147E-004
  0.12054999999999999         -3.2545068903526772E-004
  0.12139999999999998         -3.3653268884765070E-004
  0.12225000000000000         -3.4688640560219216E-004
  0.12309999999999999         -3.5637660147595302E-004
  0.12395000000000000         -3.6486309123162424E-004
  0.12479999999999999         -3.7220135127492908E-004
  0.12564999999999998         -3.7824412336779826E-004
  0.12650000000000000         -3.8284194382633607E-004
  0.12734999999999999         -3.8584478739235551E-004
  0.12819999999999998         -3.8710353856206866E-004
  0.12905000000000000         -3.8647104505564535E-004
  0.12989999999999999         -3.8380410475248133E-004
  0.13074999999999998         -3.7896484537571406E-004
  0.13159999999999999         -3.7182265743881281E-004
  0.13245000000000001         -3.6225578608973369E-004
  0.13329999999999997         -3.5015357049805247E-004
  0.13414999999999999         -3.3541742222654590E-004
  0.13500000000000001         -3.1796348506764284E-004
  0.13584999999999997         -2.9772408136156047E-004
  0.13669999999999999         -2.7464907997322896E-004
  0.13755000000000001         -2.4870795657454156E-004
  0.13839999999999997         -2.1989141235257252E-004
  0.13924999999999998         -1.8821263346357328E-004
  0.14010000000000000         -1.5370795240067108E-004
  0.14094999999999996         -1.1643839876788811E-004
  0.14179999999999998         -7.6491147504894865E-005
  0.14265000000000000         -3.3978592129563201E-005
  0.14350000000000002          1.0959489610623589E-005
  0.14434999999999998          5.8157447332942531E-005
  0.14520000000000000          1.0742247799423016E-004
  0.14605000000000001          1.5853659270896386E-004
  0.14689999999999998          2.1125613118251046E-004
  0.14774999999999999          2.6531371139973923E-004
  0.14860000000000001          3.2041902501211880E-004
  0.14944999999999997          3.7626089619436623E-004
  0.15029999999999999          4.3250923693361734E-004
  0.15115000000000001          4.8881678087767393E-004
  0.15199999999999997          5.4482242768080975E-004
  0.15284999999999999          6.0015353603552269E-004
  0.15370000000000000          6.5442907476833865E-004
  0.15454999999999997          7.0726274114335064E-004
  0.15539999999999998          7.5826658080713411E-004
  0.15625000000000000          8.0705434859013059E-004
  0.15709999999999996          8.5324497046167474E-004
  0.15794999999999998          8.9646666044710787E-004
  0.15880000000000000          9.3636032407995895E-004
  0.15965000000000001          9.7258305320692385E-004
  0.16049999999999998          1.0048121090731833E-003
  0.16134999999999999          1.0327479188023490E-003
  0.16220000000000001          1.0561177958215298E-003
  0.16304999999999997          1.0746788383680433E-003
  0.16389999999999999          1.0882207902014871E-003
  0.16475000000000001          1.0965684445846627E-003
  0.16559999999999997          1.0995842178683519E-003
  0.16644999999999999          1.0971694891893939E-003
  0.16730000000000000          1.0892665448599703E-003
  0.16814999999999997          1.0758600132498213E-003
  0.16899999999999998          1.0569763025987473E-003
  0.16985000000000000          1.0326851302621064E-003
  0.17069999999999996          1.0030988014357802E-003
  0.17154999999999998          9.6837126895033627E-004
  0.17240000000000000          9.2869717494788260E-004
  0.17325000000000002          8.8431104163442316E-004
  0.17409999999999998          8.3548373387523688E-004
  0.17494999999999999          7.8252181037389819E-004
  0.17580000000000001          7.2576398822012209E-004
  0.17664999999999997          6.6557723730767870E-004
  0.17749999999999999          6.0235514046001672E-004
  0.17835000000000001          5.3651360538221296E-004
  0.17919999999999997          4.6848609359030293E-004
  0.18004999999999999          3.9872116004396272E-004
  0.18090000000000001          3.2767636075226888E-004
  0.18174999999999997          2.5581572965720895E-004
  0.18259999999999998          1.8360491346819518E-004
  0.18345000000000000          1.1150642824951374E-004
  0.18429999999999996          3.9976373137129523E-005
  0.18514999999999998         -3.0540072915494899E-005
  0.18600000000000000         -9.9612766043007803E-005
  0.18684999999999996         -1.6683001052017184E-004
  0.18769999999999998         -2.3180191880166112E-004
  0.18855000000000000         -2.9416359073175416E-004
  0.18940000000000001         -3.5357857244485363E-004
  0.19024999999999997         -4.0974004233146425E-004
  0.19109999999999999         -4.6237394347780551E-004
  0.19195000000000001         -5.1124049168662408E-004
  0.19279999999999997         -5.5613520823641718E-004
  0.19364999999999999         -5.9689005274761345E-004
  0.19450000000000001         -6.3337412713374746E-004
  0.19534999999999997         -6.6549359358203429E-004
  0.19619999999999999         -6.9319129319662801E-004
  0.19705000000000000         -7.1644617668189430E-004
  0.19789999999999996         -7.3527225495768347E-004
  0.19874999999999998         -7.4971792768198332E-004
  0.19960000000000000         -7.5986311280852375E-004
  0.20044999999999996         -7.6581806759187245E-004
  0.20129999999999998         -7.6772112466183052E-004
  0.20215000000000000         -7.6573622906119258E-004
  0.20300000000000001         -7.6005050915081663E-004
  0.20384999999999998         -7.5087133778722144E-004
  0.20469999999999999         -7.3842374520427328E-004
  0.20555000000000001         -7.2294732993503225E-004
  0.20639999999999997         -7.0469369309830504E-004
  0.20724999999999999         -6.8392329933168587E-004
  0.20810000000000001         -6.6090274649304706E-004
  0.20894999999999997         -6.3590184099388241E-004
  0.20979999999999999         -6.0919101050227378E-004
  0.21065000000000000         -5.8103889215820395E-004
  0.21149999999999997         -5.5170981104644924E-004
  0.21234999999999998         -5.2146170659497912E-004
  0.21320000000000000         -4.9054400106696020E-004
  0.21404999999999996         -4.5919578958717849E-004
  0.21489999999999998         -4.2764446308649068E-004
  0.21575000000000000         -3.9610423781961138E-004
  0.21659999999999996         -3.6477471880013497E-004
  0.21744999999999998         -3.3384048006371357E-004
  0.21829999999999999         -3.0347012070934402E-004
  0.21915000000000001         -2.7381570588988686E-004
  0.21999999999999997         -2.4501276014413147E-004
  0.22084999999999999         -2.1718020887108821E-004
  0.22170000000000001         -1.9042025443170049E-004
  0.22254999999999997         -1.6481909542904744E-004
  0.22339999999999999         -1.4044709317292264E-004
  0.22425000000000000         -1.1735931093476926E-004
  0.22509999999999997         -9.5596495108553098E-005
  0.22594999999999998         -7.5185649480483032E-005
  0.22680000000000000         -5.6141239298653284E-005
  0.22764999999999996         -3.8465819255136311E-005
  0.22849999999999998         -2.2151187977116706E-005
  0.22935000000000000         -7.1794269169437049E-006
  0.23019999999999996          6.4761849914728614E-006
  0.23104999999999998          1.8849811966387452E-005
  0.23190000000000000          2.9982423479733253E-005
  0.23275000000000001          3.9920398230554223E-005
  0.23359999999999997          4.8714963729614803E-005
  0.23444999999999999          5.6420755349042474E-005
  0.23530000000000001          6.3095586674330147E-005
  0.23614999999999997          6.8798906932862822E-005
  0.23699999999999999          7.3591647383274152E-005
  0.23785000000000001          7.7535297374955832E-005
  0.23869999999999997          8.0691380891905991E-005
  0.23954999999999999          8.3120672378496946E-005
  0.24040000000000000          8.4883150057513107E-005
  0.24124999999999996          8.6037281213619072E-005
  0.24209999999999998          8.6639743332193915E-005
  0.24295000000000000          8.6745234183019301E-005
  0.24379999999999996          8.6406236626835692E-005
  0.24464999999999998          8.5672901951545937E-005
  0.24550000000000000          8.4592715987022457E-005
  0.24634999999999996          8.3210694988563265E-005
  0.24719999999999998          8.1569206756791488E-005
  0.24804999999999999          7.9707904051785298E-005
  0.24890000000000001          7.7663690457875260E-005
  0.24974999999999997          7.5470805266082230E-005
  0.25059999999999999          7.3160815426728592E-005
  0.25145000000000001          7.0762632075889619E-005
  0.25229999999999997          6.8302737249760140E-005
  0.25314999999999999          6.5805025725479971E-005
  0.25400000000000000          6.3291132848922063E-005
  0.25484999999999997          6.0780267941009357E-005
  0.25569999999999998          5.8289625434255578E-005
  0.25655000000000000          5.5834303755870433E-005
  0.25739999999999996          5.3427442475302975E-005
  0.25824999999999998          5.1080326774040714E-005
  0.25910000000000000          4.8802472912539530E-005
  0.25994999999999996          4.6601675585920672E-005
  0.26079999999999998          4.4484142575837106E-005
  0.26164999999999999          4.2454538225837370E-005
  0.26249999999999996          4.0516159212038833E-005
  0.26334999999999997          3.8670872068116268E-005
  0.26419999999999999          3.6919391155140657E-005
  0.26505000000000001          3.5261301988371409E-005
  0.26589999999999997          3.3695199269010677E-005
  0.26674999999999999          3.2218893425681007E-005
  0.26760000000000000          3.0829436113311126E-005
  0.26844999999999997          2.9523291975927429E-005
  0.26929999999999998          2.8296452706534936E-005
  0.27015000000000000          2.7144514092335260E-005
  0.27099999999999996          2.6062838577911841E-005
  0.27184999999999998          2.5046603780819521E-005
  0.27270000000000000          2.4090868406734856E-005
  0.27354999999999996          2.3190731463916682E-005
  0.27439999999999998          2.2341334356732139E-005
  0.27524999999999999          2.1537946407180408E-005
  0.27609999999999996          2.0776061601037143E-005
  0.27694999999999997          2.0051393452431461E-005
  0.27779999999999999          1.9359992567999999E-005
  0.27865000000000001          1.8698239939005950E-005
  0.27949999999999997          1.8062890181523544E-005
  0.28034999999999999          1.7451144913334766E-005
  0.28120000000000001          1.6860578665785053E-005
  0.28204999999999997          1.6289226288278500E-005
  0.28289999999999998          1.5735497463501576E-005
  0.28375000000000000          1.5198204666715991E-005
  0.28459999999999996          1.4676465115025756E-005
  0.28544999999999998          1.4169702220741805E-005
  0.28630000000000000          1.3677547368596679E-005
  0.28714999999999996          1.3199777317990973E-005
  0.28799999999999998          1.2736281723553360E-005
  0.28885000000000000          1.2286961549785675E-005
  0.28969999999999996          1.1851736626967713E-005
  0.29054999999999997          1.1430484861845324E-005
  0.29139999999999999          1.1023021397839668E-005
  0.29224999999999995          1.0629107665486086E-005
  0.29309999999999997          1.0248434514989652E-005
  0.29394999999999999          9.8806323000625387E-006
  0.29480000000000001          9.5252839086829480E-006
  0.29564999999999997          9.1819007453866059E-006
  0.29649999999999999          8.8499432447817652E-006
  0.29735000000000000          8.5287981271226047E-006
  0.29819999999999997          8.2178018881657605E-006
  0.29904999999999998          7.9162142347733473E-006
  0.29990000000000000          7.6232686021349821E-006
  0.30074999999999996          7.3381606781745305E-006
  0.30159999999999998          7.0600752306203192E-006
  0.30245000000000000          6.7882587577686562E-006
  0.30329999999999996          6.5220303597692907E-006
  0.30414999999999998          6.2608205035072776E-006
  0.30499999999999999          6.0042233327652311E-006
  0.30584999999999996          5.7520043844321985E-006
  0.30669999999999997          5.5041342015717864E-006
  0.30754999999999999          5.2607624702666029E-006
  0.30840000000000001          5.0222306782441239E-006
  0.30924999999999997          4.7890329645160175E-006
  0.31009999999999999          4.5618106702476691E-006
  0.31095000000000000          4.3413067147358479E-006
  0.31179999999999997          4.1283555126165364E-006
  0.31264999999999998          3.9238520824238962E-006
  0.31350000000000000          3.7287232470089791E-006
  0.31434999999999996          3.5439269539913520E-006
  0.31519999999999998          3.3704162206085994E-006
  0.31605000000000000          3.2091216481164527E-006
  0.31689999999999996          3.0609153629633118E-006
  0.31774999999999998          2.9265961770431505E-006
  0.31859999999999999          2.8068533318412676E-006
  0.31944999999999996          2.7022255390581333E-006
  0.32029999999999997          2.6130897978963444E-006
  0.32114999999999999          2.5396125716613876E-006
  0.32199999999999995          2.4817312971144759E-006
  0.32284999999999997          2.4391589421677623E-006
  0.32369999999999999          2.4113571451557628E-006
  0.32455000000000001          2.3975440512055454E-006
  0.32539999999999997          2.3967238644500108E-006
  0.32624999999999998          2.4076859278112044E-006
  0.32710000000000000          2.4290608639399370E-006
  0.32794999999999996          2.4593395967461263E-006
  0.32879999999999998          2.4969162150538186E-006
  0.32965000000000000          2.5401385699505701E-006
  0.33049999999999996          2.5873413091433879E-006
  0.33134999999999998          2.6368886482747534E-006
  0.33220000000000000          2.6872078837039049E-006
  0.33304999999999996          2.7368182298060134E-006
  0.33389999999999997          2.7843469118752745E-006
  0.33474999999999999          2.8285380868233969E-006
  0.33559999999999995          2.8682818382411385E-006
  0.33644999999999997          2.9026078176421618E-006
  0.33729999999999999          2.9307061156937678E-006
  0.33815000000000001          2.9519222512472807E-006
  0.33899999999999997          2.9657771678832376E-006
  0.33984999999999999          2.9719802435103840E-006
  0.34070000000000000          2.9704258374646501E-006
  0.34154999999999996          2.9611904479606077E-006
  0.34239999999999998          2.9445337058358306E-006
  0.34325000000000000          2.9208765494894620E-006