 -0.12000000000000000          0.0000000000000000
 -0.11914999999999999         -4.3466140743683891E-011
 -0.11830000000000000         -8.6977041116552008E-011
 -0.11745000000000000         -8.7462104415842073E-011
 -0.11660000000000000         -5.9495499689655355E-011
 -0.11574999999999999         -7.6735380351512463E-011
 -0.11490000000000000         -2.1229450407814715E-010
 -0.11405000000000000         -4.7576856915561583E-010
 -0.11320000000000000         -8.0828589271377011E-010
 -0.11234999999999999         -1.1374349650894169E-009
 -0.11150000000000000         -1.4339402359122012E-009
 -0.11065000000000000         -1.7152270924462973E-009
 -0.10979999999999999         -2.0039166568706259E-009
 -0.10894999999999999         -2.3020312690706835E-009
 -0.10810000000000000         -2.6217740466904332E-009
 -0.10725000000000000         -3.0368388658449731E-009
 -0.10639999999999999         -3.6693438936803667E-009
 -0.10554999999999999         -4.5741543197436437E-009
 -0.10470000000000000         -5.5953071619310365E-009
 -0.10385000000000000         -6.3371643619693922E-009
 -0.10299999999999999         -6.3286179730484512E-009
 -0.10214999999999999         -5.2965738349231395E-009
 -0.10130000000000000         -3.3473069334680663E-009
 -0.10045000000000000         -9.0410017790744169E-010
  -9.9599999999999994E-002     1.5539831014337875E-009
  -9.8750000000000004E-002     3.7301541367243803E-009
  -9.7900000000000001E-002     5.5119461739655352E-009
  -9.7049999999999997E-002     6.7296412989246449E-009
  -9.6199999999999994E-002     6.8923194563395088E-009
  -9.5349999999999990E-002     5.1646158317335106E-009
  -9.4500000000000001E-002     6.4836257634080809E-010
  -9.3649999999999997E-002    -7.2411751105687474E-009
  -9.2799999999999994E-002    -1.8620632581705502E-008
  -9.1950000000000004E-002    -3.3350499804670038E-008
  -9.1100000000000000E-002    -5.1451972291153422E-008
  -9.0249999999999997E-002    -7.3389807164622930E-008
  -8.9399999999999993E-002    -9.9998330113308311E-008
  -8.8549999999999990E-002    -1.3214071876432156E-007
  -8.7700000000000000E-002    -1.7042849691537122E-007
  -8.6849999999999997E-002    -2.1527747958459881E-007
  -8.5999999999999993E-002    -2.6727939664988362E-007
  -8.5150000000000003E-002    -3.2758959439793935E-007
  -8.4300000000000000E-002    -3.9801213558634312E-007
  -8.3449999999999996E-002    -4.8072561278741586E-007
  -8.2600000000000007E-002    -5.7790925896692191E-007
  -8.1749999999999989E-002    -6.9161901120355229E-007
  -8.0900000000000000E-002    -8.2405806042258091E-007
  -8.0049999999999996E-002    -9.7805932845021988E-007
  -7.9199999999999993E-002    -1.1574339174576557E-006
  -7.8350000000000003E-002    -1.3669680224283624E-006
  -7.7499999999999999E-002    -1.6121549203556504E-006
  -7.6649999999999996E-002    -1.8989599071395392E-006
  -7.5800000000000006E-002    -2.2338629163459588E-006
  -7.4949999999999989E-002    -2.6241929425222079E-006
  -7.4099999999999999E-002    -3.0785169819513687E-006
  -7.3249999999999996E-002    -3.6068464671369966E-006
  -7.2399999999999992E-002    -4.2205885918918390E-006
  -7.1550000000000002E-002    -4.9324176223781563E-006
  -7.0699999999999999E-002    -5.7563040173254503E-006
  -6.9849999999999995E-002    -6.7078454314210123E-006
  -6.9000000000000006E-002    -7.8047972698934846E-006
  -6.8149999999999988E-002    -9.0675825839405245E-006
  -6.7299999999999999E-002    -1.0519592055470194E-005
  -6.6449999999999995E-002    -1.2187237952347861E-005
  -6.5599999999999992E-002    -1.4099894930516945E-005
  -6.4750000000000002E-002    -1.6289980377648508E-005
  -6.3899999999999998E-002    -1.8793259824103043E-005
  -6.3049999999999995E-002    -2.1649391447070107E-005
  -6.2199999999999998E-002    -2.4902567158785146E-005
  -6.1350000000000002E-002    -2.8602048547913893E-005
  -6.0499999999999998E-002    -3.2802463464555310E-005
  -5.9650000000000002E-002    -3.7563895410058659E-005
  -5.8799999999999998E-002    -4.2952020967165454E-005
  -5.7950000000000002E-002    -4.9038440989540200E-005
  -5.7099999999999998E-002    -5.5901293928061583E-005
  -5.6249999999999994E-002    -6.3625983483876845E-005
  -5.5400000000000005E-002    -7.2305793418531511E-005
  -5.4550000000000001E-002    -8.2042122383416360E-005
  -5.3699999999999998E-002    -9.2944500425330267E-005
  -5.2849999999999994E-002    -1.0513049481281872E-004
  -5.2000000000000005E-002    -1.1872586949701169E-004
  -5.1150000000000001E-002    -1.3386511466382319E-004
  -5.0299999999999997E-002    -1.5069192947593025E-004
  -4.9449999999999994E-002    -1.6935966101462753E-004
  -4.8600000000000004E-002    -1.9003107926613116E-004
  -4.7750000000000001E-002    -2.1287788648049094E-004
  -4.6899999999999997E-002    -2.3808020179752438E-004
  -4.6049999999999994E-002    -2.6582625328223941E-004
  -4.5200000000000004E-002    -2.9631234702949760E-004
  -4.4350000000000001E-002    -3.2974272455800599E-004
  -4.3499999999999997E-002    -3.6632899279922030E-004
  -4.2649999999999993E-002    -4.0628898498978633E-004
  -4.1800000000000004E-002    -4.4984499465521553E-004
  -4.0950000000000000E-002    -4.9722213598368901E-004
  -4.0099999999999997E-002    -5.4864689593977448E-004
  -3.9249999999999993E-002    -6.0434592830954832E-004
  -3.8400000000000004E-002    -6.6454474050087328E-004
  -3.7550000000000000E-002    -7.2946577585379841E-004
  -3.6699999999999997E-002    -7.9932538621097795E-004
  -3.5850000000000007E-002    -8.7433076658423228E-004
  -3.5000000000000003E-002    -9.5467679548478764E-004
  -3.4150000000000000E-002    -1.0405430262333986E-003
  -3.3299999999999996E-002    -1.1320916197861337E-003
  -3.2450000000000007E-002    -1.2294637494364687E-003
  -3.1600000000000003E-002    -1.3327764981262186E-003
  -3.0750000000000000E-002    -1.4421184779932462E-003
  -2.9899999999999996E-002    -1.5575450735154685E-003
  -2.9050000000000006E-002    -1.6790745830482104E-003
  -2.8200000000000003E-002    -1.8066838950044416E-003
  -2.7349999999999999E-002    -1.9403060745014928E-003
  -2.6499999999999996E-002    -2.0798258258868177E-003
  -2.5650000000000006E-002    -2.2250760678056312E-003
  -2.4800000000000003E-002    -2.3758327865580058E-003
  -2.3949999999999999E-002    -2.5318121170175090E-003
  -2.3099999999999996E-002    -2.6926654331795429E-003
  -2.2250000000000006E-002    -2.8579775973974529E-003
  -2.1400000000000002E-002    -3.0272643738377403E-003
  -2.0549999999999999E-002    -3.1999711682284852E-003
  -1.9699999999999995E-002    -3.3754701467894914E-003
  -1.8850000000000006E-002    -3.5530596871531481E-003
  -1.8000000000000002E-002    -3.7319619438570609E-003
  -1.7149999999999999E-002    -3.9113242547920771E-003
  -1.6299999999999995E-002    -4.0902193691856673E-003
  -1.5450000000000005E-002    -4.2676481594649002E-003
  -1.4600000000000002E-002    -4.4425422466814034E-003
  -1.3749999999999998E-002    -4.6137677362869077E-003
  -1.2899999999999995E-002    -4.7801290440650287E-003
  -1.2050000000000005E-002    -4.9403724464155271E-003
  -1.1200000000000002E-002    -5.0931936557051301E-003
  -1.0349999999999998E-002    -5.2372444893195869E-003
  -9.5000000000000084E-003    -5.3711426131336920E-003
  -8.6500000000000049E-003    -5.4934803348745155E-003
  -7.8000000000000014E-003    -5.6028338455851538E-003
  -6.9499999999999978E-003    -5.6977737023497779E-003
  -6.1000000000000082E-003    -5.7768764842729275E-003
  -5.2500000000000047E-003    -5.8387354748135759E-003
  -4.4000000000000011E-003    -5.8819756610184173E-003
  -3.5499999999999976E-003    -5.9052655990112900E-003
  -2.7000000000000079E-003    -5.9073330967651071E-003
  -1.8500000000000044E-003    -5.8869765895756144E-003
  -1.0000000000000009E-003    -5.8430799936305079E-003
  -1.4999999999999736E-004    -5.7746262903942075E-003
   6.9999999999999230E-004    -5.6807101575100270E-003
   1.5499999999999958E-003    -5.5605508719340779E-003
   2.3999999999999994E-003    -5.4135084699566726E-003
   3.2500000000000029E-003    -5.2390922671618533E-003
   4.0999999999999925E-003    -5.0369726748332368E-003
   4.9499999999999961E-003    -4.8069924412180911E-003
   5.7999999999999996E-003    -4.5491724751305935E-003
   6.6499999999999893E-003    -4.2637211734128013E-003
   7.5000000000000067E-003    -3.9510392572293645E-003
   8.3499999999999963E-003    -3.6117251728346707E-003
   9.1999999999999860E-003    -3.2465770420412512E-003
   1.0050000000000003E-002    -2.8565951820375768E-003
   1.0899999999999993E-002    -2.4429776665363849E-003
   1.1750000000000010E-002    -2.0071188789999267E-003
   1.2600000000000000E-002    -1.5506030688228595E-003
   1.3449999999999990E-002    -1.0751981951689184E-003
   1.4300000000000007E-002    -5.8284707527950122E-004
   1.5149999999999997E-002    -7.5657110800607429E-005
   1.5999999999999986E-002     4.4411357146219776E-004
   1.6850000000000004E-002     9.7407000672815303E-004
   1.7699999999999994E-002     1.5116983775335718E-003
   1.8549999999999983E-002     2.0543831380424619E-003
   1.9400000000000001E-002     2.5994255350971873E-003
   2.0249999999999990E-002     3.1440627168116430E-003
   2.1100000000000008E-002     3.6854893105503043E-003
   2.1949999999999997E-002     4.2208798740934377E-003
   2.2799999999999987E-002     4.7474119947483705E-003
   2.3650000000000004E-002     5.2622878884577302E-003
   2.4499999999999994E-002     5.7627570750526484E-003
   2.5349999999999984E-002     6.2461398545494602E-003
   2.6200000000000001E-002     6.7098481803555300E-003
   2.7049999999999991E-002     7.1514065222699000E-003
   2.7900000000000008E-002     7.5684725023091263E-003
   2.8749999999999998E-002     7.9588560254974690E-003
   2.9599999999999987E-002     8.3205379594882712E-003
   3.0450000000000005E-002     8.6516857269196765E-003
   3.1299999999999994E-002     8.9506682400200197E-003
   3.2149999999999984E-002     9.2160658784974335E-003
   3.3000000000000002E-002     9.4466852788013898E-003
   3.3849999999999991E-002     9.6415634448056634E-003
   3.4700000000000009E-002     9.7999750771426003E-003
   3.5549999999999998E-002     9.9214384852996697E-003
   3.6399999999999988E-002     1.0005714504376272E-002
   3.7250000000000005E-002     1.0052808223647226E-002
   3.8099999999999995E-002     1.0062964712123621E-002
   3.8949999999999985E-002     1.0036663025450818E-002
   3.9800000000000002E-002     9.9746105865065084E-003
   4.0649999999999992E-002     9.8777335340190110E-003
   4.1500000000000009E-002     9.7471637459879534E-003
   4.2349999999999999E-002     9.5842278045291298E-003
   4.3199999999999988E-002     9.3904341939387397E-003
   4.4050000000000006E-002     9.1674526314131245E-003
   4.4899999999999995E-002     8.9171024091131285E-003
   4.5749999999999985E-002     8.6413312960021797E-003
   4.6600000000000003E-002     8.3421981248554440E-003
   4.7449999999999992E-002     8.0218510944166984E-003
   4.8299999999999982E-002     7.6825135908812885E-003
   4.9149999999999999E-002     7.3264615188045066E-003
   4.9999999999999989E-002     6.9560044449911264E-003
   5.0850000000000006E-002     6.5734656956106296E-003
   5.1699999999999996E-002     6.1811647158783768E-003
   5.2549999999999986E-002     5.7813977794597786E-003
   5.3400000000000003E-002     5.3764228053708191E-003
   5.4249999999999993E-002     4.9684429383355481E-003
   5.5099999999999982E-002     4.5595910779156271E-003
   5.5950000000000000E-002     4.1519173548463292E-003
   5.6799999999999989E-002     3.7473754313426745E-003
   5.7650000000000007E-002     3.3478122002313692E-003
   5.8499999999999996E-002     2.9549588345795007E-003
   5.9349999999999986E-002     2.5704220200303378E-003
   6.0200000000000004E-002     2.1956780268727995E-003
   6.1049999999999993E-002     1.8320678713636715E-003
   6.1899999999999983E-002     1.4807944513238369E-003
   6.2750000000000000E-002     1.1429195449176341E-003
   6.3599999999999990E-002     8.1936377053885574E-004
   6.4450000000000007E-002     5.1090652320821004E-004
   6.5299999999999997E-002     2.1818822270256149E-004
   6.6149999999999987E-002    -5.8286449662823744E-005
   6.7000000000000004E-002    -3.1814401630354317E-004
   6.7849999999999994E-002    -5.6113730281859406E-004
   6.8699999999999983E-002    -7.8713958693942552E-004
   6.9550000000000001E-002    -9.9613833025707487E-004
   7.0399999999999990E-002    -1.1882284021664490E-003
   7.1249999999999980E-002    -1.3636037287858538E-003
   7.2099999999999997E-002    -1.5225491361366217E-003
   7.2949999999999987E-002    -1.6654313117448075E-003
   7.3800000000000004E-002    -1.7926912129808646E-003
   7.4649999999999994E-002    -1.9048346116053239E-003
   7.5499999999999984E-002    -2.0024249298712547E-003
   7.6350000000000001E-002    -2.0860743353152832E-003
   7.7199999999999991E-002    -2.1564352294875817E-003
   7.8049999999999981E-002    -2.2141922611697649E-003
   7.8899999999999998E-002    -2.2600537895283378E-003
   7.9749999999999988E-002    -2.2947456532199546E-003
   8.0600000000000005E-002    -2.3190036473041175E-003
   8.1449999999999995E-002    -2.3335676705118322E-003
   8.2299999999999984E-002    -2.3391764997471743E-003
   8.3150000000000002E-002    -2.3365612695357809E-003
   8.3999999999999991E-002    -2.3264409292426203E-003
   8.4849999999999981E-002    -2.3095176063657507E-003
   8.5699999999999998E-002    -2.2864724530517874E-003
   8.6549999999999988E-002    -2.2579632024278679E-003
   8.7400000000000005E-002    -2.2246209571495030E-003
   8.8249999999999995E-002    -2.1870486893121525E-003
   8.9099999999999985E-002    -2.1458186635854560E-003
   8.9950000000000002E-002    -2.1014710455264088E-003
   9.0799999999999992E-002    -2.0545126914611081E-003
   9.1649999999999981E-002    -2.0054163144105895E-003
   9.2499999999999999E-002    -1.9546206949855424E-003
   9.3349999999999989E-002    -1.9025312036513784E-003
   9.4200000000000006E-002    -1.8495203092059316E-003
   9.5049999999999996E-002    -1.7959282041070043E-003
   9.5899999999999985E-002    -1.7420627282247005E-003
   9.6750000000000003E-002    -1.6882007461989210E-003
   9.7599999999999992E-002    -1.6345888581591715E-003
   9.8449999999999982E-002    -1.5814455732576266E-003
   9.9299999999999999E-002    -1.5289625069304180E-003
  0.10014999999999999         -1.4773070105393497E-003
  0.10099999999999998         -1.4266225026598519E-003
  0.10185000000000000         -1.3770304673680917E-003
  0.10269999999999999         -1.3286313839809656E-003
  0.10355000000000000         -1.2815064354543145E-003
  0.10439999999999999         -1.2357196806197517E-003
  0.10524999999999998         -1.1913197318255070E-003
  0.10610000000000000         -1.1483417645926307E-003
  0.10694999999999999         -1.1068083721928656E-003
  0.10779999999999998         -1.0667306521074111E-003
  0.10865000000000000         -1.0281094317904089E-003
  0.10949999999999999         -9.9093655204059812E-004
  0.11035000000000000         -9.5519649968119069E-004
  0.11119999999999999         -9.2086757706729945E-004
  0.11204999999999998         -8.8792318086983548E-004
  0.11290000000000000         -8.5633207573726933E-004
  0.11374999999999999         -8.2605904412613534E-004
  0.11459999999999998         -7.9706557994453501E-004
  0.11545000000000000         -7.6931094536282973E-004
  0.11629999999999999         -7.4275291763419189E-004
  0.11715000000000000         -7.1734862028237107E-004
  0.11799999999999999         -6.9305474470176772E-004
  0.11884999999999998         -6.6982778106035833E-004
  0.11970000000000000         -6.4762406539244847E-004
  0.12054999999999999         -6.2640005961930574E-004
  0.12139999999999998         -6.0611287079030067E-004
  0.12225000000000000         -5.8672074493927270E-004
  0.12309999999999999         -5.6818345737974963E-004
  0.12395000000000000         -5.5046204122883332E-004
  0.12479999999999999         -5.3351879519628292E-004
  0.12564999999999998         -5.1731698026127957E-004
  0.12650000000000000         -5.0182084386707370E-004
  0.12734999999999999         -4.8699596825963143E-004
  0.12819999999999998         -4.7280960953387816E-004
  0.12905000000000000         -4.5923060663522115E-004
  0.12989999999999999         -4.4622961728208002E-004
  0.13074999999999998         -4.3377856170635212E-004
  0.13159999999999999         -4.2185039679015822E-004
  0.13245000000000001         -4.1041905119023182E-004
  0.13329999999999997         -3.9945953696458641E-004
  0.13414999999999999         -3.8894812450265625E-004
  0.13500000000000001         -3.7886232728327296E-004
  0.13584999999999997         -3.6918088406866396E-004
  0.13669999999999999         -3.5988347476642813E-004
  0.13755000000000001         -3.5095053696168545E-004
  0.13839999999999997         -3.4236319627037781E-004
  0.13924999999999998         -3.3410353532103146E-004
  0.14010000000000000         -3.2615447559662029E-004
  0.14094999999999996         -3.1849988993606980E-004
  0.14179999999999998         -3.1112460376185656E-004
  0.14265000000000000         -3.0401395158806090E-004
  0.14350000000000002         -2.9715392387710642E-004
  0.14434999999999998         -2.9053104081629838E-004
  0.14520000000000000         -2.8413247185050429E-004
  0.14605000000000001         -2.7794614443610430E-004
  0.14689999999999998         -2.7196061743332302E-004
  0.14774999999999999         -2.6616514498314779E-004
  0.14860000000000001         -2.6054945320319302E-004
  0.14944999999999997         -2.5510380544560080E-004
  0.15029999999999999         -2.4981898232248763E-004
  0.15115000000000001         -2.4468632502066135E-004
  0.15199999999999997         -2.3969791015638012E-004
  0.15284999999999999         -2.3484649033273734E-004
  0.15370000000000000         -2.3012550389976737E-004
  0.15454999999999997         -2.2552879248671635E-004
  0.15539999999999998         -2.2105048054353433E-004
  0.15625000000000000         -2.1668505403188245E-004
  0.15709999999999996         -2.1242747651071023E-004
  0.15794999999999998         -2.0827337731845453E-004
  0.15880000000000000         -2.0421907145387315E-004
  0.15965000000000001         -2.0026129695401254E-004
  0.16049999999999998         -1.9639698323446847E-004
  0.16134999999999999         -1.9262312308584715E-004
  0.16220000000000001         -1.8893697734217229E-004
  0.16304999999999997         -1.8533624269048707E-004
  0.16389999999999999         -1.8181931310256260E-004
  0.16475000000000001         -1.7838503542831364E-004
  0.16559999999999997         -1.7503239170056059E-004
  0.16644999999999999         -1.7176021756646118E-004
  0.16730000000000000         -1.6856714643072459E-004
  0.16814999999999997         -1.6545187457347430E-004
  0.16899999999999998         -1.6241347631136129E-004
  0.16985000000000000         -1.5945136689296860E-004
  0.17069999999999996         -1.5656513589545239E-004
  0.17154999999999998         -1.5375424985944729E-004
  0.17240000000000000         -1.5101787693293738E-004
  0.17325000000000002         -1.4835498355551937E-004
  0.17409999999999998         -1.4576458036983584E-004
  0.17494999999999999         -1.4324583121463099E-004
  0.17580000000000001         -1.4079803746941109E-004
  0.17664999999999997         -1.3842033630896125E-004
  0.17749999999999999         -1.3611154217894940E-004
  0.17835000000000001         -1.3387007165205117E-004
  0.17919999999999997         -1.3169404890222994E-004
  0.18004999999999999         -1.2958151467125619E-004
  0.18090000000000001         -1.2753057023343140E-004
  0.18174999999999997         -1.2553929994955150E-004
  0.18259999999999998         -1.2360578639306603E-004
  0.18345000000000000         -1.2172799929719706E-004
  0.18429999999999996         -1.1990369838904070E-004
  0.18514999999999998         -1.1813041337262301E-004
  0.18600000000000000         -1.1640559307681895E-004
  0.18684999999999996         -1.1472674744563510E-004
  0.18769999999999998         -1.1309156100500873E-004
  0.18855000000000000         -1.1149782258416500E-004
  0.18940000000000001         -1.0994325511139322E-004
  0.19024999999999997         -1.0842533505509428E-004
  0.19109999999999999         -1.0694134562112354E-004
  0.19195000000000001         -1.0548870315674956E-004
  0.19279999999999997         -1.0406530887645761E-004
  0.19364999999999999         -1.0266972214693927E-004
  0.19450000000000001         -1.0130093543329935E-004
  0.19534999999999997         -9.9957989422551504E-005
  0.19619999999999999         -9.8639772079354187E-005
  0.19705000000000000         -9.7345156894588478E-005
  0.19789999999999996         -9.6073466504646341E-005
  0.19874999999999998         -9.4824866801350856E-005
  0.19960000000000000         -9.3600243316294005E-005
  0.20044999999999996         -9.2400853934785591E-005
  0.20129999999999998         -9.1227898512220192E-005
  0.20215000000000000         -9.0082519903076220E-005
  0.20300000000000001         -8.8966189446595593E-005
  0.20384999999999998         -8.7881245860613533E-005
  0.20469999999999999         -8.6831060868327193E-005
  0.20555000000000001         -8.5819789372382048E-005
  0.20639999999999997         -8.4851932206354960E-005
  0.20724999999999999         -8.3932129226654411E-005
  0.20810000000000001         -8.3065344849698227E-005
  0.20894999999999997         -8.2257328923906689E-005
  0.20979999999999999         -8.1514869204050863E-005
  0.21065000000000000         -8.0845760147559253E-005
  0.21149999999999997         -8.0258472435212170E-005
  0.21234999999999998         -7.9761905666896212E-005
  0.21320000000000000         -7.9365352939235017E-005
  0.21404999999999996         -7.9078729872705572E-005
  0.21489999999999998         -7.8912811985576168E-005
  0.21575000000000000         -7.8879327150576135E-005
  0.21659999999999996         -7.8990920619895192E-005
  0.21744999999999998         -7.9261154101405314E-005
  0.21829999999999999         -7.9704500631776927E-005
  0.21915000000000001         -8.0336377370465549E-005
  0.21999999999999997         -8.1173103724715994E-005
  0.22084999999999999         -8.2231833602226220E-005
  0.22170000000000001         -8.3530528140341161E-005
  0.22254999999999997         -8.5088086835232211E-005
  0.22339999999999999         -8.6924511378175628E-005
  0.22425000000000000         -8.9060925734414287E-005
  0.22509999999999997         -9.1519416584375803E-005
  0.22594999999999998         -9.4322754760712543E-005
  0.22680000000000000         -9.7494268656686740E-005
  0.22764999999999996         -1.0105797365786217E-004
  0.22849999999999998         -1.0503882847010722E-004
  0.22935000000000000         -1.0946282969513777E-004
  0.23019999999999996         -1.1435674588848742E-004
  0.23104999999999998         -1.1974760254387446E-004
  0.23190000000000000         -1.2566223563924641E-004
  0.23275000000000001         -1.3212720585693304E-004
  0.23359999999999997         -1.3916899576966378E-004
  0.23444999999999999         -1.4681415693292390E-004
  0.23530000000000001         -1.5508907266874303E-004
  0.23614999999999997         -1.6401936203041891E-004
  0.23699999999999999         -1.7362917388471635E-004
  0.23785000000000001         -1.8394074255522998E-004
  0.23869999999999997         -1.9497428952253563E-004
  0.23954999999999999         -2.0674800630303083E-004
  0.24040000000000000         -2.1927792075067317E-004
  0.24124999999999996         -2.3257734166789797E-004
  0.24209999999999998         -2.4665614604228806E-004
  0.24295000000000000         -2.6152010206506246E-004
  0.24379999999999996         -2.7717041490531077E-004
  0.24464999999999998         -2.9360348504039351E-004
  0.24550000000000000         -3.1081056988383447E-004
  0.24634999999999996         -3.2877745773594218E-004
  0.24719999999999998         -3.4748392805321619E-004
  0.24804999999999999         -3.6690328717364307E-004
  0.24890000000000001         -3.8700176864587676E-004
  0.24974999999999997         -4.0773800882634562E-004
  0.25059999999999999         -4.2906299016629414E-004
  0.25145000000000001         -4.5091971921475962E-004
  0.25229999999999997         -4.7324318125003997E-004
  0.25314999999999999         -4.9596020011637469E-004
  0.25400000000000000         -5.1898925354570415E-004
  0.25484999999999997         -5.4224023389434859E-004
  0.25569999999999998         -5.6561423003233312E-004
  0.25655000000000000         -5.8900375313547407E-004
  0.25739999999999996         -6.1229319077233909E-004
  0.25824999999999998         -6.3535930902972721E-004
  0.25910000000000000         -6.5807176530920206E-004
  0.25994999999999996         -6.8029333654676734E-004
  0.26079999999999998         -7.0188047402924662E-004
  0.26164999999999999         -7.2268355234002138E-004
  0.26249999999999996         -7.4254813927237704E-004
  0.26334999999999997         -7.6131580065684306E-004
  0.26419999999999999         -7.7882562809746957E-004
  0.26505000000000001         -7.9491525590008421E-004
  0.26589999999999997         -8.0942182779115003E-004
  0.26674999999999999         -8.2218299855055135E-004
  0.26760000000000000         -8.3303816459861504E-004
  0.26844999999999997         -8.4183036731154870E-004
  0.26929999999999998         -8.4840776310351682E-004
  0.27015000000000000         -8.5262520640318543E-004
  0.27099999999999996         -8.5434575504408201E-004
  0.27184999999999998         -8.5344178522857458E-004
  0.27270000000000000         -8.4979656957650986E-004
  0.27354999999999996         -8.4330561947973479E-004
  0.27439999999999998         -8.3387843668968054E-004
  0.27524999999999999         -8.2143954062789757E-004
  0.27609999999999996         -8.0593002837225079E-004
  0.27694999999999997         -7.8730847316552045E-004
  0.27779999999999999         -7.6555209625243979E-004
  0.27865000000000001         -7.4065761093907345E-004
  0.27949999999999997         -7.1264219575293327E-004
  0.28034999999999999         -6.8154388215680968E-004
  0.28120000000000001         -6.4742200393161733E-004
  0.28204999999999997         -6.1035725666418509E-004
  0.28289999999999998         -5.7045192024945479E-004
  0.28375000000000000         -5.2782982686840182E-004
  0.28459999999999996         -4.8263596325257582E-004
  0.28544999999999998         -4.3503575441750965E-004
  0.28630000000000000         -3.8521395501357151E-004
  0.28714999999999996         -3.3337358863839886E-004
  0.28799999999999998         -2.7973495622844312E-004
  0.28885000000000000         -2.2453452553261816E-004
  0.28969999999999996         -1.6802356906492417E-004
  0.29054999999999997         -1.1046624118931794E-004
  0.29139999999999999         -5.2137433688307806E-005
  0.29224999999999995          6.6793913825677681E-006
  0.29309999999999997          6.5694310846773274E-005
  0.29394999999999999          1.2461267856992396E-004
  0.29480000000000001          1.8313739356687776E-004
  0.29564999999999997          2.4097117623239490E-004
  0.29649999999999999          2.9781921347629047E-004
  0.29735000000000000          3.5339173364360262E-004
  0.29819999999999997          4.0740634729549111E-004
  0.29904999999999998          4.5959007072260552E-004
  0.29990000000000000          5.0968119778962669E-004
  0.30074999999999996          5.5743122761341450E-004
  0.30159999999999998          6.0260738377460553E-004
  0.30245000000000000          6.4499396399485579E-004
  0.30329999999999996          6.8439467342273149E-004
  0.30414999999999998          7.2063339560807433E-004
  0.30499999999999999          7.5355553969882084E-004
  0.30584999999999996          7.8302899794888050E-004
  0.30669999999999997          8.0894518704900100E-004
  0.30754999999999999          8.3121972209689856E-004
  0.30840000000000001          8.4979275563390922E-004
  0.30924999999999997          8.6462906545364717E-004
  0.31009999999999999          8.7571786701987888E-004
  0.31095000000000000          8.8307261075201964E-004
  0.31179999999999997          8.8673049852995697E-004
  0.31264999999999998          8.8675173173566573E-004
  0.31350000000000000          8.8321869374902748E-004
  0.31434999999999996          8.7623462976280445E-004
  0.31519999999999998          8.6592208033459551E-004
  0.31605000000000000          8.5242185512722089E-004
  0.31689999999999996          8.3589148588744232E-004
  0.31774999999999998          8.1650379349719536E-004
  0.31859999999999999          7.9444495864394054E-004
  0.31944999999999996          7.6991253404230721E-004
  0.32029999999999997          7.4311348848180763E-004
  0.32114999999999999          7.1426228726807490E-004
  0.32199999999999995          6.8357914392823090E-004
  0.32284999999999997          6.5128836760329251E-004
  0.32369999999999999          6.1761634220415399E-004
  0.32455000000000001          5.8278973584944237E-004
  0.32539999999999997          5.4703357078418201E-004
  0.32624999999999998          5.1056948530919268E-004
  0.32710000000000000          4.7361436095822351E-004
  0.32794999999999996          4.3637897441217125E-004
  0.32879999999999998          3.9906676081180733E-004
  0.32965000000000000          3.6187239962483762E-004
  0.33049999999999996          3.2498082094339605E-004
  0.33134999999999998          2.8856611767959608E-004
  0.33220000000000000          2.5279093425892405E-004
  0.33304999999999996          2.1780585146353787E-004
  0.33389999999999997          1.8374901957684921E-004
  0.33474999999999999          1.5074571094879791E-004
  0.33559999999999995          1.1890804115695052E-004
  0.33644999999999997          8.8334902653257354E-005
  0.33729999999999999          5.9112049840136290E-005
  0.33815000000000001          3.1312285423090484E-005
  0.33899999999999997          4.9958167630836145E-006
  0.33984999999999999         -1.9789399151451552E-005
  0.34070000000000000         -4.3007185217978640E-005
  0.34154999999999996         -6.4632581684066000E-005
  0.34239999999999998         -8.4651180168346632E-005