 -0.12000000000000000          0.0000000000000000
 -0.11914999999999999          0.0000000000000000
 -0.11830000000000000          0.0000000000000000
 -0.11745000000000000          0.0000000000000000
 -0.11660000000000000          0.0000000000000000
 -0.11574999999999999          0.0000000000000000
 -0.11490000000000000          8.4398882235615131E-021
 -0.11405000000000000          4.0804542506884396E-020
 -0.11320000000000000          2.3417105061761639E-020
 -0.11234999999999999         -3.4748299094380694E-019
 -0.11150000000000000         -1.2438448228105265E-018
 -0.11065000000000000         -1.2693351779166867E-018
 -0.10979999999999999          3.6547436808840744E-018
 -0.10894999999999999          1.6607847467780048E-017
 -0.10810000000000000          2.8415210960569646E-017
 -0.10725000000000000          8.1865511963103937E-018
 -0.10639999999999999         -8.0174609350547112E-017
 -0.10554999999999999         -2.1982138675666464E-016
 -0.10470000000000000         -2.7681768310295282E-016
 -0.10385000000000000         -2.8281047034140155E-017
 -0.10299999999999999          6.3538944373543384E-016
 -0.10214999999999999          1.4156404601851823E-015
 -0.10130000000000000          1.5238389492239223E-015
 -0.10045000000000000          1.4095398050138350E-016
  -9.9599999999999994E-002    -2.6522225440642093E-015
  -9.8750000000000004E-002    -5.2044274170867672E-015
  -9.7900000000000001E-002    -4.8897888187979215E-015
  -9.7049999999999997E-002    -2.2783744635566263E-016
  -9.6199999999999994E-002     6.8158635942579111E-015
  -9.5349999999999990E-002     1.0810265198812161E-014
  -9.4500000000000001E-002     6.5911479536777707E-015
  -9.3649999999999997E-002    -5.0534687262803898E-015
  -9.2799999999999994E-002    -1.4760719496989456E-014
  -9.1950000000000004E-002    -9.6460708723568868E-015
  -9.1100000000000000E-002     1.4883015899997373E-014
  -9.0249999999999997E-002     4.4927485694030095E-014
  -8.9399999999999993E-002     5.0577546879892504E-014
  -8.8549999999999990E-002     5.2369812861781739E-015
  -8.7700000000000000E-002    -8.7908487988046746E-014
  -8.6849999999999997E-002    -1.8249828341917781E-013
  -8.5999999999999993E-002    -2.0532161220324133E-013
  -8.5150000000000003E-002    -9.9981922624474827E-014
  -8.4300000000000000E-002     1.2702390772286544E-013
  -8.3449999999999996E-002     3.9089095576456525E-013
  -8.2600000000000007E-002     5.6091923205861737E-013
  -8.1749999999999989E-002     5.2626220259638966E-013
  -8.0900000000000000E-002     2.5552765040136837E-013
  -8.0049999999999996E-002    -1.8748466435572572E-013
  -7.9199999999999993E-002    -6.7975151072295126E-013
  -7.8350000000000003E-002    -1.0971164027400077E-012
  -7.7499999999999999E-002    -1.3484797789571642E-012
  -7.6649999999999996E-002    -1.3600901291271361E-012
  -7.5800000000000006E-002    -1.0296696927561896E-012
  -7.4949999999999989E-002    -2.0934675704982848E-013
  -7.4099999999999999E-002     1.2245492041114964E-012
  -7.3249999999999996E-002     3.2093388313742928E-012
  -7.2399999999999992E-002     5.3168190423415239E-012
  -7.1550000000000002E-002     6.6904608254569044E-012
  -7.0699999999999999E-002     6.2168854962004129E-012
  -6.9849999999999995E-002     2.9460276188569690E-012
  -6.9000000000000006E-002    -3.3730600548171386E-012
  -6.8149999999999988E-002    -1.1877166445958560E-011
  -6.7299999999999999E-002    -2.0512418721597614E-011
  -6.6449999999999995E-002    -2.6368919810408609E-011
  -6.5599999999999992E-002    -2.6317401046334446E-011
  -6.4750000000000002E-002    -1.7750069071796836E-011
  -6.3899999999999998E-002     7.0431892028770438E-013
  -6.3049999999999995E-002     2.8472476813244310E-011
  -6.2199999999999998E-002     6.2266775377856700E-011
  -6.1350000000000002E-002     9.5365958330090193E-011
  -6.0499999999999998E-002     1.1740982913487781E-010
  -5.9650000000000002E-002     1.1541823557637578E-010
  -5.8799999999999998E-002     7.6577176513702703E-011
  -5.7950000000000002E-002    -7.3378730051739814E-012
  -5.7099999999999998E-002    -1.3494323392047932E-010
  -5.6249999999999994E-002    -2.9132919793244000E-010
  -5.5400000000000005E-002    -4.4692594921980813E-010
  -5.4550000000000001E-002    -5.6012924035613955E-010
  -5.3699999999999998E-002    -5.8363830241611168E-010
  -5.2849999999999994E-002    -4.7364105125385242E-010
  -5.2000000000000005E-002    -2.0066345880463689E-010
  -5.1150000000000001E-002     2.3902567345960939E-010
  -5.0299999999999997E-002     8.1247531027764851E-010
  -4.9449999999999994E-002     1.4408127532865414E-009
  -4.8600000000000004E-002     1.9934139792642365E-009
  -4.7750000000000001E-002     2.2875344208473222E-009
  -4.6899999999999997E-002     2.0951287292087644E-009
  -4.6049999999999994E-002     1.1573263726650446E-009
  -4.5200000000000004E-002    -7.9500460199201642E-010
  -4.4350000000000001E-002    -4.0183299742676951E-009
  -4.3499999999999997E-002    -8.7363045462327646E-009
  -4.2649999999999993E-002    -1.5127543016391770E-008
  -4.1800000000000004E-002    -2.3324913323592967E-008
  -4.0950000000000000E-002    -3.3427470799820796E-008
  -4.0099999999999997E-002    -4.5523714735860296E-008
  -3.9249999999999993E-002    -5.9723338175257635E-008
  -3.8400000000000004E-002    -7.6194104501502963E-008
  -3.7550000000000000E-002    -9.5200473378894911E-008
  -3.6699999999999997E-002    -1.1714007203310402E-007
  -3.5850000000000007E-002    -1.4257342282443319E-007
  -3.5000000000000003E-002    -1.7224184330456772E-007
  -3.4150000000000000E-002    -2.0707038376746783E-007
  -3.3299999999999996E-002    -2.4815678497919492E-007
  -3.2450000000000007E-002    -2.9675252392640158E-007
  -3.1600000000000003E-002    -3.5424607627615677E-007
  -3.0750000000000000E-002    -4.2215845843618044E-007
  -2.9899999999999996E-002    -5.0215708144202339E-007
  -2.9050000000000006E-002    -5.9608840288083111E-007
  -2.8200000000000003E-002    -7.0602536322123250E-007
  -2.7349999999999999E-002    -8.3432528087316615E-007
  -2.6499999999999996E-002    -9.8369466932756568E-007
  -2.5650000000000006E-002    -1.1572594076659912E-006
  -2.4800000000000003E-002    -1.3586374809907565E-006
  -2.3949999999999999E-002    -1.5920100439981395E-006
  -2.3099999999999996E-002    -1.8621842741704542E-006
  -2.2250000000000006E-002    -2.1746438456876959E-006
  -2.1400000000000002E-002    -2.5355878066663468E-006
  -2.0549999999999999E-002    -2.9519652998265596E-006
  -1.9699999999999995E-002    -3.4315184965111495E-006
  -1.8850000000000006E-002    -3.9828423403707777E-006
  -1.8000000000000002E-002    -4.6154717589876950E-006
  -1.7149999999999999E-002    -5.3399937435322234E-006
  -1.6299999999999995E-002    -6.1681807383696129E-006
  -1.5450000000000005E-002    -7.1131371743033980E-006
  -1.4600000000000002E-002    -8.1894467548522616E-006
  -1.3749999999999998E-002    -9.4133157172050136E-006
  -1.2899999999999995E-002    -1.0802706950876573E-005
  -1.2050000000000005E-002    -1.2377465114178964E-005
  -1.1200000000000002E-002    -1.4159434530029915E-005
  -1.0349999999999998E-002    -1.6172572312474864E-005
  -9.5000000000000084E-003    -1.8443056138399138E-005
  -8.6500000000000049E-003    -2.0999384766953077E-005
  -7.8000000000000014E-003    -2.3872484984449103E-005
  -6.9499999999999978E-003    -2.7095819603109323E-005
  -6.1000000000000082E-003    -3.0705517535994974E-005
  -5.2500000000000047E-003    -3.4740519951484763E-005
  -4.4000000000000011E-003    -3.9242729494872408E-005
  -3.5499999999999976E-003    -4.4257155938450507E-005
  -2.7000000000000079E-003    -4.9832013220064813E-005
  -1.8500000000000044E-003    -5.6018789892044579E-005
  -1.0000000000000009E-003    -6.2872266344689390E-005
  -1.4999999999999736E-004    -7.0450512189182808E-005
   6.9999999999999230E-004    -7.8814837559180209E-005
   1.5499999999999958E-003    -8.8029745773089869E-005
   2.3999999999999994E-003    -9.8162794096116256E-005
   3.2500000000000029E-003    -1.0928442985594394E-004
   4.0999999999999925E-003    -1.2146778049392586E-004
   4.9499999999999961E-003    -1.3478840652966513E-004
   5.7999999999999996E-003    -1.4932403159338499E-004
   6.6499999999999893E-003    -1.6515427145905070E-004
   7.5000000000000067E-003    -1.8236018809698721E-004
   8.3499999999999963E-003    -2.0102397103042563E-004
   9.1999999999999860E-003    -2.2122840503070983E-004
   1.0050000000000003E-002    -2.4305622699144003E-004
   1.0899999999999993E-002    -2.6658937926435041E-004
   1.1750000000000010E-002    -2.9190835672863167E-004
   1.2600000000000000E-002    -3.1909116252245255E-004
   1.3449999999999990E-002    -3.4821261451721265E-004
   1.4300000000000007E-002    -3.7934313391144804E-004
   1.5149999999999997E-002    -4.1254787825444013E-004
   1.5999999999999986E-002    -4.4788552503396707E-004
   1.6850000000000004E-002    -4.8540725353442456E-004
   1.7699999999999994E-002    -5.2515540910715269E-004
   1.8549999999999983E-002    -5.6716242196447949E-004
   1.9400000000000001E-002    -6.1144938481579362E-004
   2.0249999999999990E-002    -6.5802493073762749E-004
   2.1100000000000008E-002    -7.0688369953645367E-004
   2.1949999999999997E-002    -7.5800525831278768E-004
   2.2799999999999987E-002    -8.1135268632327848E-004
   2.3650000000000004E-002    -8.6687116987361568E-004
   2.4499999999999994E-002    -9.2448687898935512E-004
   2.5349999999999984E-002    -9.8410583054059451E-004
   2.6200000000000001E-002    -1.0456126411724869E-003
   2.7049999999999991E-002    -1.1088699204236522E-003
   2.7900000000000008E-002    -1.1737172719027739E-003
   2.8749999999999998E-002    -1.2399703481450282E-003
   2.9599999999999987E-002    -1.3074206916299318E-003
   3.0450000000000005E-002    -1.3758353007937900E-003
   3.1299999999999994E-002    -1.4449562259943450E-003
   3.2149999999999984E-002    -1.5145010064565958E-003
   3.3000000000000002E-002    -1.5841627949371613E-003
   3.3849999999999991E-002    -1.6536110854435569E-003
   3.4700000000000009E-002    -1.7224927285726969E-003
   3.5549999999999998E-002    -1.7904327154416584E-003
   3.6399999999999988E-002    -1.8570357072403916E-003
   3.7250000000000005E-002    -1.9218880852526616E-003
   3.8099999999999995E-002    -1.9845595822333179E-003
   3.8949999999999985E-002    -2.0446058720367277E-003
   3.9800000000000002E-002    -2.1015706815026829E-003
   4.0649999999999992E-002    -2.1549889920729043E-003
   4.1500000000000009E-002    -2.2043904272194747E-003
   4.2349999999999999E-002    -2.2493021481761015E-003
   4.3199999999999988E-002    -2.2892522624367749E-003
   4.4050000000000006E-002    -2.3237742592691246E-003
   4.4899999999999995E-002    -2.3524106654314154E-003
   4.5749999999999985E-002    -2.3747173915626492E-003
   4.6600000000000003E-002    -2.3902673699713580E-003
   4.7449999999999992E-002    -2.3986554066828618E-003
   4.8299999999999982E-002    -2.3995020379779198E-003
   4.9149999999999999E-002    -2.3924580662387364E-003
   4.9999999999999989E-002    -2.3772088944246567E-003
   5.0850000000000006E-002    -2.3534777706903914E-003
   5.1699999999999996E-002    -2.3210304108229724E-003
   5.2549999999999986E-002    -2.2796775718677779E-003
   5.3400000000000003E-002    -2.2292795267675465E-003
   5.4249999999999993E-002    -2.1697483530002523E-003
   5.5099999999999982E-002    -2.1010512758996799E-003
   5.5950000000000000E-002    -2.0232115200051058E-003
   5.6799999999999989E-002    -1.9363110874910084E-003
   5.7650000000000007E-002    -1.8404923346788116E-003
   5.8499999999999996E-002    -1.7359578688213419E-003
   5.9349999999999986E-002    -1.6229712845642254E-003
   6.0200000000000004E-002    -1.5018562241870077E-003
   6.1049999999999993E-002    -1.3729955828255969E-003
   6.1899999999999983E-002    -1.2368303819321872E-003
   6.2750000000000000E-002    -1.0938569274469138E-003
   6.3599999999999990E-002    -9.4462455277056784E-004
   6.4450000000000007E-002    -7.8973221890568971E-004
   6.5299999999999997E-002    -6.2982502736870960E-004
   6.6149999999999987E-002    -4.6558950169228117E-004
   6.7000000000000004E-002    -2.9774903116576722E-004
   6.7849999999999994E-002    -1.2705849448098731E-004
   6.8699999999999983E-002     4.5701158575901720E-005
   6.9550000000000001E-002     2.1972908889611001E-004
   7.0399999999999990E-002     3.9421064820447050E-004
   7.1249999999999980E-002     5.6832381844735386E-004
   7.2099999999999997E-002     7.4124576545671035E-004
   7.2949999999999987E-002     9.1215941687010057E-004
   7.3800000000000004E-002     1.0802600033840723E-003
   7.4649999999999994E-002     1.2447613232713995E-003
   7.5499999999999984E-002     1.4049023582108811E-003
   7.6350000000000001E-002     1.5599528305315499E-003
   7.7199999999999991E-002     1.7092195913037246E-003
   7.8049999999999981E-002     1.8520517708851597E-003
   7.8899999999999998E-002     1.9878457254324812E-003
   7.9749999999999988E-002     2.1160500264593824E-003
   8.0600000000000005E-002     2.2361690075867568E-003
   8.1449999999999995E-002     2.3477669081278883E-003
   8.2299999999999984E-002     2.4504699127257811E-003
   8.3150000000000002E-002     2.5439686751929386E-003
   8.3999999999999991E-002     2.6280206687535378E-003
   8.4849999999999981E-002     2.7024497353789500E-003
   8.5699999999999998E-002     2.7671475435978262E-003
   8.6549999999999988E-002     2.8220723877303705E-003
   8.7400000000000005E-002     2.8672488095786005E-003
   8.8249999999999995E-002     2.9027651857763386E-003
   8.9099999999999985E-002     2.9287720836530494E-003
   8.9950000000000002E-002     2.9454791733682494E-003
   9.0799999999999992E-002     2.9531521025636101E-003
   9.1649999999999981E-002     2.9521086199995271E-003
   9.2499999999999999E-002     2.9427138963675371E-003
   9.3349999999999989E-002     2.9253765422226820E-003
   9.4200000000000006E-002     2.9005435145301657E-003
   9.5049999999999996E-002     2.8686940497367731E-003
   9.5899999999999985E-002     2.8303356213245671E-003
   9.6750000000000003E-002     2.7859978949810035E-003
   9.7599999999999992E-002     2.7362273710260206E-003
   9.8449999999999982E-002     2.6815813016358367E-003
   9.9299999999999999E-002     2.6226231051557280E-003
  0.10014999999999999          2.5599163237802498E-003
  0.10099999999999998          2.4940192453873655E-003
  0.10185000000000000          2.4254812965334837E-003
  0.10269999999999999          2.3548373693116102E-003
  0.10355000000000000          2.2826044085603866E-003
  0.10439999999999999          2.2092767946854321E-003
  0.10524999999999998          2.1353230875363538E-003
  0.10610000000000000          2.0611832125850206E-003
  0.10694999999999999          1.9872654994525334E-003
  0.10779999999999998          1.9139447782509983E-003
  0.10865000000000000          1.8415610875904382E-003
  0.10949999999999999          1.7704174848455962E-003
  0.11035000000000000          1.7007797485629524E-003
  0.11119999999999999          1.6328758988409472E-003
  0.11204999999999998          1.5668961554003787E-003
  0.11290000000000000          1.5029935433810040E-003
  0.11374999999999999          1.4412849422960057E-003
  0.11459999999999998          1.3818523316491858E-003
  0.11545000000000000          1.3247445848389816E-003
  0.11629999999999999          1.2699788889427512E-003
  0.11715000000000000          1.2175431379955598E-003
  0.11799999999999999          1.1673981611408204E-003
  0.11884999999999998          1.1194806366068644E-003
  0.11970000000000000          1.0737051749914197E-003
  0.12054999999999999          1.0299675056602616E-003
  0.12139999999999998          9.8814692771431647E-004
  0.12225000000000000          9.4810941968397902E-004
  0.12309999999999999          9.0971017116349092E-004
  0.12395000000000000          8.7279661884973557E-004
  0.12479999999999999          8.3721124031609691E-004
  0.12564999999999998          8.0279406522243890E-004
  0.12650000000000000          7.6938549801587933E-004
  0.12734999999999999          7.3682831942110255E-004
  0.12819999999999998          7.0497002163104143E-004
  0.12905000000000000          6.7366436090502714E-004
  0.12989999999999999          6.4277332826870553E-004
  0.13074999999999998          6.1216880346087407E-004
  0.13159999999999999          5.8173392302881340E-004
  0.13245000000000001          5.5136413431945827E-004
  0.13329999999999997          5.2096823049973401E-004
  0.13414999999999999          4.9046861671909938E-004
  0.13500000000000001          4.5980180917545757E-004
  0.13584999999999997          4.2891871456451447E-004
  0.13669999999999999          3.9778480287851452E-004
  0.13755000000000001          3.6637981127784895E-004
  0.13839999999999997          3.3469765309651883E-004
  0.13924999999999998          3.0274561582759713E-004
  0.14010000000000000          2.7054361975455273E-004
  0.14094999999999996          2.3812340555705790E-004
  0.14179999999999998          2.0552778063470062E-004
  0.14265000000000000          1.7280956142058665E-004
  0.14350000000000002          1.4003066226317198E-004
  0.14434999999999998          1.0726079260426754E-004
  0.14520000000000000          7.4576104757559505E-005
  0.14605000000000001          4.2058022249340191E-005
  0.14689999999999998          9.7920014071444210E-006
  0.14774999999999999         -2.2133513551486323E-005
  0.14860000000000001         -5.3628226762952886E-005
  0.14944999999999997         -8.4601164407937756E-005
  0.15029999999999999         -1.1496184546839045E-004
  0.15115000000000001         -1.4462145099715336E-004
  0.15199999999999997         -1.7349384080552876E-004
  0.15284999999999999         -2.0149642535916581E-004
  0.15370000000000000         -2.2855088683789552E-004
  0.15454999999999997         -2.5458389439894983E-004
  0.15539999999999998         -2.7952765610999718E-004
  0.15625000000000000         -3.0332052412834656E-004
  0.15709999999999996         -3.2590749398392712E-004
  0.15794999999999998         -3.4724061826686789E-004
  0.15880000000000000         -3.6727940355256743E-004
  0.15965000000000001         -3.8599086620647244E-004
  0.16049999999999998         -4.0334968195625666E-004
  0.16134999999999999         -4.1933807829478418E-004
  0.16220000000000001         -4.3394568863310608E-004
  0.16304999999999997         -4.4716942271375498E-004
  0.16389999999999999         -4.5901333663436093E-004
  0.16475000000000001         -4.6948839597075369E-004
  0.16559999999999997         -4.7861211923944471E-004
  0.16644999999999999         -4.8640820022052714E-004
  0.16730000000000000         -4.9290611029828221E-004
  0.16814999999999997         -4.9814040251516768E-004
  0.16899999999999998         -5.0215049302379598E-004
  0.16985000000000000         -5.0498010497232828E-004
  0.17069999999999996         -5.0667681124025950E-004
  0.17154999999999998         -5.0729145602383414E-004
  0.17240000000000000         -5.0687776780711517E-004
  0.17325000000000002         -5.0549147791314748E-004
  0.17409999999999998         -5.0319001268411725E-004
  0.17494999999999999         -5.0003210848295133E-004
  0.17580000000000001         -4.9607728614226162E-004
  0.17664999999999997         -4.9138571258131177E-004
  0.17749999999999999         -4.8601765416385399E-004
  0.17835000000000001         -4.8003283601919899E-004
  0.17919999999999997         -4.7349004913094597E-004
  0.18004999999999999         -4.6644685784700949E-004
  0.18090000000000001         -4.5895934123136401E-004
  0.18174999999999997         -4.5108200726741042E-004
  0.18259999999999998         -4.4286760243032790E-004
  0.18345000000000000         -4.3436691149646169E-004
  0.18429999999999996         -4.2562838114706784E-004
  0.18514999999999998         -4.1669788409501231E-004
  0.18600000000000000         -4.0761862398102283E-004
  0.18684999999999996         -3.9843119959941136E-004
  0.18769999999999998         -3.8917358317786281E-004
  0.18855000000000000         -3.7988125618119430E-004
  0.18940000000000001         -3.7058703040815605E-004
  0.19024999999999997         -3.6132115895841653E-004
  0.19109999999999999         -3.5211114880268741E-004
  0.19195000000000001         -3.4298194499513088E-004
  0.19279999999999997         -3.3395593123625313E-004
  0.19364999999999999         -3.2505311510292340E-004
  0.19450000000000001         -3.1629128957477465E-004
  0.19534999999999997         -3.0768588724555657E-004
  0.19619999999999999         -2.9925025911940262E-004
  0.19705000000000000         -2.9099561020421360E-004
  0.19789999999999996         -2.8293121052583769E-004
  0.19874999999999998         -2.7506464396725777E-004
  0.19960000000000000         -2.6740189689063100E-004
  0.20044999999999996         -2.5994761833408116E-004
  0.20129999999999998         -2.5270506114163298E-004
  0.20215000000000000         -2.4567629940009880E-004
  0.20300000000000001         -2.3886215910525101E-004
  0.20384999999999998         -2.3226226281661630E-004
  0.20469999999999999         -2.2587524756567423E-004
  0.20555000000000001         -2.1969883350326342E-004
  0.20639999999999997         -2.1373001659525146E-004
  0.20724999999999999         -2.0796525152987143E-004
  0.20810000000000001         -2.0240049928594759E-004
  0.20894999999999997         -1.9703131631680057E-004
  0.20979999999999999         -1.9185278369570144E-004
  0.21065000000000000         -1.8685960479143129E-004
  0.21149999999999997         -1.8204620407940431E-004
  0.21234999999999998         -1.7740690312685009E-004
  0.21320000000000000         -1.7293598647322102E-004
  0.21404999999999996         -1.6862779358187469E-004
  0.21489999999999998         -1.6447659940894198E-004
  0.21575000000000000         -1.6047659806704343E-004
  0.21659999999999996         -1.5662186560138201E-004
  0.21744999999999998         -1.5290650226347697E-004
  0.21829999999999999         -1.4932473363529080E-004
  0.21915000000000001         -1.4587101173376294E-004
  0.21999999999999997         -1.4253999205049968E-004
  0.22084999999999999         -1.3932646176820402E-004
  0.22170000000000001         -1.3622520076555145E-004
  0.22254999999999997         -1.3323107252487975E-004
  0.22339999999999999         -1.3033913284936496E-004
  0.22425000000000000         -1.2754476644024010E-004
  0.22509999999999997         -1.2484370595662101E-004
  0.22594999999999998         -1.2223195023814429E-004
  0.22680000000000000         -1.1970562959688128E-004
  0.22764999999999996         -1.1726099036814524E-004
  0.22849999999999998         -1.1489438198895182E-004
  0.22935000000000000         -1.1260235767668890E-004
  0.23019999999999996         -1.1038171264189696E-004
  0.23104999999999998         -1.0822946370758501E-004
  0.23190000000000000         -1.0614279185015865E-004
  0.23275000000000001         -1.0411894143970624E-004
  0.23359999999999997         -1.0215525720699470E-004
  0.23444999999999999         -1.0024919196627985E-004
  0.23530000000000001         -9.8398362288262801E-005
  0.23614999999999997         -9.6600571582006433E-005
  0.23699999999999999         -9.4853815442128299E-005
  0.23785000000000001         -9.3156246469715907E-005
  0.23869999999999997         -9.1506115851860021E-005
  0.23954999999999999         -8.9901742331610033E-005
  0.24040000000000000         -8.8341457870829684E-005
  0.24124999999999996         -8.6823588214243324E-005
  0.24209999999999998         -8.5346506003323313E-005
  0.24295000000000000         -8.3908707331548500E-005
  0.24379999999999996         -8.2508863245648551E-005
  0.24464999999999998         -8.1145780545987731E-005
  0.24550000000000000         -7.9818317049530944E-005
  0.24634999999999996         -7.8525308314640458E-005
  0.24719999999999998         -7.7265542901641421E-005
  0.24804999999999999         -7.6037851583520596E-005
  0.24890000000000001         -7.4841193476115077E-005
  0.24974999999999997         -7.3674684379832156E-005
  0.25059999999999999         -7.2537492485436587E-005
  0.25145000000000001         -7.1428677365763599E-005
  0.25229999999999997         -7.0347143792794982E-005
  0.25314999999999999         -6.9291715771398787E-005
  0.25400000000000000         -6.8261296115783589E-005
  0.25484999999999997         -6.7255053438447236E-005
  0.25569999999999998         -6.6272397020202445E-005
  0.25655000000000000         -6.5312874573651442E-005
  0.25739999999999996         -6.4375988443415936E-005
  0.25824999999999998         -6.3461124298899144E-005
  0.25910000000000000         -6.2567583556012471E-005
  0.25994999999999996         -6.1694736169525522E-005
  0.26079999999999998         -6.0842103225240331E-005
  0.26164999999999999         -6.0009372508325307E-005
  0.26249999999999996         -5.9196362604142208E-005
  0.26334999999999997         -5.8402926629482164E-005
  0.26419999999999999         -5.7628946932389839E-005
  0.26505000000000001         -5.6874373427297952E-005
  0.26589999999999997         -5.6139312384188598E-005
  0.26674999999999999         -5.5424091055596226E-005
  0.26760000000000000         -5.4729265698534894E-005
  0.26844999999999997         -5.4055594645601114E-005
  0.26929999999999998         -5.3403973121383608E-005
  0.27015000000000000         -5.2775390030602991E-005
  0.27099999999999996         -5.2170916128032326E-005
  0.27184999999999998         -5.1591770217887890E-005
  0.27270000000000000         -5.1039460717949506E-005
  0.27354999999999996         -5.0515879811880183E-005
  0.27439999999999998         -5.0023340195171877E-005
  0.27524999999999999         -4.9564501567733027E-005
  0.27609999999999996         -4.9142280567472573E-005
  0.27694999999999997         -4.8759811609049212E-005
  0.27779999999999999         -4.8420534864727751E-005
  0.27865000000000001         -4.8128403083923008E-005
  0.27949999999999997         -4.7888044294062273E-005
  0.28034999999999999         -4.7704791943604027E-005
  0.28120000000000001         -4.7584571969801163E-005
  0.28204999999999997         -4.7533782901272241E-005
  0.28289999999999998         -4.7559249910010434E-005
  0.28375000000000000         -4.7668349132200003E-005
  0.28459999999999996         -4.7869210779583347E-005
  0.28544999999999998         -4.8170847215560356E-005
  0.28630000000000000         -4.8583162818907369E-005
  0.28714999999999996         -4.9116829431254617E-005
  0.28799999999999998         -4.9783215213909290E-005
  0.28885000000000000         -5.0594438714343618E-005
  0.28969999999999996         -5.1563536872345111E-005
  0.29054999999999997         -5.2704645532317334E-005
  0.29139999999999999         -5.4033066778326246E-005
  0.29224999999999995         -5.5565186034746568E-005
  0.29309999999999997         -5.7318300821334167E-005
  0.29394999999999999         -5.9310511458730660E-005
  0.29480000000000001         -6.1560722280795815E-005
  0.29564999999999997         -6.4088766717030455E-005
  0.29649999999999999         -6.6915495553798645E-005
  0.29735000000000000         -7.0062796953566936E-005
  0.29819999999999997         -7.3553430608559435E-005
  0.29904999999999998         -7.7410820968804202E-005
  0.29990000000000000         -8.1658887315624374E-005
  0.30074999999999996         -8.6321915897942492E-005
  0.30159999999999998         -9.1424529624983963E-005
  0.30245000000000000         -9.6991664291125519E-005
  0.30329999999999996         -1.0304841714454388E-004
  0.30414999999999998         -1.0961980781544860E-004
  0.30499999999999999         -1.1673040658234901E-004
  0.30584999999999996         -1.2440400443945469E-004
  0.30669999999999997         -1.3266332819845356E-004
  0.30754999999999999         -1.4152988776271734E-004
  0.30840000000000001         -1.5102379134098798E-004
  0.30924999999999997         -1.6116345148489751E-004
  0.31009999999999999         -1.7196519287070199E-004
  0.31095000000000000         -1.8344268394827613E-004
  0.31179999999999997         -1.9560650105594031E-004
  0.31264999999999998         -2.0846369987191529E-004
  0.31350000000000000         -2.2201760342534504E-004
  0.31434999999999996         -2.3626749175421343E-004
  0.31519999999999998         -2.5120825771156666E-004
  0.31605000000000000         -2.6682987202496944E-004
  0.31689999999999996         -2.8311688124434505E-004
  0.31774999999999998         -3.0004783104815717E-004
  0.31859999999999999         -3.1759497608802376E-004
  0.31944999999999996         -3.3572408834155339E-004
  0.32029999999999997         -3.5439424379925212E-004
  0.32114999999999999         -3.7355754070480894E-004
  0.32199999999999995         -3.9315873030862592E-004
  0.32284999999999997         -4.1313502991187638E-004
  0.32369999999999999         -4.3341580938807261E-004
  0.32455000000000001         -4.5392279580641799E-004
  0.32539999999999997         -4.7457010760256944E-004
  0.32624999999999998         -4.9526439989550704E-004
  0.32710000000000000         -5.1590511464136497E-004
  0.32794999999999996         -5.3638442577437007E-004
  0.32879999999999998         -5.5658773700706604E-004
  0.32965000000000000         -5.7639389354601791E-004
  0.33049999999999996         -5.9567565895991392E-004
  0.33134999999999998         -6.1430047796566100E-004
  0.33220000000000000         -6.3213115859622651E-004
  0.33304999999999996         -6.4902684526630099E-004
  0.33389999999999997         -6.6484372541491697E-004
  0.33474999999999999         -6.7943609479428413E-004
  0.33559999999999995         -6.9265742009373698E-004
  0.33644999999999997         -7.0436140534286087E-004
  0.33729999999999999         -7.1440304583874313E-004
  0.33815000000000001         -7.2264008670817740E-004
  0.33899999999999997         -7.2893436584246687E-004
  0.33984999999999999         -7.3315304720975212E-004
  0.34070000000000000         -7.3516990389312109E-004
  0.34154999999999996         -7.3486660949680376E-004
  0.34239999999999998         -7.3213414981616713E-004
  0.34325000000000000         -7.2687411139574557E-004