 -0.12000000000000000          0.0000000000000000
 -0.11914999999999999          0.0000000000000000
 -0.11830000000000000          0.0000000000000000
 -0.11745000000000000          0.0000000000000000
 -0.11660000000000000          0.0000000000000000
 -0.11574999999999999          0.0000000000000000
 -0.11490000000000000          1.1275252925557707E-020
 -0.11405000000000000          3.0724829803691880E-020
 -0.11320000000000000         -1.9572520145094555E-019
 -0.11234999999999999         -1.5050100655389690E-018
 -0.11150000000000000         -4.5504299350348255E-018
 -0.11065000000000000         -6.3519647561666941E-018
 -0.10979999999999999          3.9626582232066102E-018
 -0.10894999999999999          4.1256524397940729E-017
 -0.10810000000000000          1.0187296144901664E-016
 -0.10725000000000000          1.2933654651300608E-016
 -0.10639999999999999          8.2503136370014968E-018
 -0.10554999999999999         -3.5906408931050230E-016
 -0.10470000000000000         -8.8914016013369936E-016
 -0.10385000000000000         -1.1787003484983186E-015
 -0.10299999999999999         -5.9209605915767840E-016
 -0.10214999999999999          1.2977686126167944E-015
 -0.10130000000000000          4.0716900533295575E-015
 -0.10045000000000000          6.1150021985165066E-015
  -9.9599999999999994E-002     5.0959734173171827E-015
  -9.8750000000000004E-002    -6.2158891197229722E-016
  -9.7900000000000001E-002    -1.0273156894017936E-014
  -9.7049999999999997E-002    -1.9864586155186059E-014
  -9.6199999999999994E-002    -2.3178510648534436E-014
  -9.5349999999999990E-002    -1.4608872936543686E-014
  -9.4500000000000001E-002     7.3238561976615802E-015
  -9.3649999999999997E-002     3.7493463436890116E-014
  -9.2799999999999994E-002     6.4143426113157168E-014
  -9.1950000000000004E-002     7.1898511622369525E-014
  -9.1100000000000000E-002     4.7503349112670222E-014
  -9.0249999999999997E-002    -1.2903034904979363E-014
  -8.9399999999999993E-002    -9.7333323059496749E-014
  -8.8549999999999990E-002    -1.7596787110839867E-013
  -8.7700000000000000E-002    -2.0747741180884156E-013
  -8.6849999999999997E-002    -1.5493152327473949E-013
  -8.5999999999999993E-002    -7.0809223610709105E-015
  -8.5150000000000003E-002     2.0497798998544477E-013
  -8.4300000000000000E-002     4.0732301134088090E-013
  -8.3449999999999996E-002     5.0486498276519806E-013
  -8.2600000000000007E-002     4.1999015614120167E-013
  -8.1749999999999989E-002     1.3262220770981258E-013
  -8.0900000000000000E-002    -2.9696406071215538E-013
  -8.0049999999999996E-002    -7.3497030416644293E-013
  -7.9199999999999993E-002    -1.0111934819544504E-012
  -7.8350000000000003E-002    -9.7623915763736425E-013
  -7.7499999999999999E-002    -5.6237176622182774E-013
  -7.6649999999999996E-002     1.7087268309288468E-013
  -7.5800000000000006E-002     1.0254955645873540E-012
  -7.4949999999999989E-002     1.7038259671533418E-012
  -7.4099999999999999E-002     1.9001710645920337E-012
  -7.3249999999999996E-002     1.4246617581219666E-012
  -7.2399999999999992E-002     3.1281858055645572E-013
  -7.1550000000000002E-002    -1.1360427285905590E-012
  -7.0699999999999999E-002    -2.4285145584935603E-012
  -6.9849999999999995E-002    -3.0440640526085110E-012
  -6.9000000000000006E-002    -2.6366373321252232E-012
  -6.8149999999999988E-002    -1.1847127078252692E-012
  -6.7299999999999999E-002     9.7400622027856418E-013
  -6.6449999999999995E-002     3.2305891615911189E-012
  -6.5599999999999992E-002     4.8679223491572317E-012
  -6.4750000000000002E-002     5.2324711433582794E-012
  -6.3899999999999998E-002     3.8742780455084646E-012
  -6.3049999999999995E-002     6.5926724169384347E-013
  -6.2199999999999998E-002    -4.1203802203190754E-012
  -6.1350000000000002E-002    -9.6388802673655890E-012
  -6.0499999999999998E-002    -1.4495235690220597E-011
  -5.9650000000000002E-002    -1.6846686974394740E-011
  -5.8799999999999998E-002    -1.4803474283759219E-011
  -5.7950000000000002E-002    -7.0608885304217103E-012
  -5.7099999999999998E-002     6.4090943597047812E-012
  -5.6249999999999994E-002     2.3890782838856312E-011
  -5.5400000000000005E-002     4.1940469281570677E-011
  -5.4550000000000001E-002     5.5967742857279231E-011
  -5.3699999999999998E-002     6.1220655043525811E-011
  -5.2849999999999994E-002     5.3842579646316616E-011
  -5.2000000000000005E-002     3.1690771721449484E-011
  -5.1150000000000001E-002    -5.1732573210315798E-012
  -5.0299999999999997E-002    -5.4127159899644975E-011
  -4.9449999999999994E-002    -1.0942374428132306E-010
  -4.8600000000000004E-002    -1.6121162977911556E-010
  -4.7750000000000001E-002    -1.9431910762867413E-010
  -4.6899999999999997E-002    -1.8741219159913080E-010
  -4.6049999999999994E-002    -1.1333044982110871E-010
  -4.5200000000000004E-002     5.8846182194656732E-011
  -4.4350000000000001E-002     3.6012612942327681E-010
  -4.3499999999999997E-002     8.1731503567308311E-010
  -4.2649999999999993E-002     1.4497044791418636E-009
  -4.1800000000000004E-002     2.2683260858059047E-009
  -4.0950000000000000E-002     3.2785752009013653E-009
  -4.0099999999999997E-002     4.4856803413996033E-009
  -3.9249999999999993E-002     5.9012291882393566E-009
  -3.8400000000000004E-002     7.5484358735486475E-009
  -3.7550000000000000E-002     9.4644757505110354E-009
  -3.6699999999999997E-002     1.1699790683923740E-008
  -3.5850000000000007E-002     1.4315957820306671E-008
  -3.5000000000000003E-002     1.7384506781873708E-008
  -3.4150000000000000E-002     2.0988367739059223E-008
  -3.3299999999999996E-002     2.5225772702216760E-008
  -3.2450000000000007E-002     3.0214614628258080E-008
  -3.1600000000000003E-002     3.6094738191123868E-008
  -3.0750000000000000E-002     4.3026944447018992E-008
  -2.9899999999999996E-002     5.1189925985511409E-008
  -2.9050000000000006E-002     6.0778304952221530E-008
  -2.8200000000000003E-002     7.2005184388373587E-008
  -2.7349999999999999E-002     8.5110603861851143E-008
  -2.6499999999999996E-002     1.0037419596113080E-007
  -2.5650000000000006E-002     1.1812792742678767E-007
  -2.4800000000000003E-002     1.3876469006020493E-007
  -2.3949999999999999E-002     1.6274047119461432E-007
  -2.3099999999999996E-002     1.9057173878635013E-007
  -2.2250000000000006E-002     2.2283188800387635E-007
  -2.1400000000000002E-002     2.6015207110332675E-007
  -2.0549999999999999E-002     3.0322882029270081E-007
  -1.9699999999999995E-002     3.5283795982403794E-007
  -1.8850000000000006E-002     4.0985128413116653E-007
  -1.8000000000000002E-002     4.7525167439614954E-007
  -1.7149999999999999E-002     5.5014478057411645E-007
  -1.6299999999999995E-002     6.3576833469167104E-007
  -1.5450000000000005E-002     7.3350216222112966E-007
  -1.4600000000000002E-002     8.4488300238775021E-007
  -1.3749999999999998E-002     9.7162241532639847E-007
  -1.2899999999999995E-002     1.1156251634951810E-006
  -1.2050000000000005E-002     1.2790023560998714E-006
  -1.1200000000000002E-002     1.4640789708372758E-006
  -1.0349999999999998E-002     1.6733962888510426E-006
  -9.5000000000000084E-003     1.9097177552802153E-006
  -8.6500000000000049E-003     2.1760416000312091E-006
  -7.8000000000000014E-003     2.4756224453376689E-006
  -6.9499999999999978E-003     2.8119951856828230E-006
  -6.1000000000000082E-003     3.1889986277765175E-006
  -5.2500000000000047E-003     3.6107913319814357E-006
  -4.4000000000000011E-003     4.0818618222659451E-006
  -3.5499999999999976E-003     4.6070396127013723E-006
  -2.7000000000000079E-003     5.1915068970001780E-006
  -1.8500000000000044E-003     5.8408148807539853E-006
  -1.0000000000000009E-003     6.5608926386444675E-006
  -1.4999999999999736E-004     7.3580513558390274E-006
   6.9999999999999230E-004     8.2389745592676802E-006
   1.5499999999999958E-003     9.2107016043697859E-006
   2.3999999999999994E-003     1.0280609157051425E-005
   3.2500000000000029E-003     1.1456401593446142E-005
   4.0999999999999925E-003     1.2746104718134544E-005
   4.9499999999999961E-003     1.4158060185458899E-005
   5.7999999999999996E-003     1.5700915265523414E-005
   6.6499999999999893E-003     1.7383590903306242E-005
   7.5000000000000067E-003     1.9215232955681419E-005
   8.3499999999999963E-003     2.1205155430705691E-005
   9.1999999999999860E-003     2.3362768439361721E-005
   1.0050000000000003E-002     2.5697528564212867E-005
   1.0899999999999993E-002     2.8218876648591501E-005
   1.1750000000000010E-002     3.0936202378968655E-005
   1.2600000000000000E-002     3.3858782472754180E-005
   1.3449999999999990E-002     3.6995697871132628E-005
   1.4300000000000007E-002     4.0355724898488433E-005
   1.5149999999999997E-002     4.3947202685732840E-005
   1.5999999999999986E-002     4.7777862351306832E-005
   1.6850000000000004E-002     5.1854689636700477E-005
   1.7699999999999994E-002     5.6183782880858700E-005
   1.8549999999999983E-002     6.0770255929928877E-005
   1.9400000000000001E-002     6.5618119439937156E-005
   2.0249999999999990E-002     7.0730194886550361E-005
   2.1100000000000008E-002     7.6107949173602246E-005
   2.1949999999999997E-002     8.1751401987973979E-005
   2.2799999999999987E-002     8.7658936481695786E-005
   2.3650000000000004E-002     9.3827173805708102E-005
   2.4499999999999994E-002     1.0025080096218183E-004
   2.5349999999999984E-002     1.0692242576119853E-004
   2.6200000000000001E-002     1.1383242440715158E-004
   2.7049999999999991E-002     1.2096878448884007E-004
   2.7900000000000008E-002     1.2831697419726662E-004
   2.8749999999999998E-002     1.3585991641259758E-004
   2.9599999999999987E-002     1.4357790282076616E-004
   3.0450000000000005E-002     1.5144857567984412E-004
   3.1299999999999994E-002     1.5944686343649739E-004
   3.2149999999999984E-002     1.6754496606276195E-004
   3.3000000000000002E-002     1.7571232038701321E-004
   3.3849999999999991E-002     1.8391562239175301E-004
   3.4700000000000009E-002     1.9211884788254414E-004
   3.5549999999999998E-002     2.0028330635502690E-004
   3.6399999999999988E-002     2.0836776862081971E-004
   3.7250000000000005E-002     2.1632853551714412E-004
   3.8099999999999995E-002     2.2411966576041389E-004
   3.8949999999999985E-002     2.3169314744717027E-004
   3.9800000000000002E-002     2.3899920174634805E-004
   4.0649999999999992E-002     2.4598648336256505E-004
   4.1500000000000009E-002     2.5260232135800725E-004
   4.2349999999999999E-002     2.5879301279730196E-004
   4.3199999999999988E-002     2.6450419696070549E-004
   4.4050000000000006E-002     2.6968115720932945E-004
   4.4899999999999995E-002     2.7426916888015530E-004
   4.5749999999999985E-002     2.7821382779085840E-004
   4.6600000000000003E-002     2.8146146707423828E-004
   4.7449999999999992E-002     2.8395960147334896E-004
   4.8299999999999982E-002     2.8565723379753551E-004
   4.9149999999999999E-002     2.8650550755738913E-004
   4.9999999999999989E-002     2.8645800423507536E-004
   5.0850000000000006E-002     2.8547117024297101E-004
   5.1699999999999996E-002     2.8350465677893334E-004
   5.2549999999999986E-002     2.8052166890477857E-004
   5.3400000000000003E-002     2.7648934780433811E-004
   5.4249999999999993E-002     2.7137908079493956E-004
   5.5099999999999982E-002     2.6516689708110466E-004
   5.5950000000000000E-002     2.5783364820845995E-004
   5.6799999999999989E-002     2.4936519887047356E-004
   5.7650000000000007E-002     2.3975268462469562E-004
   5.8499999999999996E-002     2.2899268515943753E-004
   5.9349999999999986E-002     2.1708736410946516E-004
   6.0200000000000004E-002     2.0404459865936393E-004
   6.1049999999999993E-002     1.8987791271622587E-004
   6.1899999999999983E-002     1.7460643406933858E-004
   6.2750000000000000E-002     1.5825480781619255E-004
   6.3599999999999990E-002     1.4085310801472707E-004
   6.4450000000000007E-002     1.2243660831842712E-004
   6.5299999999999997E-002     1.0304568394198582E-004
   6.6149999999999987E-002     8.2725481151081534E-005
   6.7000000000000004E-002     6.1525682319697397E-005
   6.7849999999999994E-002     3.9500156989493269E-005
   6.8699999999999983E-002     1.6706707236896277E-005
   6.9550000000000001E-002    -6.7932719871160138E-006
   7.0399999999999990E-002    -3.0935150872155536E-005
   7.1249999999999980E-002    -5.5651466286136933E-005
   7.2099999999999997E-002    -8.0872354455585903E-005
   7.2949999999999987E-002    -1.0652594560991324E-004
   7.3800000000000004E-002    -1.3253876065958924E-004
   7.4649999999999994E-002    -1.5883605077223996E-004
   7.5499999999999984E-002    -1.8534216587960523E-004
   7.6350000000000001E-002    -2.1198088519609209E-004
   7.7199999999999991E-002    -2.3867576588797309E-004
   7.8049999999999981E-002    -2.6535044781384094E-004
   7.8899999999999998E-002    -2.9192886727651796E-004
   7.9749999999999988E-002    -3.1833545609247297E-004
   8.0600000000000005E-002    -3.4449533263241299E-004
   8.1449999999999995E-002    -3.7033441571759711E-004
   8.2299999999999984E-002    -3.9577968125290030E-004
   8.3150000000000002E-002    -4.2075916956713127E-004
   8.3999999999999991E-002    -4.4520204515411245E-004
   8.4849999999999981E-002    -4.6903860815650597E-004
   8.5699999999999998E-002    -4.9220030230682317E-004
   8.6549999999999988E-002    -5.1461973507142247E-004
   8.7400000000000005E-002    -5.3623067653947142E-004
   8.8249999999999995E-002    -5.5696786783808385E-004
   8.9099999999999985E-002    -5.7676720437073654E-004
   8.9950000000000002E-002    -5.9556544551080093E-004
   9.0799999999999992E-002    -6.1330018271549594E-004
   9.1649999999999981E-002    -6.2990973929777643E-004
   9.2499999999999999E-002    -6.4533333922981698E-004
   9.3349999999999989E-002    -6.5951088978138820E-004
   9.4200000000000006E-002    -6.7238328800371802E-004
   9.5049999999999996E-002    -6.8389236697927007E-004
   9.5899999999999985E-002    -6.9398086652302062E-004
   9.6750000000000003E-002    -7.0259280748605874E-004
   9.7599999999999992E-002    -7.0967345635237144E-004
   9.8449999999999982E-002    -7.1516978686878192E-004
   9.9299999999999999E-002    -7.1903049388359229E-004
  0.10014999999999999         -7.2120663525960691E-004
  0.10099999999999998         -7.2165168838499475E-004
  0.10185000000000000         -7.2032243822105256E-004
  0.10269999999999999         -7.1717903474750465E-004
  0.10355000000000000         -7.1218573794869764E-004
  0.10439999999999999         -7.0531149632448598E-004
  0.10524999999999998         -6.9653017440383220E-004
  0.10610000000000000         -6.8582136423776005E-004
  0.10694999999999999         -6.7317098260769796E-004
  0.10779999999999998         -6.5857188483837916E-004
  0.10865000000000000         -6.4202445901730717E-004
  0.10949999999999999         -6.2353711974927296E-004
  0.11035000000000000         -6.0312671446827821E-004
  0.11119999999999999         -5.8081923086062434E-004
  0.11204999999999998         -5.5665012143229923E-004
  0.11290000000000000         -5.3066474128406172E-004
  0.11374999999999999         -5.0291849499803484E-004
  0.11459999999999998         -4.7347705652526893E-004
  0.11545000000000000         -4.4241640752344002E-004
  0.11629999999999999         -4.0982293842976066E-004
  0.11715000000000000         -3.7579343358813553E-004
  0.11799999999999999         -3.4043503743227076E-004
  0.11884999999999998         -3.0386480470166998E-004
  0.11970000000000000         -2.6620921865079338E-004
  0.12054999999999999         -2.2760356769745721E-004
  0.12139999999999998         -1.8819137449525592E-004
  0.12225000000000000         -1.4812371249623864E-004
  0.12309999999999999         -1.0755853177314078E-004
  0.12395000000000000         -6.6659636575722541E-005
  0.12479999999999999         -2.5595638884838914E-005
  0.12564999999999998          1.5461287375715286E-005
  0.12650000000000000          5.6336609337126448E-005
  0.12734999999999999          9.6854571895822750E-005
  0.12819999999999998          1.3683942113995332E-004
  0.12905000000000000          1.7611658515231243E-004
  0.12989999999999999          2.1451406826587013E-004
  0.13074999999999998          2.5186376994306022E-004
  0.13159999999999999          2.8800279279868725E-004
  0.13245000000000001          3.2277460261156651E-004
  0.13329999999999997          3.5603030012418518E-004
  0.13414999999999999          3.8762964178769147E-004
  0.13500000000000001          4.1744229589991142E-004
  0.13584999999999997          4.4534885226826657E-004
  0.13669999999999999          4.7124174375410232E-004
  0.13755000000000001          4.9502609813284687E-004
  0.13839999999999997          5.1662026001365652E-004
  0.13924999999999998          5.3595624607179519E-004
  0.14010000000000000          5.5298027863310423E-004
  0.14094999999999996          5.6765299254219370E-004
  0.14179999999999998          5.7994972549759187E-004
  0.14265000000000000          5.8986038043917657E-004
  0.14350000000000002          5.9738959620791630E-004
  0.14434999999999998          6.0255618515007634E-004
  0.14520000000000000          6.0539305675728428E-004
  0.14605000000000001          6.0594643670682489E-004
  0.14689999999999998          6.0427552952189577E-004
  0.14774999999999999          6.0045165261192609E-004
  0.14860000000000001          5.9455742394238175E-004
  0.14944999999999997          5.8668583060059588E-004
  0.15029999999999999          5.7693943353504472E-004
  0.15115000000000001          5.6542929982383286E-004
  0.15199999999999997          5.5227365823317417E-004
  0.15284999999999999          5.3759695728652782E-004
  0.15370000000000000          5.2152876927090116E-004
  0.15454999999999997          5.0420249089081371E-004
  0.15539999999999998          4.8575445871145556E-004
  0.15625000000000000          4.6632292686831222E-004
  0.15709999999999996          4.4604666951755735E-004
  0.15794999999999998          4.2506386347283099E-004
  0.15880000000000000          4.0351116232698590E-004
  0.15965000000000001          3.8152261957982838E-004
  0.16049999999999998          3.5922876257380809E-004
  0.16134999999999999          3.3675610035719620E-004
  0.16220000000000001          3.1422614199957532E-004
  0.16304999999999997          2.9175471565722009E-004
  0.16389999999999999          2.6945116835172002E-004
  0.16475000000000001          2.4741807937036489E-004
  0.16559999999999997          2.2575071077131592E-004
  0.16644999999999999          2.0453691495274544E-004
  0.16730000000000000          1.8385670286178097E-004
  0.16814999999999997          1.6378209302437711E-004
  0.16899999999999998          1.4437704955408106E-004
  0.16985000000000000          1.2569735396425615E-004
  0.17069999999999996          1.0779077803289062E-004
  0.17154999999999998          9.0697196393459874E-005
  0.17240000000000000          7.4448788155611470E-005
  0.17325000000000002          5.9070253600847653E-005
  0.17409999999999998          4.4579108932576590E-005
  0.17494999999999999          3.0986024113221786E-005
  0.17580000000000001          1.8295207599540504E-005
  0.17664999999999997          6.5048720152663724E-006
  0.17749999999999999         -4.3923202846388828E-006
  0.17835000000000001         -1.4408759434346126E-005
  0.17919999999999997         -2.3561440708111416E-005
  0.18004999999999999         -3.1871515437845007E-005
  0.18090000000000001         -3.9363842361005116E-005
  0.18174999999999997         -4.6066570003583974E-005
  0.18259999999999998         -5.2010686293542631E-005
  0.18345000000000000         -5.7229518307383805E-005
  0.18429999999999996         -6.1758221617445722E-005
  0.18514999999999998         -6.5633290051797413E-005
  0.18600000000000000         -6.8892140641161888E-005
  0.18684999999999996         -7.1572783610740002E-005
  0.18769999999999998         -7.3713549489188597E-005
  0.18855000000000000         -7.5352859687946447E-005
  0.18940000000000001         -7.6528920246493858E-005
  0.19024999999999997         -7.7279402236746437E-005
  0.19109999999999999         -7.7641168336414440E-005
  0.19195000000000001         -7.7650063600123178E-005
  0.19279999999999997         -7.7340747483777581E-005
  0.19364999999999999         -7.6746567887210510E-005
  0.19450000000000001         -7.5899397332754602E-005
  0.19534999999999997         -7.4829499980996571E-005
  0.19619999999999999         -7.3565471421749515E-005
  0.19705000000000000         -7.2134189897544979E-005
  0.19789999999999996         -7.0560837705319136E-005
  0.19874999999999998         -6.8868932204244927E-005
  0.19960000000000000         -6.7080292578400229E-005
  0.20044999999999996         -6.5215031526463167E-005
  0.20129999999999998         -6.3291542600423699E-005
  0.20215000000000000         -6.1326565402173745E-005
  0.20300000000000001         -5.9335227803151858E-005
  0.20384999999999998         -5.7331093930685852E-005
  0.20469999999999999         -5.5326225201982976E-005
  0.20555000000000001         -5.3331216518713794E-005
  0.20639999999999997         -5.1355358107777134E-005
  0.20724999999999999         -4.9406730783706661E-005
  0.20810000000000001         -4.7492363328733472E-005
  0.20894999999999997         -4.5618309127432937E-005
  0.20979999999999999         -4.3789649322463701E-005
  0.21065000000000000         -4.2010496440353486E-005
  0.21149999999999997         -4.0284022965510166E-005
  0.21234999999999998         -3.8612592044170940E-005
  0.21320000000000000         -3.6997895928306395E-005
  0.21404999999999996         -3.5441100453321261E-005
  0.21489999999999998         -3.3942896570745849E-005
  0.21575000000000000         -3.2503516329343495E-005
  0.21659999999999996         -3.1122751073746360E-005
  0.21744999999999998         -2.9799989384389348E-005
  0.21829999999999999         -2.8534288212381568E-005
  0.21915000000000001         -2.7324461245469473E-005
  0.21999999999999997         -2.6169149579792237E-005
  0.22084999999999999         -2.5066855331628279E-005
  0.22170000000000001         -2.4015967536016671E-005
  0.22254999999999997         -2.3014767908098681E-005
  0.22339999999999999         -2.2061446702603727E-005
  0.22425000000000000         -2.1154109918309285E-005
  0.22509999999999997         -2.0290794568626603E-005
  0.22594999999999998         -1.9469513131400275E-005
  0.22680000000000000         -1.8688309019225662E-005
  0.22764999999999996         -1.7945303901687254E-005
  0.22849999999999998         -1.7238725116031028E-005
  0.22935000000000000         -1.6566890104629218E-005
  0.23019999999999996         -1.5928150762583374E-005
  0.23104999999999998         -1.5320847125029384E-005
  0.23190000000000000         -1.4743302666469647E-005
  0.23275000000000001         -1.4193859639513383E-005
  0.23359999999999997         -1.3670938196277204E-005
  0.23444999999999999         -1.3173076253505010E-005
  0.23530000000000001         -1.2698948238195127E-005
  0.23614999999999997         -1.2247349667492836E-005
  0.23699999999999999         -1.1817165407628036E-005
  0.23785000000000001         -1.1407333123561072E-005
  0.23869999999999997         -1.1016823356276805E-005
  0.23954999999999999         -1.0644616278709115E-005
  0.24040000000000000         -1.0289700870715054E-005
  0.24124999999999996         -9.9510742099915252E-006
  0.24209999999999998         -9.6277586449667474E-006
  0.24295000000000000         -9.3188255901117011E-006
  0.24379999999999996         -9.0234173702962438E-006
  0.24464999999999998         -8.7407662716682467E-006
  0.24550000000000000         -8.4702046486337311E-006
  0.24634999999999996         -8.2111608212384452E-006
  0.24719999999999998         -7.9631319105340364E-006
  0.24804999999999999         -7.7256319720178636E-006
  0.24890000000000001         -7.4981451115932391E-006
  0.24974999999999997         -7.2800979684998471E-006
  0.25059999999999999         -7.0708775832865386E-006
  0.25145000000000001         -6.8698861133832375E-006
  0.25229999999999997         -6.6765978081640214E-006
  0.25314999999999999         -6.4905891869440865E-006
  0.25400000000000000         -6.3115149724100480E-006
  0.25484999999999997         -6.1390599327305025E-006
  0.25569999999999998         -5.9728958424266564E-006
  0.25655000000000000         -5.8126774609126681E-006
  0.25739999999999996         -5.6580710773807295E-006
  0.25824999999999998         -5.5087828723594573E-006
  0.25910000000000000         -5.3645610382955270E-006
  0.25994999999999996         -5.2251717964119089E-006
  0.26079999999999998         -5.0903728990651746E-006
  0.26164999999999999         -4.9599165583145405E-006
  0.26249999999999996         -4.8335798830206699E-006
  0.26334999999999997         -4.7111988554412428E-006
  0.26419999999999999         -4.5926677297952744E-006
  0.26505000000000001         -4.4778926395497498E-006
  0.26589999999999997         -4.3667288920705115E-006
  0.26674999999999999         -4.2589535158360768E-006
  0.26760000000000000         -4.1542987370477601E-006
  0.26844999999999997         -4.0525285182472100E-006
  0.26929999999999998         -3.9535030554511222E-006
  0.27015000000000000         -3.8571801726082821E-006
  0.27099999999999996         -3.7635488568446950E-006
  0.27184999999999998         -3.6725390372584408E-006
  0.27270000000000000         -3.5839811126320729E-006
  0.27354999999999996         -3.4976359605152690E-006
  0.27439999999999998         -3.4132745616195529E-006
  0.27524999999999999         -3.3307430778144074E-006
  0.27609999999999996         -3.2499598482035474E-006
  0.27694999999999997         -3.1708525269724666E-006
  0.27779999999999999         -3.0932909395306864E-006
  0.27865000000000001         -3.0170705014022080E-006
  0.27949999999999997         -2.9419590637754432E-006
  0.28034999999999999         -2.8677604655828450E-006
  0.28120000000000001         -2.7943403688368795E-006
  0.28204999999999997         -2.7215864501263503E-006
  0.28289999999999998         -2.6493395819074574E-006
  0.28375000000000000         -2.5773498111608353E-006
  0.28459999999999996         -2.5052933866478556E-006
  0.28544999999999998         -2.4328300889118743E-006
  0.28630000000000000         -2.3596496398525446E-006
  0.28714999999999996         -2.2854705590517224E-006
  0.28799999999999998         -2.2100009411491277E-006
  0.28885000000000000         -2.1329017050735552E-006
  0.28969999999999996         -2.0537891089921606E-006
  0.29054999999999997         -1.9722701093978853E-006
  0.29139999999999999         -1.8879774643405771E-006
  0.29224999999999995         -1.8005735514527764E-006
  0.29309999999999997         -1.7097192903033778E-006
  0.29394999999999999         -1.6150333347223510E-006
  0.29480000000000001         -1.5160657574593269E-006
  0.29564999999999997         -1.4122924014245950E-006
  0.29649999999999999         -1.3031244807807451E-006
  0.29735000000000000         -1.1879278905264401E-006
  0.29819999999999997         -1.0660557218993100E-006
  0.29904999999999998         -9.3689152008049505E-007
  0.29990000000000000         -7.9987955252588729E-007
  0.30074999999999996         -6.5451334975376147E-007
  0.30159999999999998         -5.0027813497450567E-007
  0.30245000000000000         -3.3658137209132875E-007
  0.30329999999999996         -1.6272821917889894E-007
  0.30414999999999998          2.2035392134727702E-008
  0.30499999999999999          2.1843792580101484E-007
  0.30584999999999996          4.2712618301391697E-007
  0.30669999999999997          6.4868434034409102E-007
  0.30754999999999999          8.8370050772003459E-007
  0.30840000000000001          1.1328104725667456E-006
  0.30924999999999997          1.3966592050472833E-006
  0.31009999999999999          1.6757997539809662E-006
  0.31095000000000000          1.9706174419445894E-006
  0.31179999999999997          2.2813485569838860E-006
  0.31264999999999998          2.6081896235319337E-006
  0.31350000000000000          2.9513999684134013E-006
  0.31434999999999996          3.3113005666704754E-006
  0.31519999999999998          3.6881560072055066E-006
  0.31605000000000000          4.0820268114717601E-006
  0.31689999999999996          4.4926970472021073E-006
  0.31774999999999998          4.9197317574181196E-006
  0.31859999999999999          5.3626035591736130E-006
  0.31944999999999996          5.8207700671393718E-006
  0.32029999999999997          6.2936487436893481E-006
  0.32114999999999999          6.7805047954558726E-006
  0.32199999999999995          7.2803646665913884E-006
  0.32284999999999997          7.7920023497357803E-006
  0.32369999999999999          8.3139987419238037E-006
  0.32455000000000001          8.8448170518427619E-006
  0.32539999999999997          9.3828056831133726E-006
  0.32624999999999998          9.9261673932609985E-006
  0.32710000000000000          1.0472901808915931E-005
  0.32794999999999996          1.1020789802949908E-005
  0.32879999999999998          1.1567410590867569E-005
  0.32965000000000000          1.2110201175624932E-005
  0.33049999999999996          1.2646488494100731E-005
  0.33134999999999998          1.3173517176442414E-005
  0.33220000000000000          1.3688460857520005E-005
  0.33304999999999996          1.4188415816930515E-005
  0.33389999999999997          1.4670381090421547E-005
  0.33474999999999999          1.5131242130677500E-005
  0.33559999999999995          1.5567776013651486E-005
  0.33644999999999997          1.5976695853981997E-005
  0.33729999999999999          1.6354737890017514E-005
  0.33815000000000001          1.6698751875504533E-005
  0.33899999999999997          1.7005702953094267E-005
  0.33984999999999999          1.7272646912706248E-005
  0.34070000000000000          1.7496686712639552E-005
  0.34154999999999996          1.7675006486395062E-005
  0.34239999999999998          1.7804951659308046E-005
  0.34325000000000000          1.7884133782351784E-005