 -0.12000000000000000          0.0000000000000000
 -0.11914999999999999          0.0000000000000000
 -0.11830000000000000          0.0000000000000000
 -0.11745000000000000          0.0000000000000000
 -0.11660000000000000          0.0000000000000000
 -0.11574999999999999          0.0000000000000000
 -0.11490000000000000          0.0000000000000000
 -0.11405000000000000          0.0000000000000000
 -0.11320000000000000         -6.4486254511127892E-026
 -0.11234999999999999         -1.0241931583834099E-024
 -0.11150000000000000         -6.7604806670639563E-024
 -0.11065000000000000         -2.4438239717162655E-023
 -0.10979999999999999         -4.5620095275270408E-023
 -0.10894999999999999          1.0545314553875325E-023
 -0.10810000000000000          3.4695990517836288E-022
 -0.10725000000000000          1.1448783718258902E-021
 -0.10639999999999999          1.9937190056442223E-021
 -0.10554999999999999          1.0466589528000501E-021
 -0.10470000000000000         -5.0219362577871921E-021
 -0.10385000000000000         -1.8424181868097076E-020
 -0.10299999999999999         -3.4132670688539681E-020
 -0.10214999999999999         -3.3103937234321913E-020
 -0.10130000000000000          1.6804838042042465E-020
 -0.10045000000000000          1.4136419737680612E-019
  -9.9599999999999994E-002     3.1809642184134351E-019
  -9.8750000000000004E-002     4.2845418328199954E-019
  -9.7900000000000001E-002     2.4833256486434666E-019
  -9.7049999999999997E-002    -4.6326111494308511E-019
  -9.6199999999999994E-002    -1.7436442425396135E-018
  -9.5349999999999990E-002    -3.1286511697441839E-018
  -9.4500000000000001E-002    -3.4671469676066796E-018
  -9.3649999999999997E-002    -1.1464368966796368E-018
  -9.2799999999999994E-002     5.0101975692058476E-018
  -9.1950000000000004E-002     1.4215224165518763E-017
  -9.1100000000000000E-002     2.2193936315631307E-017
  -9.0249999999999997E-002     2.1003121270288055E-017
  -8.9399999999999993E-002     1.8265695140165124E-018
  -8.8549999999999990E-002    -3.8487003662934144E-017
  -8.7700000000000000E-002    -8.8982187031077123E-017
  -8.6849999999999997E-002    -1.1985656596330464E-016
  -8.5999999999999993E-002    -8.9402509350689291E-017
  -8.5150000000000003E-002     3.2405846083590878E-017
  -8.4300000000000000E-002     2.2958057292616891E-016
  -8.3449999999999996E-002     4.1610442177210334E-016
  -8.2600000000000007E-002     4.5127423834945327E-016
  -8.1749999999999989E-002     2.1030649006562662E-016
  -8.0900000000000000E-002    -3.1157126456517792E-016
  -8.0049999999999996E-002    -9.2664583237456909E-016
  -7.9199999999999993E-002    -1.2904099427104285E-015
  -7.8350000000000003E-002    -1.0715670323888912E-015
  -7.7499999999999999E-002    -1.8284906215183552E-016
  -7.6649999999999996E-002     1.0827978842067873E-015
  -7.5800000000000006E-002     2.1467681115440673E-015
  -7.4949999999999989E-002     2.4600474103849632E-015
  -7.4099999999999999E-002     1.8412506664709065E-015
  -7.3249999999999996E-002     5.7063419019941536E-016
  -7.2399999999999992E-002    -8.6844074020391298E-016
  -7.1550000000000002E-002    -2.1985347185390657E-015
  -7.0699999999999999E-002    -3.4999583550842248E-015
  -6.9849999999999995E-002    -4.8485084734269860E-015
  -6.9000000000000006E-002    -5.6745452964943447E-015
  -6.8149999999999988E-002    -4.5361870219814985E-015
  -6.7299999999999999E-002     8.0710276200577700E-017
  -6.6449999999999995E-002     8.1087167996427615E-015
  -6.5599999999999992E-002     1.6579009594749019E-014
  -6.4750000000000002E-002     2.0155137094990895E-014
  -6.3899999999999998E-002     1.4057759720953023E-014
  -6.3049999999999995E-002    -2.0105188359338409E-015
  -6.2199999999999998E-002    -2.1808981920104250E-014
  -6.1350000000000002E-002    -3.4766748434452716E-014
  -6.0499999999999998E-002    -3.2149087872405946E-014
  -5.9650000000000002E-002    -1.3543262359868869E-014
  -5.8799999999999998E-002     1.1297600393264855E-014
  -5.7950000000000002E-002     2.7825604591810351E-014
  -5.7099999999999998E-002     2.6721002754530958E-014
  -5.6249999999999994E-002     1.1644628510060261E-014
  -5.5400000000000005E-002    -2.0018346677546892E-015
  -5.4550000000000001E-002     1.6911130652294337E-015
  -5.3699999999999998E-002     2.4824837537446333E-014
  -5.2849999999999994E-002     4.9412167240116148E-014
  -5.2000000000000005E-002     4.6489702818093789E-014
  -5.1150000000000001E-002    -2.5975257283301300E-015
  -5.0299999999999997E-002    -8.6515126870458860E-014
  -4.9449999999999994E-002    -1.6183891101800695E-013
  -4.8600000000000004E-002    -1.7476079838377106E-013
  -4.7750000000000001E-002    -9.6079449613483252E-014
  -4.6899999999999997E-002     5.3356592627988325E-014
  -4.6049999999999994E-002     2.0706625099342976E-013
  -4.5200000000000004E-002     2.8909834482420545E-013
  -4.4350000000000001E-002     2.6049427839841836E-013
  -4.3499999999999997E-002     1.4344275558985079E-013
  -4.2649999999999993E-002     2.6153881307073570E-015
  -4.1800000000000004E-002    -1.0632997957760903E-013
  -4.0950000000000000E-002    -1.8267024878641937E-013
  -4.0099999999999997E-002    -2.7955933420825858E-013
  -3.9249999999999993E-002    -4.4530882682527538E-013
  -3.8400000000000004E-002    -6.4385303475152405E-013
  -3.7550000000000000E-002    -7.2101610563283205E-013
  -3.6699999999999997E-002    -4.6638422264201907E-013
  -3.5850000000000007E-002     2.4163985599161914E-013
  -3.5000000000000003E-002     1.2903580112869871E-012
  -3.4150000000000000E-002     2.2955892858810717E-012
  -3.3299999999999996E-002     2.7328445474781449E-012
  -3.2450000000000007E-002     2.1935485115832456E-012
  -3.1600000000000003E-002     6.2953587566655450E-013
  -3.0750000000000000E-002    -1.5656673570620529E-012
  -2.9899999999999996E-002    -3.7040802655974475E-012
  -2.9050000000000006E-002    -5.1051180449189430E-012
  -2.8200000000000003E-002    -5.3777652503155202E-012
  -2.7349999999999999E-002    -4.5203078208635033E-012
  -2.6499999999999996E-002    -2.7967545692692006E-012
  -2.5650000000000006E-002    -4.9943641703139767E-013
  -2.4800000000000003E-002     2.2212296816936187E-012
  -2.3949999999999999E-002     5.3398879001580846E-012
  -2.3099999999999996E-002     8.7816774167274482E-012
  -2.2250000000000006E-002     1.2242662909247077E-011
  -2.1400000000000002E-002     1.5156848804824010E-011
  -2.0549999999999999E-002     1.6833226844096782E-011
  -1.9699999999999995E-002     1.6635461290278677E-011
  -1.8850000000000006E-002     1.4037228212756618E-011
  -1.8000000000000002E-002     8.5120662939292621E-012
  -1.7149999999999999E-002    -5.7607841200801575E-013
  -1.6299999999999995E-002    -1.3802870540216009E-011
  -1.5450000000000005E-002    -3.1071348071616049E-011
  -1.4600000000000002E-002    -5.0710726359930904E-011
  -1.3749999999999998E-002    -6.8753374352714548E-011
  -1.2899999999999995E-002    -7.8916096905723304E-011
  -1.2050000000000005E-002    -7.3504598794767601E-011
  -1.1200000000000002E-002    -4.4925572366539262E-011
  -1.0349999999999998E-002     1.2937985554199323E-011
  -9.5000000000000084E-003     1.0423948316043866E-010
  -8.6500000000000049E-003     2.3184085762929385E-010
  -7.8000000000000014E-003     3.9872285116668580E-010
  -6.9499999999999978E-003     6.0924901826572157E-010
  -6.1000000000000082E-003     8.6950360224455723E-010
  -5.2500000000000047E-003     1.1865606399446048E-009
  -4.4000000000000011E-003     1.5673086618888064E-009
  -3.5499999999999976E-003     2.0178182418502115E-009
  -2.7000000000000079E-003     2.5439400037696604E-009
  -1.8500000000000044E-003     3.1530463559592772E-009
  -1.0000000000000009E-003     3.8561297928112487E-009
  -1.4999999999999736E-004     4.6693400143706133E-009
   6.9999999999999230E-004     5.6146302263590157E-009
   1.5499999999999958E-003     6.7199143833027943E-009
   2.3999999999999994E-003     8.0194723042819721E-009
   3.2500000000000029E-003     9.5548631961560863E-009
   4.0999999999999925E-003     1.1375698605392829E-008
   4.9499999999999961E-003     1.3539018799835809E-008
   5.7999999999999996E-003     1.6106554624210912E-008
   6.6499999999999893E-003     1.9140735523499257E-008
   7.5000000000000067E-003     2.2701877410674069E-008
   8.3499999999999963E-003     2.6849516146172631E-008
   9.1999999999999860E-003     3.1649164154469528E-008
   1.0050000000000003E-002     3.7182906747792542E-008
   1.0899999999999993E-002     4.3559549105606830E-008
   1.1750000000000010E-002     5.0919836512898655E-008
   1.2600000000000000E-002     5.9434297296085965E-008
   1.3449999999999990E-002     6.9295605476917385E-008
   1.4300000000000007E-002     8.0710449776016938E-008
   1.5149999999999997E-002     9.3896233658856724E-008
   1.5999999999999986E-002     1.0908485616964974E-007
   1.6850000000000004E-002     1.2653194319453543E-007
   1.7699999999999994E-002     1.4652651709686928E-007
   1.8549999999999983E-002     1.6939662353093118E-007
   1.9400000000000001E-002     1.9550992864662705E-007
   2.0249999999999990E-002     2.2527182836321201E-007
   2.1100000000000008E-002     2.5912629020452691E-007
   2.1949999999999997E-002     2.9756233170515663E-007
   2.2799999999999987E-002     3.4112543017794810E-007
   2.3650000000000004E-002     3.9042883338616707E-007
   2.4499999999999994E-002     4.4615922813060266E-007
   2.5349999999999984E-002     5.0907485334544880E-007
   2.6200000000000001E-002     5.7999888894034087E-007
   2.7049999999999991E-002     6.5981329092210055E-007
   2.7900000000000008E-002     7.4946049701152668E-007
   2.8749999999999998E-002     8.4995231523152496E-007
   2.9599999999999987E-002     9.6238275323980445E-007
   3.0450000000000005E-002     1.0879373962462959E-006
   3.1299999999999994E-002     1.2278955315546612E-006
   3.2149999999999984E-002     1.3836242656095969E-006
   3.3000000000000002E-002     1.5565752823614632E-006
   3.3849999999999991E-002     1.7482868276146484E-006
   3.4700000000000009E-002     1.9603952927727416E-006
   3.5549999999999998E-002     2.1946501446077689E-006
   3.6399999999999988E-002     2.4529227990430429E-006
   3.7250000000000005E-002     2.7372006052979212E-006
   3.8099999999999995E-002     3.0495646073296047E-006
   3.8949999999999985E-002     3.3921635453527762E-006
   3.9800000000000002E-002     3.7671903439276281E-006
   4.0649999999999992E-002     4.1768794298391526E-006
   4.1500000000000009E-002     4.6235144478789189E-006
   4.2349999999999999E-002     5.1094399583520778E-006
   4.3199999999999988E-002     5.6370658000201927E-006
   4.4050000000000006E-002     6.2088467204523290E-006
   4.4899999999999995E-002     6.8272538844576433E-006
   4.5749999999999985E-002     7.4947318131891345E-006
   4.6600000000000003E-002     8.2136778181773531E-006
   4.7449999999999992E-002     8.9864233808324171E-006
   4.8299999999999982E-002     9.8152296222020408E-006
   4.9149999999999999E-002     1.0702281220961472E-005
   4.9999999999999989E-002     1.1649651683550434E-005
   5.0850000000000006E-002     1.2659270254321306E-005
   5.1699999999999996E-002     1.3732862815839935E-005
   5.2549999999999986E-002     1.4871898487471608E-005
   5.3400000000000003E-002     1.6077549906891831E-005
   5.4249999999999993E-002     1.7350674421221057E-005
   5.5099999999999982E-002     1.8691794417613491E-005
   5.5950000000000000E-002     2.0101048711555527E-005
   5.6799999999999989E-002     2.1578171806746966E-005
   5.7650000000000007E-002     2.3122436935160023E-005
   5.8499999999999996E-002     2.4732622544766531E-005
   5.9349999999999986E-002     2.6406972323107816E-005
   6.0200000000000004E-002     2.8143180063931550E-005
   6.1049999999999993E-002     2.9938358439827827E-005
   6.1899999999999983E-002     3.1789021183373391E-005
   6.2750000000000000E-002     3.3691064859548870E-005
   6.3599999999999990E-002     3.5639727882848371E-005
   6.4450000000000007E-002     3.7629503048201424E-005
   6.5299999999999997E-002     3.9654142272276009E-005
   6.6149999999999987E-002     4.1706651696020713E-005
   6.7000000000000004E-002     4.3779329019997467E-005
   6.7849999999999994E-002     4.5863797648622477E-005
   6.8699999999999983E-002     4.7951019066556285E-005
   6.9550000000000001E-002     5.0031308991752997E-005
   7.0399999999999990E-002     5.2094300530735720E-005
   7.1249999999999980E-002     5.4128990156079294E-005
   7.2099999999999997E-002     5.6123796227724397E-005
   7.2949999999999987E-002     5.8066600515577040E-005
   7.3800000000000004E-002     5.9944841326945774E-005
   7.4649999999999994E-002     6.1745606899718617E-005
   7.5499999999999984E-002     6.3455687154628196E-005
   7.6350000000000001E-002     6.5061691541160673E-005
   7.7199999999999991E-002     6.6550094788530125E-005
   7.8049999999999981E-002     6.7907330676967036E-005
   7.8899999999999998E-002     6.9119908307199325E-005
   7.9749999999999988E-002     7.0174481048829659E-005
   8.0600000000000005E-002     7.1058002478776580E-005
   8.1449999999999995E-002     7.1757840770533718E-005
   8.2299999999999984E-002     7.2261864243665001E-005
   8.3150000000000002E-002     7.2558620297700539E-005
   8.3999999999999991E-002     7.2637433707792691E-005
   8.4849999999999981E-002     7.2488520543130005E-005
   8.5699999999999998E-002     7.2103085269278398E-005
   8.6549999999999988E-002     7.1473450333251251E-005
   8.7400000000000005E-002     7.0593135395123369E-005
   8.8249999999999995E-002     6.9457008920883464E-005
   8.9099999999999985E-002     6.8061379969142451E-005
   8.9950000000000002E-002     6.6404092161430515E-005
   9.0799999999999992E-002     6.4484601216310963E-005
   9.1649999999999981E-002     6.2303959748830895E-005
   9.2499999999999999E-002     5.9864880465580999E-005
   9.3349999999999989E-002     5.7171717703159868E-005
   9.4200000000000006E-002     5.4230479570752360E-005
   9.5049999999999996E-002     5.1048835203795301E-005
   9.5899999999999985E-002     4.7636077707080438E-005
   9.6750000000000003E-002     4.4003137357185039E-005
   9.7599999999999992E-002     4.0162597393597677E-005
   9.8449999999999982E-002     3.6128622973384132E-005
   9.9299999999999999E-002     3.1916865875403872E-005
  0.10014999999999999          2.7544309907159965E-005
  0.10099999999999998          2.3029100775808680E-005
  0.10185000000000000          1.8390421171713206E-005
  0.10269999999999999          1.3648338688758056E-005
  0.10355000000000000          8.8236704370200858E-006
  0.10439999999999999          3.9378212900690118E-006
  0.10524999999999998         -9.8740848055311116E-007
  0.10610000000000000         -5.9299763022743690E-006
  0.10694999999999999         -1.0867769043448975E-005
  0.10779999999999998         -1.5778738956661954E-005
  0.10865000000000000         -2.0641075890581042E-005
  0.10949999999999999         -2.5433426860356949E-005
  0.11035000000000000         -3.0135191523140821E-005
  0.11119999999999999         -3.4726769869749784E-005
  0.11204999999999998         -3.9189763717158464E-005
  0.11290000000000000         -4.3507064923327431E-005
  0.11374999999999999         -4.7662976752722695E-005
  0.11459999999999998         -5.1643309279327504E-005
  0.11545000000000000         -5.5435478277947812E-005
  0.11629999999999999         -5.9028652712251589E-005
  0.11715000000000000         -6.2413899981936306E-005
  0.11799999999999999         -6.5584252373108185E-005
  0.11884999999999998         -6.8534774734147825E-005
  0.11970000000000000         -7.1262632150937143E-005
  0.12054999999999999         -7.3767080426298637E-005
  0.12139999999999998         -7.6049453763601146E-005
  0.12225000000000000         -7.8113145377311306E-005
  0.12309999999999999         -7.9963560881892560E-005
  0.12395000000000000         -8.1608052199454647E-005
  0.12479999999999999         -8.3055876653335818E-005
  0.12564999999999998         -8.4318064430214488E-005
  0.12650000000000000         -8.5407236215533167E-005
  0.12734999999999999         -8.6337419746239038E-005
  0.12819999999999998         -8.7123937294360005E-005
  0.12905000000000000         -8.7783304077969574E-005
  0.12989999999999999         -8.8333093987188132E-005
  0.13074999999999998         -8.8791771138013156E-005
  0.13159999999999999         -8.9178407895739123E-005
  0.13245000000000001         -8.9512381080401182E-005
  0.13329999999999997         -8.9813129948683218E-005
  0.13414999999999999         -9.0099968002217993E-005
  0.13500000000000001         -9.0391932196542420E-005
  0.13584999999999997         -9.0707605869842520E-005
  0.13669999999999999         -9.1064833026503620E-005
  0.13755000000000001         -9.1480464227162718E-005
  0.13839999999999997         -9.1970079751500626E-005
  0.13924999999999998         -9.2547855884872070E-005
  0.14010000000000000         -9.3226432815791784E-005
  0.14094999999999996         -9.4016803677928083E-005
  0.14179999999999998         -9.4928138845245288E-005
  0.14265000000000000         -9.5967571934849156E-005
  0.14350000000000002         -9.7140042505784681E-005
  0.14434999999999998         -9.8448142324285227E-005
  0.14520000000000000         -9.9892060650768491E-005
  0.14605000000000001         -1.0146950014685663E-004
  0.14689999999999998         -1.0317563604600710E-004
  0.14774999999999999         -1.0500308149710256E-004
  0.14860000000000001         -1.0694189070957592E-004
  0.14944999999999997         -1.0897960619617200E-004
  0.15029999999999999         -1.1110136171681890E-004
  0.15115000000000001         -1.1328992545948558E-004
  0.15199999999999997         -1.1552575215815311E-004
  0.15284999999999999         -1.1778710957755683E-004
  0.15370000000000000         -1.2005021373476165E-004
  0.15454999999999997         -1.2228942203644508E-004
  0.15539999999999998         -1.2447744861290904E-004
  0.15625000000000000         -1.2658556986893502E-004
  0.15709999999999996         -1.2858379109791443E-004
  0.15794999999999998         -1.3044109484573597E-004
  0.15880000000000000         -1.3212572987329204E-004
  0.15965000000000001         -1.3360556160480961E-004
  0.16049999999999998         -1.3484835359665114E-004
  0.16134999999999999         -1.3582210242572419E-004
  0.16220000000000001         -1.3649524506737957E-004
  0.16304999999999997         -1.3683700129517529E-004
  0.16389999999999999         -1.3681768113417542E-004
  0.16475000000000001         -1.3640908842505145E-004
  0.16559999999999997         -1.3558481499593701E-004
  0.16644999999999999         -1.3432061673844479E-004
  0.16730000000000000         -1.3259457452356228E-004
  0.16814999999999997         -1.3038733082794334E-004
  0.16899999999999998         -1.2768244634251764E-004
  0.16985000000000000         -1.2446660224192188E-004
  0.17069999999999996         -1.2072988915278260E-004
  0.17154999999999998         -1.1646600765633219E-004
  0.17240000000000000         -1.1167237868878508E-004
  0.17325000000000002         -1.0635026804116206E-004
  0.17409999999999998         -1.0050486180573574E-004
  0.17494999999999999         -9.4145409270372245E-005
  0.17580000000000001         -8.7285241262601763E-005
  0.17664999999999997         -7.9941780345788664E-005
  0.17749999999999999         -7.2136405569676274E-005
  0.17835000000000001         -6.3894353429956601E-005
  0.17919999999999997         -5.5244597963696951E-005
  0.18004999999999999         -4.6219756051722143E-005
  0.18090000000000001         -3.6855908103563658E-005
  0.18174999999999997         -2.7192387217459187E-005
  0.18259999999999998         -1.7271433155475332E-005
  0.18345000000000000         -7.1378539045875151E-006
  0.18429999999999996          3.1613713864379542E-006
  0.18514999999999998          1.3577411968259659E-005
  0.18600000000000000          2.4059903315485402E-005
  0.18684999999999996          3.4557283470091612E-005
  0.18769999999999998          4.5017167172511700E-005
  0.18855000000000000          5.5386779615369997E-005
  0.18940000000000001          6.5613451991458621E-005
  0.19024999999999997          7.5645124894599272E-005
  0.19109999999999999          8.5430787853838077E-005
  0.19195000000000001          9.4920878636792588E-005
  0.19279999999999997          1.0406762088845192E-004
  0.19364999999999999          1.1282528579235273E-004
  0.19450000000000001          1.2115060906068703E-004
  0.19534999999999997          1.2900317329831896E-004
  0.19619999999999999          1.3634583108942730E-004
  0.19705000000000000          1.4314503583796523E-004
  0.19789999999999996          1.4937104025865129E-004
  0.19874999999999998          1.5499791375180586E-004
  0.19960000000000000          1.6000366440874545E-004
  0.20044999999999996          1.6437040344153317E-004
  0.20129999999999998          1.6808453592390604E-004
  0.20215000000000000          1.7113692146047328E-004
  0.20300000000000001          1.7352299531302217E-004
  0.20384999999999998          1.7524261931485909E-004
  0.20469999999999999          1.7629995106387375E-004
  0.20555000000000001          1.7670319957108398E-004
  0.20639999999999997          1.7646454341322190E-004
  0.20724999999999999          1.7559996739461458E-004
  0.20810000000000001          1.7412911327797400E-004
  0.20894999999999997          1.7207502385248766E-004
  0.20979999999999999          1.6946382770149891E-004
  0.21065000000000000          1.6632442580334162E-004
  0.21149999999999997          1.6268825769468945E-004
  0.21234999999999998          1.5858904849245413E-004
  0.21320000000000000          1.5406251829818055E-004
  0.21404999999999996          1.4914596023942023E-004
  0.21489999999999998          1.4387782387683602E-004
  0.21575000000000000          1.3829735931990833E-004
  0.21659999999999996          1.3244427148863372E-004
  0.21744999999999998          1.2635847879598707E-004
  0.21829999999999999          1.2007975529975061E-004
  0.21915000000000001          1.1364751614514180E-004
  0.21999999999999997          1.0710046595758506E-004
  0.22084999999999999          1.0047637003671208E-004
  0.22170000000000001          9.3811777215112391E-005
  0.22254999999999997          8.7141825461457527E-005
  0.22339999999999999          8.0499986099774742E-005
  0.22425000000000000          7.3917863797326653E-005
  0.22509999999999997          6.7425009785839984E-005
  0.22594999999999998          6.1048824430877857E-005
  0.22680000000000000          5.4814542692246597E-005
  0.22764999999999996          4.8745168137904615E-005
  0.22849999999999998          4.2861420006726144E-005
  0.22935000000000000          3.7181648587299931E-005
  0.23019999999999996          3.1721779832343920E-005
  0.23104999999999998          2.6495339722563208E-005
  0.23190000000000000          2.1513570575547292E-005
  0.23275000000000001          1.6785523632915534E-005
  0.23359999999999997          1.2318126799403533E-005
  0.23444999999999999          8.1162196765276449E-006
  0.23530000000000001          4.1825836502531656E-006
  0.23614999999999997          5.1805533027631625E-007
  0.23699999999999999         -2.8783029903574717E-006
  0.23785000000000001         -6.0090197553054894E-006
  0.23869999999999997         -8.8780565596105145E-006
  0.23954999999999999         -1.1490712449417578E-005
  0.24040000000000000         -1.3853515017499275E-005
  0.24124999999999996         -1.5974083304075091E-005
  0.24209999999999998         -1.7860947966313203E-005
  0.24295000000000000         -1.9523370315097562E-005
  0.24379999999999996         -2.0971231851047028E-005
  0.24464999999999998         -2.2214958522893051E-005
  0.24550000000000000         -2.3265471562127137E-005
  0.24634999999999996         -2.4134081639637670E-005
  0.24719999999999998         -2.4832325651293213E-005
  0.24804999999999999         -2.5371784006328115E-005
  0.24890000000000001         -2.5763939924151153E-005
  0.24974999999999997         -2.6020117438875785E-005
  0.25059999999999999         -2.6151469680462008E-005
  0.25145000000000001         -2.6168946933713612E-005
  0.25229999999999997         -2.6083240204501611E-005
  0.25314999999999999         -2.5904678789730595E-005
  0.25400000000000000         -2.5643160122667270E-005
  0.25484999999999997         -2.5308103384423749E-005
  0.25569999999999998         -2.4908479965953635E-005
  0.25655000000000000         -2.4452822000382602E-005
  0.25739999999999996         -2.3949225287521633E-005
  0.25824999999999998         -2.3405320108297847E-005
  0.25910000000000000         -2.2828212045695183E-005
  0.25994999999999996         -2.2224439871127538E-005
  0.26079999999999998         -2.1599968378850196E-005
  0.26164999999999999         -2.0960209499639315E-005
  0.26249999999999996         -2.0310064537224455E-005
  0.26334999999999997         -1.9653975565548341E-005
  0.26419999999999999         -1.8995965088571488E-005
  0.26505000000000001         -1.8339667323517234E-005
  0.26589999999999997         -1.7688321889462612E-005
  0.26674999999999999         -1.7044775815279018E-005
  0.26760000000000000         -1.6411464533437764E-005
  0.26844999999999997         -1.5790429241100274E-005
  0.26929999999999998         -1.5183357800464700E-005
  0.27015000000000000         -1.4591653663295642E-005
  0.27099999999999996         -1.4016505549636931E-005
  0.27184999999999998         -1.3458927274107381E-005
  0.27270000000000000         -1.2919733499586867E-005
  0.27354999999999996         -1.2399482057480418E-005
  0.27439999999999998         -1.1898424066114422E-005
  0.27524999999999999         -1.1416529733793659E-005
  0.27609999999999996         -1.0953580634115796E-005
  0.27694999999999997         -1.0509306881946864E-005
  0.27779999999999999         -1.0083475573201752E-005
  0.27865000000000001         -9.6758759427748566E-006
  0.27949999999999997         -9.2862211315758857E-006
  0.28034999999999999         -8.9140480892734044E-006
  0.28120000000000001         -8.5587087230950137E-006
  0.28204999999999997         -8.2194596244884770E-006
  0.28289999999999998         -7.8956014174035373E-006
  0.28375000000000000         -7.5865524964771667E-006
  0.28459999999999996         -7.2918171121698577E-006
  0.28544999999999998         -7.0108839899884387E-006
  0.28630000000000000         -6.7431435972295920E-006
  0.28714999999999996         -6.4878908489243247E-006
  0.28799999999999998         -6.2444006746651712E-006
  0.28885000000000000         -6.0119974470007013E-006
  0.28969999999999996         -5.7900753336266816E-006
  0.29054999999999997         -5.5780780577481100E-006
  0.29139999999999999         -5.3754898582860260E-006
  0.29224999999999995         -5.1818621698898926E-006
  0.29309999999999997         -4.9968513507547592E-006
  0.29394999999999999         -4.8201996048173867E-006
  0.29480000000000001         -4.6516441915423903E-006
  0.29564999999999997         -4.4908202959742987E-006
  0.29649999999999999         -4.3372436675227530E-006
  0.29735000000000000         -4.1904088409810772E-006
  0.29819999999999997         -4.0499279118171717E-006
  0.29904999999999998         -3.9155878743237556E-006
  0.29990000000000000         -3.7872726381607891E-006
  0.30074999999999996         -3.6648096940404575E-006
  0.30159999999999998         -3.5478822094130832E-006
  0.30245000000000000         -3.4360872348302770E-006
  0.30329999999999996         -3.3290867453921154E-006
  0.30414999999999998         -3.2267134248224236E-006
  0.30499999999999999         -3.1289300149244895E-006
  0.30584999999999996         -3.0356771713867899E-006
  0.30669999999999997         -2.9467477388795576E-006
  0.30754999999999999         -2.8617991699542708E-006
  0.30840000000000001         -2.7804856791861081E-006
  0.30924999999999997         -2.7025783658651399E-006
  0.31009999999999999         -2.6279580662592541E-006
  0.31095000000000000         -2.5564903402721192E-006
  0.31179999999999997         -2.4879094840169919E-006
  0.31264999999999998         -2.4218308675173297E-006
  0.31350000000000000         -2.3578919490922091E-006
  0.31434999999999996         -2.2958951434469181E-006
  0.31519999999999998         -2.2358194330232815E-006
  0.31605000000000000         -2.1776851649861237E-006
  0.31689999999999996         -2.1213839768507489E-006
  0.31774999999999998         -2.0666152380219570E-006
  0.31859999999999999         -2.0129673132660039E-006
  0.31944999999999996         -1.9600626744164048E-006
  0.32029999999999997         -1.9076335791054583E-006
  0.32114999999999999         -1.8554852056872265E-006
  0.32199999999999995         -1.8034036421993310E-006
  0.32284999999999997         -1.7511124084658480E-006
  0.32369999999999999         -1.6983249754283331E-006
  0.32455000000000001         -1.6448361017306749E-006
  0.32539999999999997         -1.5905620467068105E-006
  0.32624999999999998         -1.5354841073090457E-006
  0.32710000000000000         -1.4795367237838012E-006
  0.32794999999999996         -1.4225276542655887E-006
  0.32879999999999998         -1.3641420264328912E-006
  0.32965000000000000         -1.3040138986725655E-006
  0.33049999999999996         -1.2418109444380171E-006
  0.33134999999999998         -1.1772837901145011E-006
  0.33220000000000000         -1.1102738323849243E-006
  0.33304999999999996         -1.0406888308781912E-006
  0.33389999999999997         -9.6845705352687554E-007
  0.33474999999999999         -8.9346993721826981E-007
  0.33559999999999995         -8.1553151767733047E-007
  0.33644999999999997         -7.3435026529154039E-007
  0.33729999999999999         -6.4959047091814363E-007
  0.33815000000000001         -5.6095270281531131E-007
  0.33899999999999997         -4.6822478483333662E-007
  0.33984999999999999         -3.7126064507823362E-007
  0.34070000000000000         -2.6989785877088269E-007
  0.34154999999999996         -1.6389759848576575E-007
  0.34239999999999998         -5.2958819657484162E-008
  0.34325000000000000          6.3197410490463256E-008