 -0.12000000000000000          0.0000000000000000
 -0.11914999999999999          0.0000000000000000
 -0.11830000000000000          0.0000000000000000
 -0.11745000000000000         -1.6716508691228986E-016
 -0.11660000000000000         -1.0888623379690729E-015
 -0.11574999999999999         -2.6975044044084842E-015
 -0.11490000000000000         -9.6513526805934735E-016
 -0.11405000000000000          1.3091730087627728E-014
 -0.11320000000000000          4.2760607053352692E-014
 -0.11234999999999999          6.2342397626616785E-014
 -0.11150000000000000          4.0169259067582230E-015
 -0.11065000000000000         -2.0566381010059255E-013
 -0.10979999999999999         -5.4515644198670543E-013
 -0.10894999999999999         -7.9139254390312452E-013
 -0.10810000000000000         -5.3339977448041607E-013
 -0.10725000000000000          5.9126388884281905E-013
 -0.10639999999999999          2.4897060916908319E-012
 -0.10554999999999999          4.2992046442189724E-012
 -0.10470000000000000          4.5179484831243774E-012
 -0.10385000000000000          1.7558507169595819E-012
 -0.10299999999999999         -4.1395001944438686E-012
 -0.10214999999999999         -1.1244298774627588E-011
 -0.10130000000000000         -1.5755225889926923E-011
 -0.10045000000000000         -1.3540395127289850E-011
  -9.9599999999999994E-002    -2.5626196194271421E-012
  -9.8750000000000004E-002     1.5039627518553040E-011
  -9.7900000000000001E-002     3.2590588495424904E-011
  -9.7049999999999997E-002     4.0958851867600214E-011
  -9.6199999999999994E-002     3.2558851248742643E-011
  -9.5349999999999990E-002     5.5489859084192218E-012
  -9.4500000000000001E-002    -3.3909044525849294E-011
  -9.3649999999999997E-002    -7.2710473831103758E-011
  -9.2799999999999994E-002    -9.4957824144164176E-011
  -9.1950000000000004E-002    -8.7431377571141241E-011
  -9.1100000000000000E-002    -4.4125518745744544E-011
  -9.0249999999999997E-002     3.1521042442559185E-011
  -8.9399999999999993E-002     1.2654766144174832E-010
  -8.8549999999999990E-002     2.1953229748509567E-010
  -8.7700000000000000E-002     2.8238648494561758E-010
  -8.6849999999999997E-002     2.8399399025080107E-010
  -8.5999999999999993E-002     1.9749645787687797E-010
  -8.5150000000000003E-002     1.1467840079235534E-011
  -8.4300000000000000E-002    -2.5817582060226651E-010
  -8.3449999999999996E-002    -5.6141176093690107E-010
  -8.2600000000000007E-002    -8.1758920827818205E-010
  -8.1749999999999989E-002    -9.2931896032375691E-010
  -8.0900000000000000E-002    -8.0060293252078663E-010
  -8.0049999999999996E-002    -3.4981377341232093E-010
  -7.9199999999999993E-002     4.8908314381429871E-010
  -7.8350000000000003E-002     1.7762596109850614E-009
  -7.7499999999999999E-002     3.5788326786976327E-009
  -7.6649999999999996E-002     5.9772014503261003E-009
  -7.5800000000000006E-002     9.0603009450707337E-009
  -7.4949999999999989E-002     1.2913310448708640E-008
  -7.4099999999999999E-002     1.7607156413967994E-008
  -7.3249999999999996E-002     2.3199133269132147E-008
  -7.2399999999999992E-002     2.9748517557589437E-008
  -7.1550000000000002E-002     3.7343728248202239E-008
  -7.0699999999999999E-002     4.6132074352225320E-008
  -6.9849999999999995E-002     5.6341703719790722E-008
  -6.9000000000000006E-002     6.8288146166785482E-008
  -6.8149999999999988E-002     8.2364279448332410E-008
  -6.7299999999999999E-002     9.9020721671961472E-008
  -6.6449999999999995E-002     1.1874968156388097E-007
  -6.5599999999999992E-002     1.4208507142902350E-007
  -6.4750000000000002E-002     1.6962341281406674E-007
  -6.3899999999999998E-002     2.0205751687374351E-007
  -6.3049999999999995E-002     2.4020586252043258E-007
  -6.2199999999999998E-002     2.8502345303855956E-007
  -6.1350000000000002E-002     3.3759400763100542E-007
  -6.0499999999999998E-002     3.9911847275984076E-007
  -5.9650000000000002E-002     4.7092040763918057E-007
  -5.8799999999999998E-002     5.5447746781079894E-007
  -5.7950000000000002E-002     6.5147119223637898E-007
  -5.7099999999999998E-002     7.6383533689167334E-007
  -5.6249999999999994E-002     8.9378866002422829E-007
  -5.5400000000000005E-002     1.0438540720821492E-006
  -5.4550000000000001E-002     1.2168796148092414E-006
  -5.3699999999999998E-002     1.4160721551197662E-006
  -5.2849999999999994E-002     1.6450432146198178E-006
  -5.2000000000000005E-002     1.9078506530705727E-006
  -5.1150000000000001E-002     2.2090253205201395E-006
  -5.0299999999999997E-002     2.5535880790924520E-006
  -4.9449999999999994E-002     2.9470787067289644E-006
  -4.8600000000000004E-002     3.3956159115138910E-006
  -4.7750000000000001E-002     3.9059870980734436E-006
  -4.6899999999999997E-002     4.4857482971833914E-006
  -4.6049999999999994E-002     5.1433050025883911E-006
  -4.5200000000000004E-002     5.8879639110965781E-006
  -4.4350000000000001E-002     6.7299620287863903E-006
  -4.3499999999999997E-002     7.6804964027753077E-006
  -4.2649999999999993E-002     8.7517728550164597E-006
  -4.1800000000000004E-002     9.9570626923934312E-006
  -4.0950000000000000E-002     1.1310766713269400E-005
  -4.0099999999999997E-002     1.2828478803463127E-005
  -3.9249999999999993E-002     1.4527053275631058E-005
  -3.8400000000000004E-002     1.6424677076590040E-005
  -3.7550000000000000E-002     1.8540941148750938E-005
  -3.6699999999999997E-002     2.0896884170504333E-005
  -3.5850000000000007E-002     2.3515017439979573E-005
  -3.5000000000000003E-002     2.6419299385043119E-005
  -3.4150000000000000E-002     2.9635119452016692E-005
  -3.3299999999999996E-002     3.3189297660685485E-005
  -3.2450000000000007E-002     3.7110091088855367E-005
  -3.1600000000000003E-002     4.1427204074829221E-005
  -3.0750000000000000E-002     4.6171753665172645E-005
  -2.9899999999999996E-002     5.1376182297577320E-005
  -2.9050000000000006E-002     5.7074146381070659E-005
  -2.8200000000000003E-002     6.3300369760543209E-005
  -2.7349999999999999E-002     7.0090533537026071E-005
  -2.6499999999999996E-002     7.7481100168025457E-005
  -2.5650000000000006E-002     8.5509145542582771E-005
  -2.4800000000000003E-002     9.4212026123061774E-005
  -2.3949999999999999E-002     1.0362714412070868E-004
  -2.3099999999999996E-002     1.1379160673793123E-004
  -2.2250000000000006E-002     1.2474191661927692E-004
  -2.1400000000000002E-002     1.3651363230739015E-004
  -2.0549999999999999E-002     1.4914095462449981E-004
  -1.9699999999999995E-002     1.6265627559215571E-004
  -1.8850000000000006E-002     1.7708960108174597E-004
  -1.8000000000000002E-002     1.9246806555972429E-004
  -1.7149999999999999E-002     2.0881530204764509E-004
  -1.6299999999999995E-002     2.2615086650262377E-004
  -1.5450000000000005E-002     2.4448963972283018E-004
  -1.4600000000000002E-002     2.6384114454695124E-004
  -1.3749999999999998E-002     2.8420887501786165E-004
  -1.2899999999999995E-002     3.0558947632835853E-004
  -1.2050000000000005E-002     3.2797221160083917E-004
  -1.1200000000000002E-002     3.5133820573951568E-004
  -1.0349999999999998E-002     3.7565970856032145E-004
  -9.5000000000000084E-003     4.0089946432038799E-004
  -8.6500000000000049E-003     4.2700993977190516E-004
  -7.8000000000000014E-003     4.5393262158727605E-004
  -6.9499999999999978E-003     4.8159746171175152E-004
  -6.1000000000000082E-003     5.0992232994547676E-004
  -5.2500000000000047E-003     5.3881242049683489E-004
  -4.4000000000000011E-003     5.6815988386306232E-004
  -3.5499999999999976E-003     5.9784323563443159E-004
  -2.7000000000000079E-003     6.2772721282469658E-004
  -1.8500000000000044E-003     6.5766263473175212E-004
  -1.0000000000000009E-003     6.8748614910326864E-004
  -1.4999999999999736E-004     7.1702060729491224E-004
   6.9999999999999230E-004     7.4607517411033998E-004
   1.5499999999999958E-003     7.7444565034774074E-004
   2.3999999999999994E-003     8.0191473944357520E-004
   3.2500000000000029E-003     8.2825307214999858E-004
   4.0999999999999925E-003     8.5321972304483993E-004
   4.9499999999999961E-003     8.7656319921773705E-004
   5.7999999999999996E-003     8.9802289841531800E-004
   6.6499999999999893E-003     9.1733018186436780E-004
   7.5000000000000067E-003     9.3421023315788491E-004
   8.3499999999999963E-003     9.4838350745981637E-004
   9.1999999999999860E-003     9.5956743489846754E-004
   1.0050000000000003E-002     9.6747883976652967E-004
   1.0899999999999993E-002     9.7183611661207927E-004
   1.1750000000000010E-002     9.7236105627680714E-004
   1.2600000000000000E-002     9.6878206358816171E-004
   1.3449999999999990E-002     9.6083634265600520E-004
   1.4300000000000007E-002     9.4827264091609971E-004
   1.5149999999999997E-002     9.3085392596130474E-004
   1.5999999999999986E-002     9.0836045211116750E-004
   1.6850000000000004E-002     8.8059209607036068E-004
   1.7699999999999994E-002     8.4737169161104358E-004
   1.8549999999999983E-002     8.0854748112976554E-004
   1.9400000000000001E-002     7.6399614953598458E-004
   2.0249999999999990E-002     7.1362512749265409E-004
   2.1100000000000008E-002     6.5737530114893432E-004
   2.1949999999999997E-002     5.9522356911309116E-004
   2.2799999999999987E-002     5.2718456193378530E-004
   2.3650000000000004E-002     4.5331292443223767E-004
   2.4499999999999994E-002     3.7370499434372816E-004
   2.5349999999999984E-002     2.8850016064551926E-004
   2.6200000000000001E-002     1.9788207905292358E-004
   2.7049999999999991E-002     1.0207919464816717E-004
   2.7900000000000008E-002     1.3652446739068384E-006
   2.8749999999999998E-002    -1.0394076480714715E-004
   2.9599999999999987E-002    -2.1347493208861558E-004
   3.0450000000000005E-002    -3.2682923581768493E-004
   3.1299999999999994E-002    -4.4355276354556358E-004
   3.2149999999999984E-002    -5.6315343462994731E-004
   3.3000000000000002E-002    -6.8510006485295060E-004
   3.3849999999999991E-002    -8.0882488771953230E-004
   3.4700000000000009E-002    -9.3372657243945604E-004
   3.5549999999999998E-002    -1.0591736505435817E-003
   3.6399999999999988E-002    -1.1845080145492534E-003
   3.7250000000000005E-002    -1.3090495420654063E-003
   3.8099999999999995E-002    -1.4321002242365772E-003
   3.8949999999999985E-002    -1.5529487447047488E-003
   3.9800000000000002E-002    -1.6708762579749502E-003
   4.0649999999999992E-002    -1.7851611248561395E-003
   4.1500000000000009E-002    -1.8950843909909657E-003
   4.2349999999999999E-002    -1.9999356833327328E-003
   4.3199999999999988E-002    -2.0990186041685999E-003
   4.4050000000000006E-002    -2.1916568658243703E-003
   4.4899999999999995E-002    -2.2771999676424555E-003
   4.5749999999999985E-002    -2.3550279168694311E-003
   4.6600000000000003E-002    -2.4245585456784771E-003
   4.7449999999999992E-002    -2.4852509910797578E-003
   4.8299999999999982E-002    -2.5366116670121931E-003
   4.9149999999999999E-002    -2.5781989828469773E-003
   4.9999999999999989E-002    -2.6096273702097710E-003
   5.0850000000000006E-002    -2.6305714780959842E-003
   5.1699999999999996E-002    -2.6407696996716408E-003
   5.2549999999999986E-002    -2.6400269733352724E-003
   5.3400000000000003E-002    -2.6282176511721366E-003
   5.4249999999999993E-002    -2.6052865340066233E-003
   5.5099999999999982E-002    -2.5712508746092984E-003
   5.5950000000000000E-002    -2.5262013986690466E-003
   5.6799999999999989E-002    -2.4703016165388029E-003
   5.7650000000000007E-002    -2.4037873606099331E-003
   5.8499999999999996E-002    -2.3269655480676107E-003
   5.9349999999999986E-002    -2.2402116138922467E-003
   6.0200000000000004E-002    -2.1439681005606310E-003
   6.1049999999999993E-002    -2.0387410022419967E-003
   6.1899999999999983E-002    -1.9250959836479447E-003
   6.2750000000000000E-002    -1.8036549174012028E-003
   6.3599999999999990E-002    -1.6750898112448485E-003
   6.4450000000000007E-002    -1.5401183507901136E-003
   6.5299999999999997E-002    -1.3994982218121467E-003
   6.6149999999999987E-002    -1.2540207707764173E-003
   6.7000000000000004E-002    -1.1045052360784291E-003
   6.7849999999999994E-002    -9.5179210475401473E-004
   6.8699999999999983E-002    -7.9673687303232171E-004
   6.9550000000000001E-002    -6.4020248729324783E-004
   7.0399999999999990E-002    -4.8305333811871651E-004
   7.1249999999999980E-002    -3.2614795708798866E-004
   7.2099999999999997E-002    -1.7033300384800991E-004
   7.2949999999999987E-002    -1.6436406301006284E-005
   7.3800000000000004E-002     1.3473876394403344E-004
   7.4649999999999994E-002     2.8242013461227111E-004
   7.5499999999999984E-002     4.2587176145356532E-004
   7.6350000000000001E-002     5.6439911509870448E-004
   7.7199999999999991E-002     6.9735362537775051E-004
   7.8049999999999981E-002     8.2413685544125640E-004
   7.8899999999999998E-002     9.4420414923085351E-004
   7.9749999999999988E-002     1.0570676901720160E-003
   8.0600000000000005E-002     1.1622991572503595E-003
   8.1449999999999995E-002     1.2595318718763419E-003
   8.2299999999999984E-002     1.3484619772884433E-003
   8.3150000000000002E-002     1.4288493626102427E-003
   8.3999999999999991E-002     1.5005173117400353E-003
   8.4849999999999981E-002     1.5633522940471480E-003
   8.5699999999999998E-002     1.6173032285425654E-003
   8.6549999999999988E-002     1.6623798076566825E-003
   8.7400000000000005E-002     1.6986504948859368E-003
   8.8249999999999995E-002     1.7262398401563519E-003
   8.9099999999999985E-002     1.7453258420623420E-003
   8.9950000000000002E-002     1.7561366724547839E-003
   9.0799999999999992E-002     1.7589467294519823E-003
   9.1649999999999981E-002     1.7540727414900709E-003
   9.2499999999999999E-002     1.7418701002451522E-003
   9.3349999999999989E-002     1.7227281004108383E-003
   9.4200000000000006E-002     1.6970656562033482E-003
   9.5049999999999996E-002     1.6653264045344129E-003
   9.5899999999999985E-002     1.6279745105188350E-003
   9.6750000000000003E-002     1.5854897976791324E-003
   9.7599999999999992E-002     1.5383633218334879E-003
   9.8449999999999982E-002     1.4870930240471420E-003
   9.9299999999999999E-002     1.4321796332887964E-003
  0.10014999999999999          1.3741220307678078E-003
  0.10099999999999998          1.3134135702367971E-003
  0.10185000000000000          1.2505386624049207E-003
  0.10269999999999999          1.1859693345086123E-003
  0.10355000000000000          1.1201622154191158E-003
  0.10439999999999999          1.0535557461360003E-003
  0.10524999999999998          9.8656776634091872E-004
  0.10610000000000000          9.1959363201323560E-004
  0.10694999999999999          8.5300398018208845E-004
  0.10779999999999998          7.8714355730342891E-004
  0.10865000000000000          7.2232991622894348E-004
  0.10949999999999999          6.5885270842251859E-004
  0.11035000000000000          5.9697331918042514E-004
  0.11119999999999999          5.3692454027015038E-004
  0.11204999999999998          4.7891086395280847E-004
  0.11290000000000000          4.2310854035660349E-004
  0.11374999999999999          3.6966633309431439E-004
  0.11459999999999998          3.1870605520540246E-004
  0.11545000000000000          2.7032378778066345E-004
  0.11629999999999999          2.2459087786252976E-004
  0.11715000000000000          1.8155532667000666E-004
  0.11799999999999999          1.4124325636207129E-004
  0.11884999999999998          1.0366022498561849E-004
  0.11970000000000000          6.8792782365549178E-005
  0.12054999999999999          3.6609922696201130E-005
  0.12139999999999998          7.0649204361640262E-006
  0.12225000000000000         -1.9902978275947914E-005
  0.12309999999999999         -4.4366725085752211E-005
  0.12395000000000000         -6.6409798363449481E-005
  0.12479999999999999         -8.6124737672473592E-005
  0.12564999999999998         -1.0361174904772687E-004
  0.12650000000000000         -1.1897731363907260E-004
  0.12734999999999999         -1.3233270507116736E-004
  0.12819999999999998         -1.4379257168075746E-004
  0.12905000000000000         -1.5347360881606904E-004
  0.12989999999999999         -1.6149343632118976E-004
  0.13074999999999998         -1.6796976522326791E-004
  0.13159999999999999         -1.7301946670814533E-004
  0.13245000000000001         -1.7675775914198695E-004
  0.13329999999999997         -1.7929732519923405E-004
  0.13414999999999999         -1.8074746526865982E-004
  0.13500000000000001         -1.8121356242050549E-004
  0.13584999999999997         -1.8079676802524537E-004
  0.13669999999999999         -1.7959373266884294E-004
  0.13755000000000001         -1.7769636268839115E-004
  0.13839999999999997         -1.7519159345119053E-004
  0.13924999999999998         -1.7216102402660633E-004
  0.14010000000000000         -1.6868084504107617E-004
  0.14094999999999996         -1.6482181064995691E-004
  0.14179999999999998         -1.6064938040430556E-004
  0.14265000000000000         -1.5622382637368656E-004
  0.14350000000000002         -1.5160031152450048E-004
  0.14434999999999998         -1.4682892980980261E-004
  0.14520000000000000         -1.4195485359931698E-004
  0.14605000000000001         -1.3701854804218198E-004
  0.14689999999999998         -1.3205611193401067E-004
  0.14774999999999999         -1.2709953872306069E-004
  0.14860000000000001         -1.2217688335961025E-004
  0.14944999999999997         -1.1731250926192356E-004
  0.15029999999999999         -1.1252726537791656E-004
  0.15115000000000001         -1.0783881206041539E-004
  0.15199999999999997         -1.0326188943234673E-004
  0.15284999999999999         -9.8808659605652792E-005
  0.15370000000000000         -9.4488829651620700E-005
  0.15454999999999997         -9.0309872521858019E-005
  0.15539999999999998         -8.6277211659167732E-005
  0.15625000000000000         -8.2394489885781854E-005
  0.15709999999999996         -7.8663772320589212E-005
  0.15794999999999998         -7.5085818524584744E-005
  0.15880000000000000         -7.1660164631487874E-005
  0.15965000000000001         -6.8385284757337871E-005
  0.16049999999999998         -6.5258753548042207E-005
  0.16134999999999999         -6.2277459895296135E-005
  0.16220000000000001         -5.9437776010597530E-005
  0.16304999999999997         -5.6735644147482388E-005
  0.16389999999999999         -5.4166608490216713E-005
  0.16475000000000001         -5.1725805687770274E-005
  0.16559999999999997         -4.9408071141108641E-005
  0.16644999999999999         -4.7208084604921538E-005
  0.16730000000000000         -4.5120576152510665E-005
  0.16814999999999997         -4.3140375374345631E-005
  0.16899999999999998         -4.1262378904005623E-005
  0.16985000000000000         -3.9481484367506340E-005
  0.17069999999999996         -3.7792587451613938E-005
  0.17154999999999998         -3.6190666836740127E-005
  0.17240000000000000         -3.4670933100539352E-005
  0.17325000000000002         -3.3228888164456078E-005
  0.17409999999999998         -3.1860298469619947E-005
  0.17494999999999999         -3.0561108031588593E-005
  0.17580000000000001         -2.9327376139097658E-005
  0.17664999999999997         -2.8155323722462100E-005
  0.17749999999999999         -2.7041409803538544E-005
  0.17835000000000001         -2.5982382871682820E-005
  0.17919999999999997         -2.4975273700460307E-005
  0.18004999999999999         -2.4017304291579236E-005
  0.18090000000000001         -2.3105812566305382E-005
  0.18174999999999997         -2.2238242681422747E-005
  0.18259999999999998         -2.1412177231356040E-005
  0.18345000000000000         -2.0625388754028311E-005
  0.18429999999999996         -1.9875830583171118E-005
  0.18514999999999998         -1.9161606366212387E-005
  0.18600000000000000         -1.8480926359018614E-005
  0.18684999999999996         -1.7832098885704070E-005
  0.18769999999999998         -1.7213524715948438E-005
  0.18855000000000000         -1.6623714329705379E-005
  0.18940000000000001         -1.6061268108917091E-005
  0.19024999999999997         -1.5524871562309996E-005
  0.19109999999999999         -1.5013279324889233E-005
  0.19195000000000001         -1.4525302103782939E-005
  0.19279999999999997         -1.4059792192253479E-005
  0.19364999999999999         -1.3615607029230892E-005
  0.19450000000000001         -1.3191599180460678E-005
  0.19534999999999997         -1.2786625503710437E-005
  0.19619999999999999         -1.2399619993782629E-005
  0.19705000000000000         -1.2029640106527245E-005
  0.19789999999999996         -1.1675866828761188E-005
  0.19874999999999998         -1.1337535089062408E-005
  0.19960000000000000         -1.1013836733360073E-005
  0.20044999999999996         -1.0703874919804934E-005
  0.20129999999999998         -1.0406707525459002E-005
  0.20215000000000000         -1.0121441277756867E-005
  0.20300000000000001         -9.8472950283576985E-006
  0.20384999999999998         -9.5835837091368417E-006
  0.20469999999999999         -9.3296437918927750E-006
  0.20555000000000001         -9.0847746901727084E-006
  0.20639999999999997         -8.8482568867389288E-006
  0.20724999999999999         -8.6194338875482317E-006
  0.20810000000000001         -8.3977777195991374E-006
  0.20894999999999997         -8.1828789561271595E-006
  0.20979999999999999         -7.9743799178810787E-006
  0.21065000000000000         -7.7718971776578976E-006
  0.21149999999999997         -7.5750193149954186E-006
  0.21234999999999998         -7.3833588924256187E-006
  0.21320000000000000         -7.1966093695076025E-006
  0.21404999999999996         -7.0145367069582216E-006
  0.21489999999999998         -6.8369304878195212E-006
  0.21575000000000000         -6.6635580966357682E-006
  0.21659999999999996         -6.4941765806655127E-006
  0.21744999999999998         -6.3286008206054912E-006
  0.21829999999999999         -6.1667611264190829E-006
  0.21915000000000001         -6.0086990672730663E-006
  0.21999999999999997         -5.8544898271433257E-006
  0.22084999999999999         -5.7041603358897236E-006
  0.22170000000000001         -5.5576617324741392E-006
  0.22254999999999997         -5.4149066212263634E-006
  0.22339999999999999         -5.2758346708535866E-006
  0.22425000000000000         -5.1404437155550211E-006
  0.22509999999999997         -5.0087717125126736E-006
  0.22594999999999998         -4.8808639583220657E-006
  0.22680000000000000         -4.7567526056948489E-006
  0.22764999999999996         -4.6364602740577483E-006
  0.22849999999999998         -4.5200097388007793E-006
  0.22935000000000000         -4.4074121840508657E-006
  0.23019999999999996         -4.2986428516144253E-006
  0.23104999999999998         -4.1936253339795981E-006
  0.23190000000000000         -4.0922405661550354E-006
  0.23275000000000001         -3.9943441739089842E-006
  0.23359999999999997         -3.8997782348388285E-006
  0.23444999999999999         -3.8083604177821389E-006
  0.23530000000000001         -3.7198836618940827E-006
  0.23614999999999997         -3.6341408304646049E-006
  0.23699999999999999         -3.5509682543844121E-006
  0.23785000000000001         -3.4702652537393815E-006
  0.23869999999999997         -3.3919582748911116E-006
  0.23954999999999999         -3.3159210956542888E-006
  0.24040000000000000         -3.2419063946829592E-006
  0.24124999999999996         -3.1695455313952594E-006
  0.24209999999999998         -3.0984166534048805E-006
  0.24295000000000000         -3.0281232238190075E-006
  0.24379999999999996         -2.9583205831609595E-006
  0.24464999999999998         -2.8886760943273696E-006
  0.24550000000000000         -2.8188132484364805E-006
  0.24634999999999996         -2.7482985600274522E-006
  0.24719999999999998         -2.6766843199221238E-006
  0.24804999999999999         -2.6035575695731682E-006
  0.24890000000000001         -2.5285403028678656E-006
  0.24974999999999997         -2.4512349580475900E-006
  0.25059999999999999         -2.3711689748829384E-006
  0.25145000000000001         -2.2877952735818714E-006
  0.25229999999999997         -2.2005519634392307E-006
  0.25314999999999999         -2.1089222136377496E-006
  0.25400000000000000         -2.0124234224056882E-006
  0.25484999999999997         -1.9105310021697397E-006
  0.25569999999999998         -1.8026004186461823E-006
  0.25655000000000000         -1.6878691159278503E-006
  0.25739999999999996         -1.5655411200242694E-006
  0.25824999999999998         -1.4348827765116996E-006
  0.25910000000000000         -1.2952341365002058E-006
  0.25994999999999996         -1.1459192663109934E-006
  0.26079999999999998         -9.8612929121959120E-007
  0.26164999999999999         -8.1488385808990812E-007
  0.26249999999999996         -6.3110998940080001E-007
  0.26334999999999997         -4.3377894054492793E-007
  0.26419999999999999         -2.2199019504599464E-007
  0.26505000000000001          5.0663502948734767E-009
  0.26589999999999997          2.4823553047055548E-007
  0.26674999999999999          5.0850579511937017E-007
  0.26760000000000000          7.8702178129511217E-007
  0.26844999999999997          1.0849947134752102E-006
  0.26929999999999998          1.4035871079713474E-006
  0.27015000000000000          1.7438514007554367E-006
  0.27099999999999996          2.1067466000126294E-006
  0.27184999999999998          2.4931993209466209E-006
  0.27270000000000000          2.9041570789884371E-006
  0.27354999999999996          3.3405894844829738E-006
  0.27439999999999998          3.8034401063211037E-006
  0.27524999999999999          4.2935627673704600E-006
  0.27609999999999996          4.8116694760608634E-006
  0.27694999999999997          5.3583227644313668E-006
  0.27779999999999999          5.9339710702731763E-006
  0.27865000000000001          6.5390011162590860E-006
  0.27949999999999997          7.1737593367110271E-006
  0.28034999999999999          7.8385068581753550E-006
  0.28120000000000001          8.5333015456628000E-006
  0.28204999999999997          9.2578709495427934E-006
  0.28289999999999998          1.0011561013466080E-005
  0.28375000000000000          1.0793408952102722E-005
  0.28459999999999996          1.1602283035912055E-005
  0.28544999999999998          1.2436987698577427E-005
  0.28630000000000000          1.3296239716857346E-005
  0.28714999999999996          1.4178512386313461E-005
  0.28799999999999998          1.5081875961176931E-005
  0.28885000000000000          1.6003942823744074E-005
  0.28969999999999996          1.6941973003418450E-005
  0.29054999999999997          1.7893030336924236E-005
  0.29139999999999999          1.8854049632336967E-005
  0.29224999999999995          1.9821739440691293E-005
  0.29309999999999997          2.0792434729795534E-005
  0.29394999999999999          2.1761991317446466E-005
  0.29480000000000001          2.2725867728737483E-005
  0.29564999999999997          2.3679301810097339E-005
  0.29649999999999999          2.4617466294539505E-005
  0.29735000000000000          2.5535499428910282E-005
  0.29819999999999997          2.6428382297261700E-005
  0.29904999999999998          2.7290812931586736E-005
  0.29990000000000000          2.8117201662945320E-005
  0.30074999999999996          2.8901822917369166E-005
  0.30159999999999998          2.9639001196545438E-005
  0.30245000000000000          3.0323227460537711E-005
  0.30329999999999996          3.0949126664346598E-005
  0.30414999999999998          3.1511361205709945E-005
  0.30499999999999999          3.2004554924882996E-005
  0.30584999999999996          3.2423327766573219E-005
  0.30669999999999997          3.2762468404889483E-005
  0.30754999999999999          3.3017117230952091E-005
  0.30840000000000001          3.3182915624713380E-005
  0.30924999999999997          3.3256012600073357E-005
  0.31009999999999999          3.3233026334263192E-005
  0.31095000000000000          3.3110927272595696E-005
  0.31179999999999997          3.2887034731491960E-005
  0.31264999999999998          3.2559091262678774E-005
  0.31350000000000000          3.2125429078456523E-005
  0.31434999999999996          3.1585138229363953E-005
  0.31519999999999998          3.0938115760389217E-005
  0.31605000000000000          3.0185013508683352E-005
  0.31689999999999996          2.9327097077047111E-005
  0.31774999999999998          2.8366171325053990E-005
  0.31859999999999999          2.7304577094768472E-005
  0.31944999999999996          2.6145362475706400E-005
  0.32029999999999997          2.4892413636405707E-005
  0.32114999999999999          2.3550482891920877E-005
  0.32199999999999995          2.2125049151240189E-005
  0.32284999999999997          2.0622123930940234E-005
  0.32369999999999999          1.9048128545411252E-005
  0.32455000000000001          1.7409932644344805E-005
  0.32539999999999997          1.5714996408599089E-005
  0.32624999999999998          1.3971428606280154E-005
  0.32710000000000000          1.2187903145815181E-005
  0.32794999999999996          1.0373396701776419E-005
  0.32879999999999998          8.5369524843511102E-006
  0.32965000000000000          6.6875938175911723E-006
  0.33049999999999996          4.8344073896497965E-006
  0.33134999999999998          2.9866876292013800E-006
  0.33220000000000000          1.1539751038996547E-006
  0.33304999999999996         -6.5409387454201281E-007
  0.33389999999999997         -2.4280580220092277E-006
  0.33474999999999999         -4.1588648054304632E-006
  0.33559999999999995         -5.8379621226493908E-006
  0.33644999999999997         -7.4572453648538263E-006
  0.33729999999999999         -9.0089810185875563E-006
  0.33815000000000001         -1.0485788340875714E-005
  0.33899999999999997         -1.1880739018424088E-005
  0.33984999999999999         -1.3187515525967719E-005
  0.34070000000000000         -1.4400537798440798E-005
  0.34154999999999996         -1.5515001259565477E-005
  0.34239999999999998         -1.6526839634192100E-005