 -0.12000000000000000          0.0000000000000000
 -0.11889999999999999          0.0000000000000000
 -0.11780000000000000          0.0000000000000000
 -0.11670000000000000          0.0000000000000000
 -0.11559999999999999          0.0000000000000000
 -0.11449999999999999          0.0000000000000000
 -0.11340000000000000          0.0000000000000000
 -0.11230000000000000          0.0000000000000000
 -0.11119999999999999          0.0000000000000000
 -0.11009999999999999          0.0000000000000000
 -0.10900000000000000         -2.2229808933230804E-031
 -0.10790000000000000          4.3855403425788664E-030
 -0.10679999999999999         -4.5568879524112237E-028
 -0.10569999999999999          2.8633469743860710E-028
 -0.10460000000000000         -3.6509593955206338E-028
 -0.10349999999999999         -8.2857210156007932E-026
 -0.10239999999999999         -2.2725381698090467E-025
 -0.10130000000000000          8.6576537714919780E-025
 -0.10020000000000000          4.0109900938670120E-024
  -9.9099999999999994E-002    -5.1471363629893538E-024
  -9.7999999999999990E-002    -5.3142428984667648E-023
  -9.6899999999999986E-002    -4.2992569080303225E-023
  -9.5799999999999996E-002     4.0092079624188091E-022
  -9.4699999999999993E-002     1.1414804676773557E-021
  -9.3599999999999989E-002    -7.3455572050559735E-022
  -9.2499999999999999E-002    -9.4239717835886107E-021
  -9.1399999999999995E-002    -1.4503529597737632E-020
  -9.0299999999999991E-002     2.7055856452736312E-020
  -8.9200000000000002E-002     1.3736848845939762E-019
  -8.8099999999999984E-002     1.3677100556319291E-019
  -8.6999999999999994E-002    -4.1367033600077834E-019
  -8.5899999999999990E-002    -1.4953832118303810E-018
  -8.4799999999999986E-002    -1.1374571976950106E-018
  -8.3699999999999997E-002     4.2295403216964474E-018
  -8.2599999999999993E-002     1.3219522439428433E-017
  -8.1499999999999989E-002     9.3649947881905573E-018
  -8.0399999999999999E-002    -3.2464069642015509E-017
  -7.9299999999999995E-002    -9.8750608236703558E-017
  -7.8199999999999992E-002    -7.6644193131334093E-017
  -7.7100000000000002E-002     1.9408096360684326E-016
  -7.5999999999999984E-002     6.3352955787158538E-016
  -7.4899999999999994E-002     5.8442726967749040E-016
  -7.3799999999999991E-002    -8.9288824052421436E-016
  -7.2699999999999987E-002    -3.5014213869212800E-015
  -7.1599999999999997E-002    -3.9370879129020826E-015
  -7.0499999999999993E-002     2.8514428197909305E-015
  -6.9399999999999989E-002     1.6579660279229802E-014
  -6.8300000000000000E-002     2.2883055855998230E-014
  -6.7199999999999996E-002    -2.8545179729059372E-015
  -6.6099999999999992E-002    -6.6245138985888269E-014
  -6.5000000000000002E-002    -1.1384701504007361E-013
  -6.3899999999999985E-002    -3.8196747468525333E-014
  -6.2799999999999995E-002     2.1568018909474268E-013
  -6.1699999999999991E-002     4.8274399885514518E-013
  -6.0599999999999994E-002     3.4742044310864806E-013
  -5.9499999999999990E-002    -5.1963554986711458E-013
  -5.8399999999999994E-002    -1.7296358572824189E-012
  -5.7299999999999990E-002    -1.8769944366142655E-012
  -5.6199999999999986E-002     5.6611155650407308E-013
  -5.5099999999999996E-002     5.1238752823978828E-012
  -5.3999999999999992E-002     7.7181811289350755E-012
  -5.2899999999999989E-002     2.5002242030197630E-012
  -5.1799999999999985E-002    -1.1849036508915223E-011
  -5.0699999999999995E-002    -2.5564142816514313E-011
  -4.9599999999999991E-002    -1.9764894582108283E-011
  -4.8499999999999988E-002     1.7401916713177812E-011
  -4.7399999999999998E-002     6.8530132957267398E-011
  -4.6299999999999994E-002     8.2172824100723574E-011
  -4.5199999999999990E-002     7.2824480820687931E-012
  -4.4099999999999986E-002    -1.4282044991098530E-010
  -4.2999999999999997E-002    -2.5207888554312774E-010
  -4.1899999999999993E-002    -1.5718977508516474E-010
  -4.0799999999999989E-002     1.9579848853368276E-010
  -3.9699999999999985E-002     6.0321292405518534E-010
  -3.8599999999999995E-002     6.4512362119018007E-010
  -3.7499999999999992E-002     6.1626814762405502E-012
  -3.6399999999999988E-002    -1.0955416573921184E-009
  -3.5299999999999984E-002    -1.7837353816219093E-009
  -3.4199999999999994E-002    -1.0454810350779553E-009
  -3.3099999999999991E-002     1.2616107047946912E-009
  -3.1999999999999987E-002     3.7131175911753189E-009
  -3.0899999999999997E-002     3.8722705042459893E-009
  -2.9799999999999993E-002     2.3713409014192166E-010
  -2.8699999999999989E-002    -5.6824349670137053E-009
  -2.7599999999999986E-002    -9.2535588080977504E-009
  -2.6499999999999996E-002    -5.7355937777003874E-009
  -2.5399999999999992E-002     5.0489119551855310E-009
  -2.4299999999999988E-002     1.6287650339563697E-008
  -2.3199999999999985E-002     1.7507126415239327E-008
  -2.2099999999999995E-002     3.0292495178940726E-009
  -2.0999999999999991E-002    -2.0459030025676839E-008
  -1.9899999999999987E-002    -3.4992158504110193E-008
  -1.8799999999999983E-002    -2.3645238655944922E-008
  -1.7699999999999994E-002     1.3199117354645296E-008
  -1.6599999999999990E-002     5.1607141671183854E-008
  -1.5499999999999986E-002     5.7573863898596755E-008
  -1.4399999999999996E-002     1.4730792585737618E-008
  -1.3299999999999992E-002    -5.4645212799186993E-008
  -1.2199999999999989E-002    -9.7183125546962401E-008
  -1.1099999999999985E-002    -6.6974529033814179E-008
  -9.9999999999999950E-003     3.0522198102289622E-008
  -8.8999999999999913E-003     1.2795582904345792E-007
  -7.7999999999999875E-003     1.3871361659312242E-007
  -6.6999999999999837E-003     2.9477893903617769E-008
  -5.5999999999999939E-003    -1.3474840443450375E-007
  -4.4999999999999901E-003    -2.2184026704508142E-007
  -3.3999999999999864E-003    -1.3289073308442312E-007
  -2.2999999999999826E-003     1.0000198358284251E-007
  -1.1999999999999927E-003     3.0712658372067381E-007
  -9.9999999999988987E-005     2.9576034421552322E-007
   1.0000000000000148E-003     1.5393021968179710E-008
   2.1000000000000185E-003    -3.5998129988001892E-007
   3.2000000000000084E-003    -5.2603115818783408E-007
   4.3000000000000121E-003    -2.8003469765280897E-007
   5.4000000000000159E-003     2.7767777055487386E-007
   6.5000000000000058E-003     7.5416437539388426E-007
   7.6000000000000234E-003     7.2678790274949279E-007
   8.7000000000000133E-003     9.2405677776241646E-008
   9.8000000000000032E-003    -7.7301245937633212E-007
   1.0900000000000021E-002    -1.2192040230729617E-006
   1.2000000000000011E-002    -7.9679153941469849E-007
   1.3100000000000001E-002     3.3535269494677777E-007
   1.4200000000000018E-002     1.4191186892276164E-006
   1.5300000000000008E-002     1.5949048020047485E-006
   1.6400000000000026E-002     5.7304777101307991E-007
   1.7500000000000016E-002    -1.0355686299590161E-006
   1.8600000000000005E-002    -2.0580730506480904E-006
   1.9700000000000023E-002    -1.6083181435533334E-006
   2.0800000000000013E-002     1.5587815482831502E-007
   2.1900000000000003E-002     1.9968761080235709E-006
   2.3000000000000020E-002     2.4320956981682684E-006
   2.4100000000000010E-002     9.0436793698245310E-007
   2.5200000000000000E-002    -1.6118998473757529E-006
   2.6300000000000018E-002    -3.1598469831806142E-006
   2.7400000000000008E-002    -2.2507583707920276E-006
   2.8500000000000025E-002     8.1953618291663588E-007
   2.9600000000000015E-002     3.8920511542528402E-006
   3.0700000000000005E-002     4.3832033043145202E-006
   3.1800000000000023E-002     1.3268272596178576E-006
   3.2900000000000013E-002    -3.5415760066825897E-006
   3.4000000000000002E-002    -6.7004011725657620E-006
   3.5100000000000020E-002    -5.3462631512957159E-006
   3.6200000000000010E-002     2.7424621862337517E-007
   3.7300000000000028E-002     6.5964272835117299E-006
   3.8400000000000017E-002     9.0413414000067860E-006
   3.9500000000000007E-002     5.4082361202745233E-006
   4.0600000000000025E-002    -2.1934436063020257E-006
   4.1700000000000015E-002    -8.5658048192271963E-006
   4.2800000000000005E-002    -9.1586489361361600E-006
   4.3900000000000022E-002    -3.5889338505512569E-006
   4.5000000000000012E-002     3.8928837966523133E-006
   4.6100000000000002E-002     7.6180535870662425E-006
   4.7200000000000020E-002     5.0531634769868106E-006
   4.8300000000000010E-002    -1.0003468560171314E-006
   4.9400000000000027E-002    -4.6482318794005550E-006
   5.0500000000000017E-002    -2.0944385141774546E-006
   5.1600000000000007E-002     4.4793387132813223E-006
   5.2700000000000025E-002     8.0659610830480233E-006
   5.3800000000000014E-002     2.8456111067498568E-006
   5.4900000000000004E-002    -9.5348013928742148E-006
   5.6000000000000022E-002    -1.9206841898267157E-005
   5.7100000000000012E-002    -1.4959089639887679E-005
   5.8200000000000002E-002     5.4920974434935488E-006
   5.9300000000000019E-002     3.0176894142641686E-005
   6.0400000000000009E-002     3.8664791645715013E-005
   6.1500000000000027E-002     1.7157517504529096E-005
   6.2600000000000017E-002    -2.7365591449779458E-005
   6.3700000000000007E-002    -6.6150736529380083E-005
   6.4800000000000024E-002    -6.5387001086492091E-005
   6.5900000000000014E-002    -1.1973034816037398E-005
   6.7000000000000004E-002     6.9821282522752881E-005
   6.8100000000000022E-002     1.2631755089387298E-004
   6.9200000000000012E-002     1.0715700773289427E-004
   7.0300000000000029E-002     3.9627493606531061E-006
   7.1400000000000019E-002    -1.3268073962535709E-004
   7.2500000000000009E-002    -2.1541368914768100E-004
   7.3600000000000027E-002    -1.7374045273754746E-004
   7.4700000000000016E-002    -6.9906650423945393E-006
   7.5800000000000006E-002     2.0111331832595170E-004
   7.6900000000000024E-002     3.2343275961466134E-004
   7.8000000000000014E-002     2.6690546656027436E-004
   7.9100000000000004E-002     3.9151927921921015E-005
   8.0200000000000021E-002    -2.4255969037767500E-004
   8.1300000000000011E-002    -4.1355573921464384E-004
   8.2400000000000029E-002    -3.6204786738380790E-004
   8.3500000000000019E-002    -1.0482520883670077E-004
   8.4600000000000009E-002     2.1427249885164201E-004
   8.5700000000000026E-002     4.0889755473472178E-004
   8.6800000000000016E-002     3.6825760616920888E-004
   8.7900000000000006E-002     1.3229651085566729E-004
   8.9000000000000024E-002    -1.3007422967348248E-004
   9.0100000000000013E-002    -2.3282639449462295E-004
   9.1200000000000003E-002    -1.0599762026686221E-004
   9.2300000000000021E-002     1.3993802713230252E-004
   9.3400000000000011E-002     2.7155232965014875E-004
   9.4500000000000028E-002     8.8341832451988012E-005
   9.5600000000000018E-002    -4.1575718205422163E-004
   9.6700000000000008E-002    -9.9420838523656130E-004
   9.7800000000000026E-002    -1.2493669055402279E-003
   9.8900000000000016E-002    -8.5487798787653446E-004
  0.10000000000000001          2.2165723203215748E-004
  0.10110000000000002          1.6328961355611682E-003
  0.10220000000000001          2.7742597740143538E-003
  0.10330000000000003          3.0699155759066343E-003
  0.10440000000000002          2.2754645906388760E-003
  0.10550000000000001          6.2524079112336040E-004
  0.10660000000000003         -1.2742790859192610E-003
  0.10770000000000002         -2.7647351380437613E-003
  0.10880000000000001         -3.5015076864510775E-003
  0.10990000000000003         -3.6552790552377701E-003
  0.11100000000000002         -3.8196966052055359E-003
  0.11210000000000001         -4.6598734334111214E-003
  0.11320000000000002         -6.4977384172379971E-003
  0.11430000000000001         -9.0889381244778633E-003
  0.11540000000000003         -1.1755584739148617E-002
  0.11650000000000002         -1.3833445496857166E-002
  0.11760000000000001         -1.5185432508587837E-002
  0.11870000000000003         -1.6454493626952171E-002
  0.11980000000000002         -1.8846821039915085E-002
  0.12090000000000001         -2.3510145023465157E-002
  0.12200000000000003         -3.0848700553178787E-002
  0.12310000000000001         -4.0218599140644073E-002
  0.12420000000000003         -5.0282754004001617E-002
  0.12530000000000002         -5.9924509376287460E-002
  0.12640000000000001         -6.9238953292369843E-002
  0.12750000000000003         -7.9982124269008636E-002
  0.12860000000000002         -9.5098711550235748E-002
  0.12970000000000001        -0.11746201664209366
  0.13080000000000003        -0.14847822487354279
  0.13190000000000002        -0.18738673627376556
  0.13300000000000001        -0.23178359866142273
  0.13410000000000000        -0.27919858694076538
  0.13520000000000004        -0.32891348004341125
  0.13630000000000003        -0.38299161195755005
  0.13740000000000002        -0.44585174322128296
  0.13850000000000001        -0.52259707450866699
  0.13960000000000000        -0.61697852611541748
  0.14070000000000005        -0.73028492927551270
  0.14180000000000004        -0.86172300577163696
  0.14290000000000003         -1.0101748704910278
  0.14400000000000002         -1.1761280298233032
  0.14510000000000001         -1.3625688552856445
  0.14620000000000000         -1.5742356777191162
  0.14730000000000004         -1.8156796693801880
  0.14840000000000003         -2.0893321037292480
  0.14950000000000002         -2.3950097560882568
  0.15060000000000001         -2.7311811447143555
  0.15170000000000000         -3.0974700450897217
  0.15280000000000005         -3.4965023994445801
  0.15390000000000004         -3.9340226650238037
  0.15500000000000003         -4.4167709350585938
  0.15610000000000002         -4.9491319656372070
  0.15720000000000001         -5.5306649208068848
  0.15830000000000000         -6.1559891700744629
  0.15940000000000004         -6.8171811103820801
  0.16050000000000003         -7.5074043273925781
  0.16160000000000002         -8.2233018875122070
  0.16270000000000001         -8.9654693603515625
  0.16380000000000000         -9.7344541549682617
  0.16490000000000005         -10.527419090270996
  0.16600000000000004         -11.335507392883301
  0.16710000000000003         -12.143474578857422
  0.16820000000000002         -12.933933258056641
  0.16930000000000001         -13.689493179321289
  0.17040000000000000         -14.396382331848145
  0.17150000000000004         -15.043920516967773
  0.17260000000000003         -15.621014595031738
  0.17370000000000002         -16.111274719238281
  0.17480000000000001         -16.491939544677734
  0.17590000000000000         -16.733222961425781
  0.17700000000000005         -16.802856445312500
  0.17810000000000004         -16.672365188598633
  0.17920000000000003         -16.318494796752930
  0.18030000000000002         -15.727020263671875
  0.18140000000000001         -14.883563041687012
  0.18250000000000000         -13.774233818054199
  0.18360000000000004         -12.380010604858398
  0.18470000000000003         -10.681797027587891
  0.18580000000000002         -8.6558952331542969
  0.18690000000000001         -6.2881851196289062
  0.18800000000000000         -3.5735628604888916
  0.18910000000000005        -0.51536607742309570
  0.19020000000000004          2.8777973651885986
  0.19130000000000003          6.5898532867431641
  0.19240000000000002          10.599401473999023
  0.19350000000000001          14.883093833923340
  0.19460000000000005          19.412548065185547
  0.19570000000000004          24.150325775146484
  0.19680000000000003          29.049098968505859
  0.19790000000000002          34.049365997314453
  0.19900000000000001          39.087242126464844
  0.20010000000000000          44.101222991943359
  0.20120000000000005          49.025810241699219
  0.20230000000000004          53.790786743164062
  0.20340000000000003          58.322448730468750
  0.20450000000000002          62.538585662841797
  0.20560000000000000          66.352424621582031
  0.20670000000000005          69.676788330078125
  0.20780000000000004          72.430847167968750
  0.20890000000000003          74.539985656738281
