 -0.12000000000000000          0.0000000000000000     
 -0.11889999999999999          0.0000000000000000     
 -0.11780000000000000          0.0000000000000000     
 -0.11670000000000000          0.0000000000000000     
 -0.11559999999999999          0.0000000000000000     
 -0.11449999999999999          0.0000000000000000     
 -0.11340000000000000         -5.0400000145556234E-011
 -0.11230000000000000          6.1748765822766671E-011
 -0.11119999999999999          4.5327178122001044E-010
 -0.11009999999999999         -3.4988067998398265E-010
 -0.10900000000000000         -1.9119215100005249E-009
 -0.10790000000000000          1.7202703705976319E-009
 -0.10679999999999999          4.5018295757870419E-009
 -0.10569999999999999         -1.5300400946216541E-008
 -0.10460000000000000         -2.0413283507991764E-008
 -0.10349999999999999          8.7564551165542071E-008
 -0.10239999999999999          1.8019838421423628E-007
 -0.10130000000000000         -1.8741263829724630E-007
 -0.10020000000000000         -8.7553286221009330E-007
  -9.9099999999999994E-002    -4.2462787064323493E-007
  -9.7999999999999990E-002     1.9266888102720259E-006
  -9.6899999999999986E-002     3.2367904623242794E-006
  -9.5799999999999996E-002    -3.3880962746479781E-007
  -9.4699999999999993E-002    -5.8439941312826704E-006
  -9.3599999999999989E-002    -5.2812611102126539E-006
  -9.2499999999999999E-002    -1.9170417431269016E-007
  -9.1399999999999995E-002    -1.8451642063155305E-006
  -9.0299999999999991E-002    -2.6707359666033881E-006
  -8.9200000000000002E-002     2.8631571694859304E-005
  -8.8099999999999984E-002     7.8958313679322600E-005
  -8.6999999999999994E-002     4.2796666093636304E-005
  -8.5899999999999990E-002    -1.4914682833477855E-004
  -8.4799999999999986E-002    -3.2458419445902109E-004
  -8.3699999999999997E-002    -1.6476195014547557E-004
  -8.2599999999999993E-002     3.3557298593223095E-004
  -8.1499999999999989E-002     6.7431607749313116E-004
  -8.0399999999999999E-002     4.2978383135050535E-004
  -7.9299999999999995E-002    -8.2553611719049513E-005
  -7.8199999999999992E-002    -2.9874176834709942E-004
  -7.7100000000000002E-002    -5.4656731663271785E-004
  -7.5999999999999984E-002    -1.6551482258364558E-003
  -7.4899999999999994E-002    -2.7830672916024923E-003
  -7.3799999999999991E-002    -1.0521264048293233E-003
  -7.2699999999999987E-002     4.4935699552297592E-003
  -7.1599999999999997E-002     9.1465106233954430E-003
  -7.0499999999999993E-002     6.3053169287741184E-003
  -6.9399999999999989E-002    -3.4620398655533791E-003
  -6.8300000000000000E-002    -1.0884701274335384E-002
  -6.7199999999999996E-002    -9.4780465587973595E-003
  -6.6099999999999992E-002    -5.2102906629443169E-003
  -6.5000000000000002E-002    -7.1801873855292797E-003
  -6.3899999999999985E-002    -9.6179470419883728E-003
  -6.2799999999999995E-002     4.5374939218163490E-003
  -6.1699999999999991E-002     3.5034619271755219E-002
  -6.0599999999999994E-002     5.1643345504999161E-002
  -5.9499999999999990E-002     2.7876798063516617E-002
  -5.8399999999999994E-002    -1.7235627397894859E-002
  -5.7299999999999990E-002    -3.6459442228078842E-002
  -5.6199999999999986E-002    -2.1838970482349396E-002
  -5.5099999999999996E-002    -2.5898678228259087E-002
  -5.3999999999999992E-002    -8.5925057530403137E-002
  -5.2899999999999989E-002   -0.14581078290939331     
  -5.1799999999999985E-002   -0.10320634394884109     
  -5.0699999999999995E-002     5.5662300437688828E-002
  -4.9599999999999991E-002    0.21879245340824127     
  -4.8499999999999988E-002    0.28160554170608521     
  -4.7399999999999998E-002    0.27288821339607239     
  -4.6299999999999994E-002    0.27942332625389099     
  -4.5199999999999990E-002    0.26516044139862061     
  -4.4099999999999986E-002     6.9871291518211365E-002
  -4.2999999999999997E-002   -0.36275407671928406     
  -4.1899999999999993E-002   -0.83789926767349243     
  -4.0799999999999989E-002    -1.0859013795852661     
  -3.9699999999999985E-002    -1.0451524257659912     
  -3.8599999999999995E-002   -0.84874814748764038     
  -3.7499999999999992E-002   -0.52858918905258179     
  -3.6399999999999988E-002    0.10935819894075394     
  -3.5299999999999984E-002     1.2088266611099243     
  -3.4199999999999994E-002     2.5600714683532715     
  -3.3099999999999991E-002     3.7126288414001465     
  -3.1999999999999987E-002     4.3307938575744629     
  -3.0899999999999997E-002     4.2512335777282715     
  -2.9799999999999993E-002     3.1980576515197754     
  -2.8699999999999989E-002    0.71902185678482056     
  -2.7599999999999986E-002    -3.4011261463165283     
  -2.6499999999999996E-002    -8.8299102783203125     
  -2.5399999999999992E-002    -15.053033828735352     
  -2.4299999999999988E-002    -21.975830078125000     
  -2.3199999999999985E-002    -29.821804046630859     
  -2.2099999999999995E-002    -38.386390686035156     
  -2.0999999999999991E-002    -46.829296112060547     
  -1.9899999999999987E-002    -54.606815338134766     
  -1.8799999999999983E-002    -62.441658020019531     
  -1.7699999999999994E-002    -71.945945739746094     
  -1.6599999999999990E-002    -84.316566467285156     
  -1.5499999999999986E-002    -99.914367675781250     
  -1.4399999999999996E-002    -119.33053588867188     
  -1.3299999999999992E-002    -144.33258056640625     
  -1.2199999999999989E-002    -177.18013000488281     
  -1.1099999999999985E-002    -219.21034240722656     
  -9.9999999999999950E-003    -270.78466796875000     
  -8.8999999999999913E-003    -332.75091552734375     
  -7.7999999999999875E-003    -407.32739257812500     
  -6.6999999999999837E-003    -497.22378540039062     
  -5.5999999999999939E-003    -604.44519042968750     
  -4.4999999999999901E-003    -730.77392578125000     
  -3.3999999999999864E-003    -879.17675781250000     
  -2.2999999999999826E-003    -1053.9003906250000     
  -1.1999999999999927E-003    -1259.2746582031250     
  -9.9999999999988987E-005    -1499.2279052734375     
   1.0000000000000148E-003    -1778.5778808593750     
   2.1000000000000185E-003    -2104.0083007812500     
   3.2000000000000084E-003    -2482.9501953125000     
   4.3000000000000121E-003    -2921.6027832031250     
   5.4000000000000159E-003    -3425.7585449218750     
   6.5000000000000058E-003    -4003.3400878906250     
   7.6000000000000234E-003    -4665.1206054687500     
   8.7000000000000133E-003    -5421.6879882812500     
   9.8000000000000032E-003    -6280.9340820312500     
   1.0900000000000021E-002    -7249.2104492187500     
   1.2000000000000011E-002    -8334.9804687500000     
   1.3100000000000001E-002    -9550.0527343750000     
   1.4200000000000018E-002    -10906.605468750000     
   1.5300000000000008E-002    -12413.620117187500     
   1.6400000000000026E-002    -14077.879882812500     
   1.7500000000000016E-002    -15906.668945312500     
   1.8600000000000005E-002    -17907.677734375000     
   1.9700000000000023E-002    -20085.888671875000     
   2.0800000000000013E-002    -22442.472656250000     
   2.1900000000000003E-002    -24976.626953125000     
   2.3000000000000020E-002    -27685.078125000000     
   2.4100000000000010E-002    -30563.433593750000     
   2.5200000000000000E-002    -33598.722656250000     
   2.6300000000000018E-002    -36772.171875000000     
   2.7400000000000008E-002    -40065.667968750000     
   2.8500000000000025E-002    -43456.164062500000     
   2.9600000000000015E-002    -46914.230468750000     
   3.0700000000000005E-002    -50396.214843750000     
   3.1800000000000023E-002    -53858.253906250000     
   3.2900000000000013E-002    -57243.589843750000     
   3.4000000000000002E-002    -60496.050781250000     
   3.5100000000000020E-002    -63545.683593750000     
   3.6200000000000010E-002    -66316.812500000000     
   3.7300000000000028E-002    -68729.742187500000     
   3.8400000000000017E-002    -70699.328125000000     
   3.9500000000000007E-002    -72132.101562500000     
   4.0600000000000025E-002    -72933.640625000000     
   4.1700000000000015E-002    -73006.289062500000     
   4.2800000000000005E-002    -72246.109375000000     
   4.3900000000000022E-002    -70550.867187500000     
   4.5000000000000012E-002    -67829.335937500000     
   4.6100000000000002E-002    -63992.250000000000     
   4.7200000000000020E-002    -58938.152343750000     
   4.8300000000000010E-002    -52586.613281250000     
   4.9400000000000027E-002    -44874.148437500000     
   5.0500000000000017E-002    -35760.250000000000     
   5.1600000000000007E-002    -25206.218750000000     
   5.2700000000000025E-002    -13172.565429687500     
   5.3800000000000014E-002     309.93341064453125     
   5.4900000000000004E-002     15197.486328125000     
   5.6000000000000022E-002     31451.734375000000     
   5.7100000000000012E-002     49003.652343750000     
   5.8200000000000002E-002     67717.453125000000     
   5.9300000000000019E-002     87424.531250000000     
   6.0400000000000009E-002     107944.85937500000     
   6.1500000000000027E-002     129116.93750000000     
   6.2600000000000017E-002     150714.67187500000     
   6.3700000000000007E-002     172457.45312500000     
   6.4800000000000024E-002     194012.76562500000     
   6.5900000000000014E-002     215077.90625000000     
   6.7000000000000004E-002     235391.06250000000     
   6.8100000000000022E-002     254612.29687500000     
   6.9200000000000012E-002     272370.96875000000     
   7.0300000000000029E-002     288292.75000000000     
   7.1400000000000019E-002     302055.59375000000     
   7.2500000000000009E-002     313355.46875000000     
   7.3600000000000027E-002     321892.43750000000     
   7.4700000000000016E-002     327347.37500000000     
   7.5800000000000006E-002     329490.56250000000     
   7.6900000000000024E-002     328108.34375000000     
   7.8000000000000014E-002     323036.71875000000     
   7.9100000000000004E-002     314138.31250000000     
   8.0200000000000021E-002     301352.81250000000     
   8.1300000000000011E-002     284704.90625000000     
   8.2400000000000029E-002     264271.00000000000     
   8.3500000000000019E-002     240156.17187500000     
   8.4600000000000009E-002     212495.04687500000     
   8.5700000000000026E-002     181525.25000000000     
   8.6800000000000016E-002     147591.89062500000     
   8.7900000000000006E-002     111117.96875000000     
   8.9000000000000024E-002     72496.578125000000     
   9.0100000000000013E-002     32133.949218750000     
   9.1200000000000003E-002    -9502.8134765625000     
   9.2300000000000021E-002    -51854.042968750000     
   9.3400000000000011E-002    -94331.554687500000     
   9.4500000000000028E-002    -136390.15625000000     
   9.5600000000000018E-002    -177486.26562500000     
   9.6700000000000008E-002    -217037.56250000000     
   9.7800000000000026E-002    -254513.14062500000     
   9.8900000000000016E-002    -289468.53125000000     
  0.10000000000000001         -321457.62500000000     
  0.10110000000000002         -349990.75000000000     
  0.10220000000000001         -374632.43750000000     
  0.10330000000000003         -395090.84375000000     
  0.10440000000000002         -411212.09375000000     
  0.10550000000000001         -422861.25000000000     
  0.10660000000000003         -429888.28125000000     
  0.10770000000000002         -432207.56250000000     
  0.10880000000000001         -429845.43750000000     
  0.10990000000000003         -422935.93750000000     
  0.11100000000000002         -411707.40625000000     
  0.11210000000000001         -396391.46875000000     
  0.11320000000000002         -377331.96875000000     
  0.11430000000000001         -354830.28125000000     
  0.11540000000000003         -329247.31250000000     
  0.11650000000000002         -300992.18750000000     
  0.11760000000000001         -270509.96875000000     
  0.11870000000000003         -238354.85937500000     
  0.11980000000000002         -205077.01562500000     
  0.12090000000000001         -171052.75000000000     
  0.12200000000000003         -136703.82812500000     
  0.12310000000000001         -102440.28906250000     
  0.12420000000000003         -68768.101562500000     
  0.12530000000000002         -36163.195312500000     
  0.12640000000000001         -4970.7026367187500     
  0.12750000000000003          24553.423828125000     
  0.12860000000000002          52162.730468750000     
  0.12970000000000001          77589.039062500000     
  0.13080000000000003          100615.53906250000     
  0.13190000000000002          121120.92968750000     
  0.13300000000000001          139020.57812500000     
  0.13410000000000000          154237.29687500000     
  0.13520000000000004          166727.48437500000     
  0.13630000000000003          176568.68750000000     
  0.13740000000000002          183926.34375000000     
  0.13850000000000001          188912.71875000000     
  0.13960000000000000          191542.68750000000     
  0.14070000000000005          191876.95312500000     
  0.14180000000000004          190153.25000000000     
  0.14290000000000003          186707.32812500000     
  0.14400000000000002          181779.46875000000     
  0.14510000000000001          175458.85937500000     
  0.14620000000000000          167856.32812500000     
  0.14730000000000004          159213.09375000000     
  0.14840000000000003          149833.01562500000     
  0.14950000000000002          139903.82812500000     
  0.15060000000000001          129529.89843750000     
  0.15170000000000000          118887.66406250000     
  0.15280000000000005          108225.19531250000     
  0.15390000000000004          97704.687500000000     
  0.15500000000000003          87316.250000000000     
  0.15610000000000002          77057.617187500000     
  0.15720000000000001          67123.695312500000     
  0.15830000000000000          57792.734375000000     
  0.15940000000000004          49156.882812500000     
  0.16050000000000003          41063.785156250000     
  0.16160000000000002          33362.042968750000     
  0.16270000000000001          26161.197265625000     
  0.16380000000000000          19679.837890625000     
  0.16490000000000005          13963.594726562500     
  0.16600000000000004          8860.1386718750000     
  0.16710000000000003          4260.2832031250000     
  0.16820000000000002          200.08752441406250     
  0.16930000000000001         -3265.3334960937500     
  0.17040000000000000         -6249.9843750000000     
  0.17150000000000004         -8871.6318359375000     
  0.17260000000000003         -11073.443359375000     
  0.17370000000000002         -12710.975585937500     
  0.17480000000000001         -13843.465820312500     
  0.17590000000000000         -14760.259765625000     
  0.17700000000000005         -15651.248046875000     
  0.17810000000000004         -16368.972656250000     
  0.17920000000000003         -16658.199218750000     
  0.18030000000000002         -16538.720703125000     
  0.18140000000000001         -16308.039062500000     
  0.18250000000000000         -16161.629882812500     
  0.18360000000000004         -15990.198242187500     
  0.18470000000000003         -15608.539062500000     
  0.18580000000000002         -15046.989257812500     
  0.18690000000000001         -14485.497070312500     
  0.18800000000000000         -13951.274414062500     
  0.18910000000000005         -13312.072265625000     
  0.19020000000000004         -12540.944335937500     
  0.19130000000000003         -11822.137695312500     
  0.19240000000000002         -11287.462890625000     
  0.19350000000000001         -10781.172851562500     
  0.19460000000000005         -10061.997070312500     
  0.19570000000000004         -9166.9609375000000     
  0.19680000000000003         -8385.5009765625000     
  0.19790000000000002         -7859.9277343750000     
  0.19900000000000001         -7386.6611328125000     
  0.20010000000000000         -6722.1401367187500     
  0.20120000000000005         -5932.6035156250000     
  0.20230000000000004         -5267.6938476562500     
  0.20340000000000003         -4776.2446289062500     
  0.20450000000000002         -4250.5869140625000     
  0.20560000000000000         -3570.0476074218750     
  0.20670000000000005         -2901.0356445312500     
  0.20780000000000004         -2440.4497070312500     
  0.20890000000000003         -2091.7534179687500     
