 -0.12000000000000000          0.0000000000000000     
 -0.11889999999999999          0.0000000000000000     
 -0.11780000000000000          0.0000000000000000     
 -0.11670000000000000          0.0000000000000000     
 -0.11559999999999999          0.0000000000000000     
 -0.11449999999999999          0.0000000000000000     
 -0.11340000000000000          0.0000000000000000     
 -0.11230000000000000          0.0000000000000000     
 -0.11119999999999999          0.0000000000000000     
 -0.11009999999999999          0.0000000000000000     
 -0.10900000000000000          0.0000000000000000     
 -0.10790000000000000          0.0000000000000000     
 -0.10679999999999999          0.0000000000000000     
 -0.10569999999999999          0.0000000000000000     
 -0.10460000000000000          0.0000000000000000     
 -0.10349999999999999          0.0000000000000000     
 -0.10239999999999999          0.0000000000000000     
 -0.10130000000000000          0.0000000000000000     
 -0.10020000000000000         -6.9566828484827309E-029
  -9.9099999999999994E-002    -4.3446108706052689E-029
  -9.7999999999999990E-002     2.2045284219804825E-027
  -9.6899999999999986E-002    -4.5674537966791265E-027
  -9.5799999999999996E-002    -2.5776179530260245E-026
  -9.4699999999999993E-002     9.0412112556382096E-026
  -9.3599999999999989E-002     2.2908111466023599E-025
  -9.2499999999999999E-002    -1.0806579902643221E-024
  -9.1399999999999995E-002    -1.8687128768554243E-024
  -9.0299999999999991E-002     9.8694040753402490E-024
  -8.9200000000000002E-002     1.5558145120153119E-023
  -8.8099999999999984E-002    -7.3903102308422478E-023
  -8.6999999999999994E-002    -1.3120111170227510E-022
  -8.5899999999999990E-002     4.5954765129690919E-022
  -8.4799999999999986E-002     1.0463652995243237E-021
  -8.3699999999999997E-002    -2.3016518648551071E-021
  -8.2599999999999993E-002    -7.4450625292969670E-021
  -8.1499999999999989E-002     8.2504165596711052E-021
  -8.0399999999999999E-002     4.5616196429512235E-020
  -7.9299999999999995E-002    -9.5038722608824048E-021
  -7.8199999999999992E-002    -2.3391695785779873E-019
  -7.7100000000000002E-002    -1.4333111650740955E-019
  -7.5999999999999984E-002     9.6053246705423265E-019
  -7.4899999999999994E-002     1.4816664893227204E-018
  -7.3799999999999991E-002    -2.8131122231172888E-018
  -7.2699999999999987E-002    -8.8372841630643901E-018
  -7.1599999999999997E-002     2.9636144268488620E-018
  -7.0499999999999993E-002     3.7808546445447175E-017
  -6.9399999999999989E-002     2.6624844533687301E-017
  -6.8300000000000000E-002    -1.1380438217777240E-016
  -6.7199999999999996E-002    -2.1560579133224914E-016
  -6.6099999999999992E-002     1.7349374841448868E-016
  -6.5000000000000002E-002     9.3050836184356686E-016
  -6.3899999999999985E-002     4.3583775898504604E-016
  -6.2799999999999995E-002    -2.5667997272067278E-015
  -6.1699999999999991E-002    -4.2783350409777380E-015
  -6.0599999999999994E-002     3.1524518594655071E-015
  -5.9499999999999990E-002     1.6667719518492254E-014
  -5.8399999999999994E-002     9.9554789257760672E-015
  -5.7299999999999990E-002    -3.6831808084133652E-014
  -5.6199999999999986E-002    -7.1839513775696223E-014
  -5.5099999999999996E-002     1.6690272617745847E-014
  -5.3999999999999992E-002     2.1509831134129687E-013
  -5.2899999999999989E-002     2.1611937228976225E-013
  -5.1799999999999985E-002    -2.9422980978716096E-013
  -5.0699999999999995E-002    -9.0894474022093497E-013
  -4.9599999999999991E-002    -3.9526029476343039E-013
  -4.8499999999999988E-002     1.7064878156392016E-012
  -4.7399999999999998E-002     3.0715562471944624E-012
  -4.6299999999999994E-002    -6.1855373796083912E-014
  -4.5199999999999990E-002    -6.9923515762237987E-012
  -4.4099999999999986E-002    -8.8071364437447563E-012
  -4.2999999999999997E-002     3.6228708834989964E-012
  -4.1899999999999993E-002     2.3092652789991064E-011
  -4.0799999999999989E-002     2.2935634294563023E-011
  -3.9699999999999985E-002    -1.5316707971391175E-011
  -3.8599999999999995E-002    -6.4859645432235880E-011
  -3.7499999999999992E-002    -5.9799200313737089E-011
  -3.6399999999999988E-002     3.5813990661992534E-011
  -3.5299999999999984E-002     1.5877280046261433E-010
  -3.4199999999999994E-002     1.7021122011851020E-010
  -3.3099999999999991E-002    -2.0362760089209786E-011
  -3.1999999999999987E-002    -3.3558844592107562E-010
  -3.0899999999999997E-002    -5.2181359233571811E-010
  -2.9799999999999993E-002    -2.6917237883061773E-010
  -2.8699999999999989E-002     5.5213905669759811E-010
  -2.7599999999999986E-002     1.5573312639460823E-009
  -2.6499999999999996E-002     1.6672160318975671E-009
  -2.5399999999999992E-002    -3.0765681668931677E-010
  -2.4299999999999988E-002    -4.0543040036311595E-009
  -2.3199999999999985E-002    -6.3895271296132705E-009
  -2.2099999999999995E-002    -2.6856628032589924E-009
  -2.0999999999999991E-002     8.0706117344675476E-009
  -1.9899999999999987E-002     1.8565572190709645E-008
  -1.8799999999999983E-002     1.5676036468903476E-008
  -1.7699999999999994E-002    -7.7528570230356308E-009
  -1.6599999999999990E-002    -4.0538587597893638E-008
  -1.5499999999999986E-002    -5.4210055111525435E-008
  -1.4399999999999996E-002    -2.2500074692288763E-008
  -1.3299999999999992E-002     5.2869943090172455E-008
  -1.2199999999999989E-002     1.3059928960501566E-007
  -1.1099999999999985E-002     1.4421863170355209E-007
  -9.9999999999999950E-003     3.9090114256623565E-008
  -8.8999999999999913E-003    -1.8027527914910024E-007
  -7.7999999999999875E-003    -4.1184264887306199E-007
  -6.6999999999999837E-003    -4.6135710363159887E-007
  -5.5999999999999939E-003    -1.3366155826588511E-007
  -4.4999999999999901E-003     5.8901440525005455E-007
  -3.3999999999999864E-003     1.3786213912680978E-006
  -2.2999999999999826E-003     1.5794400951563148E-006
  -1.1999999999999927E-003     5.4172312502487330E-007
  -9.9999999999988987E-005    -1.8049888694804395E-006
   1.0000000000000148E-003    -4.4671373871096876E-006
   2.1000000000000185E-003    -5.4405677474278491E-006
   3.2000000000000084E-003    -2.6113527837878792E-006
   4.3000000000000121E-003     4.6185737119230907E-006
   5.4000000000000159E-003     1.3731273611483630E-005
   6.5000000000000058E-003     1.8796265067066997E-005
   7.6000000000000234E-003     1.2671586773649324E-005
   8.7000000000000133E-003    -8.2435026342864148E-006
   9.8000000000000032E-003    -3.8663845771225169E-005
   1.0900000000000021E-002    -6.2212158809415996E-005
   1.2000000000000011E-002    -5.6047992984531447E-005
   1.3100000000000001E-002    -3.2687664770492120E-006
   1.4200000000000018E-002     9.0883411758113652E-005
   1.5300000000000008E-002     1.8788746092468500E-004
   1.6400000000000026E-002     2.2064319637138397E-004
   1.7500000000000016E-002     1.2079560838174075E-004
   1.8600000000000005E-002    -1.3536684855353087E-004
   1.9700000000000023E-002    -4.8139525461010635E-004
   2.0800000000000013E-002    -7.4592744931578636E-004
   2.1900000000000003E-002    -6.9726700894534588E-004
   2.3000000000000020E-002    -1.5457090921700001E-004
   2.4100000000000010E-002     8.6476589785888791E-004
   2.5200000000000000E-002     2.0313675049692392E-003
   2.6300000000000018E-002     2.7126634959131479E-003
   2.7400000000000008E-002     2.1702495869249105E-003
   2.8500000000000025E-002    -6.2037659517955035E-005
   2.9600000000000015E-002    -3.7377432454377413E-003
   3.0700000000000005E-002    -7.6152966357767582E-003
   3.1800000000000023E-002    -9.5823146402835846E-003
   3.2900000000000013E-002    -7.3374891653656960E-003
   3.4000000000000002E-002     4.4975741184316576E-004
   3.5100000000000020E-002     1.2876913882791996E-002
   3.6200000000000010E-002     2.6052787899971008E-002
   3.7300000000000028E-002     3.3488426357507706E-002
   3.8400000000000017E-002     2.8001587837934494E-002
   3.9500000000000007E-002     4.9316585063934326E-003
   4.0600000000000025E-002    -3.4264311194419861E-002
   4.1700000000000015E-002    -7.9567164182662964E-002
   4.2800000000000005E-002   -0.11277929693460464     
   4.3900000000000022E-002   -0.11184147745370865     
   4.5000000000000012E-002    -5.8888405561447144E-002
   4.6100000000000002E-002     4.9889687448740005E-002
   4.7200000000000020E-002    0.19605223834514618     
   4.8300000000000010E-002    0.33650067448616028     
   4.9400000000000027E-002    0.41013690829277039     
   5.0500000000000017E-002    0.35440972447395325     
   5.1600000000000007E-002    0.12899361550807953     
   5.2700000000000025E-002   -0.25976756215095520     
   5.3800000000000014E-002   -0.74234884977340698     
   5.4900000000000004E-002    -1.1859592199325562     
   5.6000000000000022E-002    -1.4162322282791138     
   5.7100000000000012E-002    -1.2601402997970581     
   5.8200000000000002E-002   -0.60245674848556519     
   5.9300000000000019E-002    0.55836635828018188     
   6.0400000000000009E-002     2.0722062587738037     
   6.1500000000000027E-002     3.6327850818634033     
   6.2600000000000017E-002     4.8152980804443359     
   6.3700000000000007E-002     5.1536045074462891     
   6.4800000000000024E-002     4.2425017356872559     
   6.5900000000000014E-002     1.8409851789474487     
   6.7000000000000004E-002    -2.0518708229064941     
   6.8100000000000022E-002    -7.1726918220520020     
   6.9200000000000012E-002    -13.035687446594238     
   7.0300000000000029E-002    -19.038223266601562     
   7.1400000000000019E-002    -24.610458374023438     
   7.2500000000000009E-002    -29.375221252441406     
   7.3600000000000027E-002    -33.279457092285156     
   7.4700000000000016E-002    -36.660480499267578     
   7.5800000000000006E-002    -40.229507446289062     
   7.6900000000000024E-002    -44.973545074462891     
   7.8000000000000014E-002    -52.002689361572266     
   7.9100000000000004E-002    -62.380474090576172     
   8.0200000000000021E-002    -76.992996215820312     
   8.1300000000000011E-002    -96.484962463378906     
   8.2400000000000029E-002    -121.28929138183594     
   8.3500000000000019E-002    -151.74299621582031     
   8.4600000000000009E-002    -188.26226806640625     
   8.5700000000000026E-002    -231.51733398437500     
   8.6800000000000016E-002    -282.56793212890625     
   8.7900000000000006E-002    -342.92993164062500     
   8.9000000000000024E-002    -414.53491210937500     
   9.0100000000000013E-002    -499.66461181640625     
   9.1200000000000003E-002    -600.82543945312500     
   9.2300000000000021E-002    -720.67700195312500     
   9.3400000000000011E-002    -862.01452636718750     
   9.4500000000000028E-002    -1027.8361816406250     
   9.5600000000000018E-002    -1221.4449462890625     
   9.6700000000000008E-002    -1446.5921630859375     
   9.7800000000000026E-002    -1707.5504150390625     
   9.8900000000000016E-002    -2009.2247314453125     
  0.10000000000000001         -2357.0346679687500     
  0.10110000000000002         -2756.7785644531250     
  0.10220000000000001         -3214.5222167968750     
  0.10330000000000003         -3736.4719238281250     
  0.10440000000000002         -4328.8544921875000     
  0.10550000000000001         -4998.0727539062500     
  0.10660000000000003         -5750.4638671875000     
  0.10770000000000002         -6592.3510742187500     
  0.10880000000000001         -7530.4121093750000     
  0.10990000000000003         -8571.0312500000000     
  0.11100000000000002         -9720.5498046875000     
  0.11210000000000001         -10984.370117187500     
  0.11320000000000002         -12367.378906250000     
  0.11430000000000001         -13872.651367187500     
  0.11540000000000003         -15502.088867187500     
  0.11650000000000002         -17255.500000000000     
  0.11760000000000001         -19130.031250000000     
  0.11870000000000003         -21121.128906250000     
  0.11980000000000002         -23221.164062500000     
  0.12090000000000001         -25418.923828125000     
  0.12200000000000003         -27700.458984375000     
  0.12310000000000001         -30047.109375000000     
  0.12420000000000003         -32437.574218750000     
  0.12530000000000002         -34844.195312500000     
  0.12640000000000001         -37234.812500000000     
  0.12750000000000003         -39573.878906250000     
  0.12860000000000002         -41820.531250000000     
  0.12970000000000001         -43928.703125000000     
  0.13080000000000003         -45845.125000000000     
  0.13190000000000002         -47516.554687500000     
  0.13300000000000001         -48883.968750000000     
  0.13410000000000000         -49882.429687500000     
  0.13520000000000004         -50447.593750000000     
  0.13630000000000003         -50510.070312500000     
  0.13740000000000002         -50001.105468750000     
  0.13850000000000001         -48850.394531250000     
  0.13960000000000000         -46992.496093750000     
  0.14070000000000005         -44366.703125000000     
  0.14180000000000004         -40906.593750000000     
  0.14290000000000003         -36565.574218750000     
  0.14400000000000002         -31294.019531250000     
  0.14510000000000001         -25062.208984375000     
  0.14620000000000000         -17841.037109375000     
  0.14730000000000004         -9631.1835937500000     
  0.14840000000000003         -432.58187866210938     
  0.14950000000000002          9733.8417968750000     
  0.15060000000000001          20824.529296875000     
  0.15170000000000000          32783.722656250000     
  0.15280000000000005          45525.050781250000     
  0.15390000000000004          58947.769531250000     
  0.15500000000000003          72931.492187500000     
  0.15610000000000002          87336.070312500000     
  0.15720000000000001          102001.25000000000     
  0.15830000000000000          116747.34375000000     
  0.15940000000000004          131381.68750000000     
  0.16050000000000003          145690.28125000000     
  0.16160000000000002          159456.90625000000     
  0.16270000000000001          172448.31250000000     
  0.16380000000000000          184436.90625000000     
  0.16490000000000005          195191.43750000000     
  0.16600000000000004          204491.71875000000     
  0.16710000000000003          212098.85937500000     
  0.16820000000000002          217819.87500000000     
  0.16930000000000001          221457.00000000000     
  0.17040000000000000          222854.10937500000     
  0.17150000000000004          221875.37500000000     
  0.17260000000000003          218405.45312500000     
  0.17370000000000002          212373.29687500000     
  0.17480000000000001          203733.79687500000     
  0.17590000000000000          192494.17187500000     
  0.17700000000000005          178698.03125000000     
  0.17810000000000004          162436.32812500000     
  0.17920000000000003          143829.59375000000     
  0.18030000000000002          123044.93750000000     
  0.18140000000000001          100292.05468750000     
  0.18250000000000000          75826.296875000000     
  0.18360000000000004          49927.417968750000     
  0.18470000000000003          22903.390625000000     
  0.18580000000000002         -4915.3188476562500     
  0.18690000000000001         -33178.472656250000     
  0.18800000000000000         -61519.742187500000     
  0.18910000000000005         -89559.312500000000     
  0.19020000000000004         -116918.98437500000     
  0.19130000000000003         -143242.00000000000     
  0.19240000000000002         -168167.32812500000     
  0.19350000000000001         -191379.65625000000     
  0.19460000000000005         -212563.20312500000     
  0.19570000000000004         -231427.62500000000     
  0.19680000000000003         -247735.00000000000     
  0.19790000000000002         -261291.31250000000     
  0.19900000000000001         -271938.71875000000     
  0.20010000000000000         -279579.53125000000     
  0.20120000000000005         -284141.03125000000     
  0.20230000000000004         -285610.71875000000     
  0.20340000000000003         -284012.68750000000     
  0.20450000000000002         -279422.78125000000     
  0.20560000000000000         -271969.46875000000     
  0.20670000000000005         -261852.62500000000     
  0.20780000000000004         -249238.35937500000     
  0.20890000000000003         -234378.96875000000     
