 -0.12000000000000000          0.0000000000000000     
 -0.11889999999999999          0.0000000000000000     
 -0.11780000000000000          0.0000000000000000     
 -0.11670000000000000          0.0000000000000000     
 -0.11559999999999999          0.0000000000000000     
 -0.11449999999999999          0.0000000000000000     
 -0.11340000000000000          0.0000000000000000     
 -0.11230000000000000          0.0000000000000000     
 -0.11119999999999999          0.0000000000000000     
 -0.11009999999999999          0.0000000000000000     
 -0.10900000000000000          8.9070157697128113E-028
 -0.10790000000000000         -2.0270081404725223E-027
 -0.10679999999999999         -1.4855779263315518E-026
 -0.10569999999999999          3.1235539187904878E-026
 -0.10460000000000000          1.4590648043451394E-025
 -0.10349999999999999         -2.4132093255422548E-025
 -0.10239999999999999         -1.0752427559728193E-024
 -0.10130000000000000          1.1442728183450892E-024
 -0.10020000000000000          6.2736068586787073E-024
  -9.9099999999999994E-002    -3.0681626698238103E-024
  -9.7999999999999990E-002    -2.9395895046545943E-023
  -9.6899999999999986E-002    -1.9081519161821906E-026
  -9.5799999999999996E-002     1.1322049780448947E-022
  -9.4699999999999993E-002     4.6618634495467645E-023
  -9.3599999999999989E-002    -3.7613607402083404E-022
  -9.2499999999999999E-002    -3.0327438170327365E-022
  -9.1399999999999995E-002     1.1327311545795643E-021
  -9.0299999999999991E-002     1.4758451072110633E-021
  -8.9200000000000002E-002    -2.9997418147519283E-021
  -8.8099999999999984E-002    -6.3280980915054527E-021
  -8.6999999999999994E-002     5.5913293700361079E-021
  -8.5899999999999990E-002     2.2743406874740789E-020
  -8.4799999999999986E-002    -2.1914374193487145E-022
  -8.3699999999999997E-002    -6.2687578991950031E-020
  -8.2599999999999993E-002    -4.5903896955141567E-020
  -8.1499999999999989E-002     1.2108046209291888E-019
  -8.0399999999999999E-002     1.9439558650911632E-019
  -7.9299999999999995E-002    -1.3725851221201928E-019
  -7.8199999999999992E-002    -5.0191897853039894E-019
  -7.7100000000000002E-002    -1.1496922951305402E-021
  -7.5999999999999984E-002     1.0375815493789798E-018
  -7.4899999999999994E-002     4.8259676320419620E-019
  -7.3799999999999991E-002    -2.0785245539722220E-018
  -7.2699999999999987E-002    -2.1767894748404589E-018
  -7.1599999999999997E-002     3.6678284374912880E-018
  -7.0499999999999993E-002     7.7374689565169472E-018
  -6.9399999999999989E-002    -2.5631440322680518E-018
  -6.8300000000000000E-002    -1.9364074801100989E-017
  -6.7199999999999996E-002    -1.0981114626397674E-017
  -6.6099999999999992E-002     2.9396615924150415E-017
  -6.5000000000000002E-002     4.4981479523147706E-017
  -6.3899999999999985E-002    -1.6910377517221666E-017
  -6.2799999999999995E-002    -8.8182998716979306E-017
  -6.1699999999999991E-002    -2.9741553548307478E-017
  -6.0599999999999994E-002     1.2524258274859647E-016
  -5.9499999999999990E-002     1.1031113889395686E-016
  -5.8399999999999994E-002    -1.7424783273067162E-016
  -5.7299999999999990E-002    -3.0451085916698313E-016
  -5.6199999999999986E-002     1.6932133029076300E-016
  -5.5099999999999996E-002     7.5855294437530019E-016
  -5.3999999999999992E-002     2.9014237458491242E-016
  -5.2899999999999989E-002    -1.2040643225438028E-015
  -5.1799999999999985E-002    -1.6138944378092180E-015
  -5.0699999999999995E-002     6.1466491652637043E-016
  -4.9599999999999991E-002     3.1298784314211800E-015
  -4.8499999999999988E-002     1.6469144290711508E-015
  -4.7399999999999998E-002    -3.2455973198179840E-015
  -4.6299999999999994E-002    -4.5194836269951428E-015
  -4.5199999999999990E-002     1.6772940068782551E-015
  -4.4099999999999986E-002     7.1988940551987249E-015
  -4.2999999999999997E-002     1.0315623570663203E-015
  -4.1899999999999993E-002    -1.1110614178363488E-014
  -4.0799999999999989E-002    -8.2798580207268761E-015
  -3.9699999999999985E-002     1.4091343448542105E-014
  -3.8599999999999995E-002     2.5391157682267892E-014
  -3.7499999999999992E-002    -3.5325089783931705E-015
  -3.6399999999999988E-002    -4.5411045664902824E-014
  -3.5299999999999984E-002    -3.3796231736554425E-014
  -3.4199999999999994E-002     4.0724490294775928E-014
  -3.3099999999999991E-002     8.5846192893028472E-014
  -3.1999999999999987E-002     1.6196750565094023E-014
  -3.0899999999999997E-002    -1.0267839096328446E-013
  -2.9799999999999993E-002    -1.0366223667217928E-013
  -2.8699999999999989E-002     4.6600225712739238E-014
  -2.7599999999999986E-002     1.5057708769097844E-013
  -2.6499999999999996E-002     3.2273452844639589E-014
  -2.5399999999999992E-002    -1.6209513657543251E-013
  -2.4299999999999988E-002    -1.0544478024022627E-013
  -2.3199999999999985E-002     2.0885441813500716E-013
  -2.2099999999999995E-002     3.2543726827954922E-013
  -2.0999999999999991E-002    -8.2489414875586836E-014
  -1.9899999999999987E-002    -6.0883709098596972E-013
  -1.8799999999999983E-002    -4.8659177815518762E-013
  -1.7699999999999994E-002     3.3632214309527175E-013
  -1.6599999999999990E-002     9.0508254103199848E-013
  -1.5499999999999986E-002     4.2736314161996580E-013
  -1.4399999999999996E-002    -5.2974779510966963E-013
  -1.3299999999999992E-002    -6.4907362254049139E-013
  -1.2199999999999989E-002     2.6489452450116635E-013
  -1.1099999999999985E-002     7.7836890578775186E-013
  -9.9999999999999950E-003    -2.3357135453191957E-013
  -8.8999999999999913E-003    -1.6862489052651974E-012
  -7.7999999999999875E-003    -1.3721440433531185E-012
  -6.6999999999999837E-003     9.8081135227467975E-013
  -5.5999999999999939E-003     2.8647019652272565E-012
  -4.4999999999999901E-003     1.9655685499359032E-012
  -3.3999999999999864E-003    -7.8122773007616164E-013
  -2.2999999999999826E-003    -2.3184501193873608E-012
  -1.1999999999999927E-003    -1.4125410910392766E-012
  -9.9999999999988987E-005     1.8793687512805822E-015
   1.0000000000000148E-003    -7.7502850599937834E-014
   2.1000000000000185E-003    -7.1994287701576676E-013
   3.2000000000000084E-003     3.6274539687124185E-013
   4.3000000000000121E-003     2.9606087546818483E-012
   5.4000000000000159E-003     3.9716697812497426E-012
   6.5000000000000058E-003     1.2298112831918284E-012
   7.6000000000000234E-003    -3.7609030473229055E-012
   8.7000000000000133E-003    -7.6228719517179577E-012
   9.8000000000000032E-003    -8.1480629535168880E-012
   1.0900000000000021E-002    -4.4695545008133220E-012
   1.2000000000000011E-002     3.8644786155839217E-012
   1.3100000000000001E-002     1.5041990222841584E-011
   1.4200000000000018E-002     2.2661853296690460E-011
   1.5300000000000008E-002     1.9039788842767358E-011
   1.6400000000000026E-002     3.0147141293762614E-012
   1.7500000000000016E-002    -1.7535192048390158E-011
   1.8600000000000005E-002    -3.3130363036315558E-011
   1.9700000000000023E-002    -4.0364770553802387E-011
   2.0800000000000013E-002    -3.8790751860640071E-011
   2.1900000000000003E-002    -2.2855030368251761E-011
   2.3000000000000020E-002     1.4275926794871108E-011
   2.4100000000000010E-002     6.4685999612290601E-011
   2.5200000000000000E-002     9.9544317233579704E-011
   2.6300000000000018E-002     8.8669002695773713E-011
   2.7400000000000008E-002     2.9177965599203048E-011
   2.8500000000000025E-002    -4.8394996343681385E-011
   2.9600000000000015E-002    -1.0431387698073280E-010
   3.0700000000000005E-002    -1.1697726121084884E-010
   3.1800000000000023E-002    -8.4815161838225350E-011
   3.2900000000000013E-002    -1.3367864107327598E-011
   3.4000000000000002E-002     8.2162124326323749E-011
   3.5100000000000020E-002     1.6335016672641700E-010
   3.6200000000000010E-002     1.6992217355404904E-010
   3.7300000000000028E-002     6.0621702102636732E-011
   3.8400000000000017E-002    -1.4593672104101785E-010
   3.9500000000000007E-002    -3.7590014434485397E-010
   4.0600000000000025E-002    -5.2350523915833946E-010
   4.1700000000000015E-002    -5.0601223211543811E-010
   4.2800000000000005E-002    -2.8946325891787694E-010
   4.3900000000000022E-002     8.5538305605314946E-011
   4.5000000000000012E-002     4.8256859619399961E-010
   4.6100000000000002E-002     7.4786132842064035E-010
   4.7200000000000020E-002     7.1476585761232059E-010
   4.8300000000000010E-002     3.0121638516789062E-010
   4.9400000000000027E-002    -4.2207884409783958E-010
   5.0500000000000017E-002    -1.2097729484850106E-009
   5.1600000000000007E-002    -1.7854026035379889E-009
   5.2700000000000025E-002    -1.8479145991179280E-009
   5.3800000000000014E-002    -1.3010720278927579E-009
   5.4900000000000004E-002    -3.8131747759351242E-010
   5.6000000000000022E-002     5.9253912887413662E-010
   5.7100000000000012E-002     1.2270543470194184E-009
   5.8200000000000002E-002     1.2021181827748251E-009
   5.9300000000000019E-002     1.7905679716712086E-010
   6.0400000000000009E-002    -1.8026145021110551E-009
   6.1500000000000027E-002    -4.0944492241123953E-009
   6.2600000000000017E-002    -5.9420033338142275E-009
   6.3700000000000007E-002    -6.5402332438679878E-009
   6.4800000000000024E-002    -5.1322404104325869E-009
   6.5900000000000014E-002    -2.6215454251854453E-009
   6.7000000000000004E-002    -3.1150176882377423E-010
   6.8100000000000022E-002     1.6793205714904502E-009
   6.9200000000000012E-002     1.2289282924626832E-009
   7.0300000000000029E-002    -2.2949544487005369E-009
   7.1400000000000019E-002    -6.9186847362345816E-009
   7.2500000000000009E-002    -1.1753383155621577E-008
   7.3600000000000027E-002    -1.5557841237523462E-008
   7.4700000000000016E-002    -1.6844186490061475E-008
   7.5800000000000006E-002    -1.7390689777130319E-008
   7.6900000000000024E-002    -1.5010170884011131E-008
   7.8000000000000014E-002    -6.3268044137032575E-009
   7.9100000000000004E-002    -6.9216238296476718E-010
   8.0200000000000021E-002     5.3195431393149306E-010
   8.1300000000000011E-002    -7.1350636510203458E-010
   8.2400000000000029E-002    -9.1791756418047044E-009
   8.3500000000000019E-002    -2.8186409650743371E-008
   8.4600000000000009E-002    -4.3785917114291806E-008
   8.5700000000000026E-002    -4.1776964110340487E-008
   8.6800000000000016E-002    -2.9612778007503948E-008
   8.7900000000000006E-002    -2.8084279790618893E-008
   8.9000000000000024E-002    -3.1194453242733289E-008
   9.0100000000000013E-002    -1.5477130688168472E-008
   9.1200000000000003E-002     1.5221933713505109E-009
   9.2300000000000021E-002     1.4067776277215671E-008
   9.3400000000000011E-002    -1.3797242237600926E-009
   9.4500000000000028E-002    -1.7207030467147888E-008
   9.5600000000000018E-002    -2.1169123343156571E-008
   9.6700000000000008E-002    -4.7086093246662131E-008
   9.7800000000000026E-002    -6.9576337580201653E-008
   9.8900000000000016E-002    -3.2892845780452262E-008
  0.10000000000000001          4.1225039382197792E-008
  0.10110000000000002          7.5549102973582194E-008
  0.10220000000000001          5.9094812598914359E-008
  0.10330000000000003          4.8905235416896176E-009
  0.10440000000000002          9.1486631603743263E-009
  0.10550000000000001          6.7830455918738153E-008
  0.10660000000000003          9.4347790025040013E-008
  0.10770000000000002          8.7820630767510011E-008
  0.10880000000000001          6.7634542411099119E-009
  0.10990000000000003         -1.6788803236522654E-008
  0.11100000000000002          1.4313441454305575E-007
  0.11210000000000001          1.1126094534574804E-007
  0.11320000000000002          4.5567528417223002E-008
  0.11430000000000001          2.1886540935156518E-007
  0.11540000000000003          2.6840285727303126E-007
  0.11650000000000002          9.3394653788436699E-008
  0.11760000000000001          7.9333830171890440E-008
  0.11870000000000003          2.2958543866025138E-007
  0.11980000000000002          3.4066718512804073E-007
  0.12090000000000001          3.2308656727764173E-007
  0.12200000000000003          2.3839281482196384E-007
  0.12310000000000001         -1.5737297687223872E-008
  0.12420000000000003         -1.9087153191321704E-007
  0.12530000000000002          1.4220488253613439E-007
  0.12640000000000001          4.3303768393343489E-007
  0.12750000000000003          2.7008505298908858E-007
  0.12860000000000002         -1.1496267404709215E-007
  0.12970000000000001         -2.5502444600533636E-007
  0.13080000000000003         -2.0914509235581136E-008
  0.13190000000000002          3.1642019848732161E-007
  0.13300000000000001          2.9012304025854974E-007
  0.13410000000000000         -9.0390152251984546E-008
  0.13520000000000004         -2.8552693720484967E-007
  0.13630000000000003         -2.5466883357694314E-007
  0.13740000000000002          5.2151154505963859E-008
  0.13850000000000001          5.6490029010092258E-007
  0.13960000000000000          5.7218170468331664E-007
  0.14070000000000005          6.3550864126682427E-008
  0.14180000000000004         -7.3026205882342765E-007
  0.14290000000000003         -1.2196167062938912E-006
  0.14400000000000002         -6.3689350326967542E-007
  0.14510000000000001          1.5277139198133227E-007
  0.14620000000000000          4.5039050178274920E-007
  0.14730000000000004         -1.1127978893910040E-007
  0.14840000000000003         -1.0342379255234846E-006
  0.14950000000000002         -1.0847767271116027E-006
  0.15060000000000001         -3.5563195410759363E-007
  0.15170000000000000          4.5814491045348404E-007
  0.15280000000000005          6.1029822973068804E-007
  0.15390000000000004         -2.1015922868627968E-007
  0.15500000000000003         -1.1598287983360933E-006
  0.15610000000000002         -1.0921069133473793E-006
  0.15720000000000001         -3.7199603752924304E-007
  0.15830000000000000          3.7223006188469299E-007
  0.15940000000000004          7.2214271540360642E-007
  0.16050000000000003          1.6640360911424068E-007
  0.16160000000000002         -8.1111323879667907E-007
  0.16270000000000001         -9.6395717719133245E-007
  0.16380000000000000         -7.5206337157851522E-008
  0.16490000000000005          9.5767279617575696E-007
  0.16600000000000004          1.2452304645194090E-006
  0.16710000000000003          3.9558847220177995E-007
  0.16820000000000002         -7.8878048270780710E-007
  0.16930000000000001         -6.8703980105055962E-007
  0.17040000000000000          4.4350628058964503E-007
  0.17150000000000004          1.3577193840319524E-006
  0.17260000000000003          1.5907381794022513E-006
  0.17370000000000002          7.6234090329307946E-007
  0.17480000000000001         -5.5798602716095047E-007
  0.17590000000000000         -4.3203385757806245E-007
  0.17700000000000005          6.4564386548227048E-007
  0.17810000000000004          1.1300548976578284E-006
  0.17920000000000003          7.3426758717687335E-007
  0.18030000000000002         -4.0067314444058866E-007
  0.18140000000000001         -1.2868167686974630E-006
  0.18250000000000000         -1.1637652050922043E-006
  0.18360000000000004          2.3165988238815771E-007
  0.18470000000000003          2.0044856228196295E-006
  0.18580000000000002          2.4672528979863273E-006
  0.18690000000000001          9.6241751634806860E-007
  0.18800000000000000         -1.3703555623578723E-006
  0.18910000000000005         -2.3495924779126653E-006
  0.19020000000000004         -1.0795802154461853E-006
  0.19130000000000003          8.0755836506796186E-007
  0.19240000000000002          1.5936037698338623E-006
  0.19350000000000001          1.0099515748152044E-006
  0.19460000000000005         -3.6543889336826396E-007
  0.19570000000000004         -1.1784806019932148E-006
  0.19680000000000003         -5.7934425967687275E-007
  0.19790000000000002          6.4498607343921321E-007
  0.19900000000000001          1.1570867854970857E-006
  0.20010000000000000          3.2063979915619711E-007
  0.20120000000000005         -9.8775728929467732E-007
  0.20230000000000004         -1.5967981426001643E-006
  0.20340000000000003         -1.0268154255754780E-006
  0.20450000000000002          2.9797573120049492E-007
  0.20560000000000000          1.2929644981340971E-006
  0.20670000000000005          9.3705847348246607E-007
  0.20780000000000004         -3.5768954376180773E-007
  0.20890000000000003         -1.3502663023245987E-006
