 -0.12000000000000000          0.0000000000000000     
 -0.11889999999999999          0.0000000000000000     
 -0.11780000000000000          0.0000000000000000     
 -0.11670000000000000          0.0000000000000000     
 -0.11559999999999999          0.0000000000000000     
 -0.11449999999999999          0.0000000000000000     
 -0.11340000000000000          0.0000000000000000     
 -0.11230000000000000          0.0000000000000000     
 -0.11119999999999999          0.0000000000000000     
 -0.11009999999999999          0.0000000000000000     
 -0.10900000000000000          8.9070157697128113E-028
 -0.10790000000000000         -2.0270162293782887E-027
 -0.10679999999999999         -1.4855763855875963E-026
 -0.10569999999999999          3.1235668610397141E-026
 -0.10460000000000000          1.4590644345665900E-025
 -0.10349999999999999         -2.4132196793416359E-025
 -0.10239999999999999         -1.0752421643271404E-024
 -0.10130000000000000          1.1442814958150466E-024
 -0.10020000000000000          6.2736052809568968E-024
  -9.9099999999999994E-002    -3.0681890966641352E-024
  -9.7999999999999990E-002    -2.9395895046545943E-023
  -9.6899999999999986E-002    -1.9022869202411470E-026
  -9.5799999999999996E-002     1.1322054829158740E-022
  -9.4699999999999993E-002     4.6618921640837145E-023
  -9.3599999999999989E-002    -3.7613647791761752E-022
  -9.2499999999999999E-002    -3.0327587107266271E-022
  -9.1399999999999995E-002     1.1327342847796362E-021
  -9.0299999999999991E-002     1.4758509637144237E-021
  -8.9200000000000002E-002    -2.9997521141199068E-021
  -8.8099999999999984E-002    -6.3281194980349767E-021
  -8.6999999999999994E-002     5.5913342167975096E-021
  -8.5899999999999990E-002     2.2743416568263592E-020
  -8.4799999999999986E-002    -2.1902610699668489E-022
  -8.3699999999999997E-002    -6.2687449744979319E-020
  -8.2599999999999993E-002    -4.5904142524385919E-020
  -8.1499999999999989E-002     1.2108017774958332E-019
  -8.0399999999999999E-002     1.9439580622896653E-019
  -7.9299999999999995E-002    -1.3725837004035150E-019
  -7.8199999999999992E-002    -5.0191949551828178E-019
  -7.7100000000000002E-002    -1.1487929179679414E-021
  -7.5999999999999984E-002     1.0375840309208175E-018
  -7.4899999999999994E-002     4.8259898625209243E-019
  -7.3799999999999991E-002    -2.0785247607673751E-018
  -7.2699999999999987E-002    -2.1767754127700455E-018
  -7.1599999999999997E-002     3.6678391908392512E-018
  -7.0499999999999993E-002     7.7374540672659213E-018
  -6.9399999999999989E-002    -2.5632068979946058E-018
  -6.8300000000000000E-002    -1.9364084727268339E-017
  -6.7199999999999996E-002    -1.0981030253975193E-017
  -6.6099999999999992E-002     2.9396559675868761E-017
  -6.5000000000000002E-002     4.4981360409139499E-017
  -6.3899999999999985E-002    -1.6910329540746137E-017
  -6.2799999999999995E-002    -8.8182727401738388E-017
  -6.1699999999999991E-002    -2.9741788467601443E-017
  -6.0599999999999994E-002     1.2524266215793527E-016
  -5.9499999999999990E-002     1.1031170137677340E-016
  -5.8399999999999994E-002    -1.7424853417983107E-016
  -5.7299999999999990E-002    -3.0451051505984831E-016
  -5.6199999999999986E-002     1.6932575074395649E-016
  -5.5099999999999996E-002     7.5854997975998480E-016
  -5.3999999999999992E-002     2.9012726034075985E-016
  -5.2899999999999989E-002    -1.2040658048514605E-015
  -5.1799999999999985E-002    -1.6138798264908778E-015
  -5.0699999999999995E-002     6.1468026899853942E-016
  -4.9599999999999991E-002     3.1298678435093394E-015
  -4.8499999999999988E-002     1.6469029941263628E-015
  -4.7399999999999998E-002    -3.2455801674008021E-015
  -4.6299999999999994E-002    -4.5194992971046670E-015
  -4.5199999999999990E-002     1.6773217472072777E-015
  -4.4099999999999986E-002     7.1989931580535536E-015
  -4.2999999999999997E-002     1.0315488045391642E-015
  -4.1899999999999993E-002    -1.1110707351987686E-014
  -4.0799999999999989E-002    -8.2799088427037114E-015
  -3.9699999999999985E-002     1.4091544195350605E-014
  -3.8599999999999995E-002     2.5391084837434429E-014
  -3.7499999999999992E-002    -3.5327054900369335E-015
  -3.6399999999999988E-002    -4.5410696687328556E-014
  -3.5299999999999984E-002    -3.3795994567329193E-014
  -3.4199999999999994E-002     4.0724398815217625E-014
  -3.3099999999999991E-002     8.5845860856113149E-014
  -3.1999999999999987E-002     1.6196643838942669E-014
  -3.0899999999999997E-002    -1.0267895339316144E-013
  -2.9799999999999993E-002    -1.0366196562163615E-013
  -2.8699999999999989E-002     4.6601821522811865E-014
  -2.7599999999999986E-002     1.5057532586244815E-013
  -2.6499999999999996E-002     3.2273005611243438E-014
  -2.5399999999999992E-002    -1.6209130121024734E-013
  -2.4299999999999988E-002    -1.0544349952641002E-013
  -2.3199999999999985E-002     2.0885337459041614E-013
  -2.2099999999999995E-002     3.2543138648276349E-013
  -2.0999999999999991E-002    -8.2490417762596385E-014
  -1.9899999999999987E-002    -6.0883036893250031E-013
  -1.8799999999999983E-002    -4.8657665353488144E-013
  -1.7699999999999994E-002     3.3633271406645349E-013
  -1.6599999999999990E-002     9.0506996428679765E-013
  -1.5499999999999986E-002     4.2733573841005623E-013
  -1.4399999999999996E-002    -5.2978590481603249E-013
  -1.3299999999999992E-002    -6.4908468140265074E-013
  -1.2199999999999989E-002     2.6498345618436447E-013
  -1.1099999999999985E-002     7.7850551526148504E-013
  -9.9999999999999950E-003    -2.3362735357412845E-013
  -8.8999999999999913E-003    -1.6864306175493060E-012
  -7.7999999999999875E-003    -1.3721711484074306E-012
  -6.6999999999999837E-003     9.8108966697235678E-013
  -5.5999999999999939E-003     2.8648416104670726E-012
  -4.4999999999999901E-003     1.9656977868348635E-012
  -3.3999999999999864E-003    -7.8141405021950328E-013
  -2.2999999999999826E-003    -2.3184180270030552E-012
  -1.1999999999999927E-003    -1.4116233139002676E-012
  -9.9999999999988987E-005     1.8023152228600426E-015
   1.0000000000000148E-003    -7.8048387251814649E-014
   2.1000000000000185E-003    -7.2202812305410813E-013
   3.2000000000000084E-003     3.6137268850065796E-013
   4.3000000000000121E-003     2.9617517206120825E-012
   5.4000000000000159E-003     3.9712577844241981E-012
   6.5000000000000058E-003     1.2301097640499137E-012
   7.6000000000000234E-003    -3.7606467419293299E-012
   8.7000000000000133E-003    -7.6237757426489416E-012
   9.8000000000000032E-003    -8.1438718615989281E-012
   1.0900000000000021E-002    -4.4639439714111440E-012
   1.2000000000000011E-002     3.8575106650617919E-012
   1.3100000000000001E-002     1.5027517424881509E-011
   1.4200000000000018E-002     2.2653713974141176E-011
   1.5300000000000008E-002     1.9044404941936932E-011
   1.6400000000000026E-002     3.0198404540882073E-012
   1.7500000000000016E-002    -1.7526894866004561E-011
   1.8600000000000005E-002    -3.3135591492872152E-011
   1.9700000000000023E-002    -4.0389393218820402E-011
   2.0800000000000013E-002    -3.8778515121240531E-011
   2.1900000000000003E-002    -2.2871924840184299E-011
   2.3000000000000020E-002     1.4193140586427067E-011
   2.4100000000000010E-002     6.4689045786714416E-011
   2.5200000000000000E-002     9.9680062815021842E-011
   2.6300000000000018E-002     8.8680500442972487E-011
   2.7400000000000008E-002     2.9082757035947537E-011
   2.8500000000000025E-002    -4.8320829976189472E-011
   2.9600000000000015E-002    -1.0427792657141666E-010
   3.0700000000000005E-002    -1.1712328329416266E-010
   3.1800000000000023E-002    -8.5049668696601799E-011
   3.2900000000000013E-002    -1.3453398985119325E-011
   3.4000000000000002E-002     8.2558272718191716E-011
   3.5100000000000020E-002     1.6347806441885382E-010
   3.6200000000000010E-002     1.7050626188730433E-010
   3.7300000000000028E-002     6.1452905264491875E-011
   3.8400000000000017E-002    -1.4675767545657692E-010
   3.9500000000000007E-002    -3.7741679226321878E-010
   4.0600000000000025E-002    -5.2661491833916330E-010
   4.1700000000000015E-002    -5.0296505849090067E-010
   4.2800000000000005E-002    -2.8207558511184061E-010
   4.3900000000000022E-002     8.3834481023892238E-011
   4.5000000000000012E-002     4.8082576808994304E-010
   4.6100000000000002E-002     7.4450601239561820E-010
   4.7200000000000020E-002     7.0433647803014310E-010
   4.8300000000000010E-002     3.0288097030428673E-010
   4.9400000000000027E-002    -3.9590727918259461E-010
   5.0500000000000017E-002    -1.2056291520678997E-009
   5.1600000000000007E-002    -1.7949406405648460E-009
   5.2700000000000025E-002    -1.8660568645856301E-009
   5.3800000000000014E-002    -1.3336658444274008E-009
   5.4900000000000004E-002    -3.7988021062140831E-010
   5.6000000000000022E-002     5.8814692005526581E-010
   5.7100000000000012E-002     1.1872489658060204E-009
   5.8200000000000002E-002     1.1359346796524505E-009
   5.9300000000000019E-002     1.6972755145783225E-010
   6.0400000000000009E-002    -1.7567866050782754E-009
   6.1500000000000027E-002    -3.8651739586725853E-009
   6.2600000000000017E-002    -5.6437601259062831E-009
   6.3700000000000007E-002    -6.7676002579730721E-009
   6.4800000000000024E-002    -5.8146674142278698E-009
   6.5900000000000014E-002    -2.9035813753353068E-009
   6.7000000000000004E-002     3.7154293530683447E-010
   6.8100000000000022E-002     1.6402664781978160E-009
   6.9200000000000012E-002     7.7735029524461652E-010
   7.0300000000000029E-002    -1.8575049276492450E-009
   7.1400000000000019E-002    -6.5935115145521195E-009
   7.2500000000000009E-002    -1.1028786772726562E-008
   7.3600000000000027E-002    -1.7078274794357640E-008
   7.4700000000000016E-002    -2.1835557362237523E-008
   7.5800000000000006E-002    -1.8643818933128387E-008
   7.6900000000000024E-002    -1.0920920168189241E-008
   7.8000000000000014E-002    -4.5575010432230556E-009
   7.9100000000000004E-002    -1.5978568468355547E-009
   8.0200000000000021E-002    -1.0055484223059352E-009
   8.1300000000000011E-002    -1.9104551274296000E-009
   8.2400000000000029E-002    -8.8762979189027646E-009
   8.3500000000000019E-002    -2.2492919526939659E-008
   8.4600000000000009E-002    -3.8364841969951158E-008
   8.5700000000000026E-002    -4.5076422594547694E-008
   8.6800000000000016E-002    -4.4060062265316446E-008
   8.7900000000000006E-002    -4.0557981861866210E-008
   8.9000000000000024E-002    -1.8967112325185553E-008
   9.0100000000000013E-002     2.6450359680296742E-009
   9.1200000000000003E-002     8.8545890619684542E-009
   9.2300000000000021E-002     4.2402144018183208E-009
   9.3400000000000011E-002    -2.6724682467005323E-009
   9.4500000000000028E-002    -1.8911272547939006E-008
   9.5600000000000018E-002    -2.8147464803396360E-008
   9.6700000000000008E-002    -4.0182019489520826E-008
   9.7800000000000026E-002    -6.2864124572570290E-008
   9.8900000000000016E-002    -4.6769379480338102E-008
  0.10000000000000001         -1.0900936153745988E-008
  0.10110000000000002          2.3011089922420069E-008
  0.10220000000000001          2.6983082435094730E-008
  0.10330000000000003          7.2418799845763715E-008
  0.10440000000000002          1.1296243229708125E-007
  0.10550000000000001          2.4381726859701303E-008
  0.10660000000000003         -6.0717120220488141E-008
  0.10770000000000002         -2.5419108595770012E-008
  0.10880000000000001          6.0132961721137690E-008
  0.10990000000000003          5.1395662836739575E-008
  0.11100000000000002          2.1756658696858722E-008
  0.11210000000000001          7.2958584951265948E-008
  0.11320000000000002          6.5648620761749044E-008
  0.11430000000000001          1.6213445519497327E-007
  0.11540000000000003          2.6861670221478562E-007
  0.11650000000000002          2.3362434831142309E-007
  0.11760000000000001          1.9570308040783857E-007
  0.11870000000000003          1.2615539901617012E-007
  0.11980000000000002          2.2191997572917899E-008
  0.12090000000000001         -2.9819698710298326E-008
  0.12200000000000003         -2.3438417429133551E-007
  0.12310000000000001         -1.8161021841933689E-007
  0.12420000000000003          3.3531441090417502E-007
  0.12530000000000002          4.5330298803492042E-007
  0.12640000000000001          3.5931029174207652E-007
  0.12750000000000003          7.8857652852093452E-008
  0.12860000000000002         -4.6941434561631468E-007
  0.12970000000000001         -3.2011362804951204E-007
  0.13080000000000003          1.4522127855798317E-007
  0.13190000000000002          2.9907639031989675E-007
  0.13300000000000001          4.0112141164172499E-007
  0.13410000000000000          1.6340784725343838E-007
  0.13520000000000004         -3.8055040363360604E-007
  0.13630000000000003         -5.1311900506334496E-007
  0.13740000000000002          7.3332266481429542E-008
  0.13850000000000001          5.9691473097700509E-007
  0.13960000000000000          6.4272711597368470E-007
  0.14070000000000005          1.6990833273666794E-007
  0.14180000000000004         -7.3348343221368850E-007
  0.14290000000000003         -9.5441805569862481E-007
  0.14400000000000002         -2.8472896929088165E-007
  0.14510000000000001          2.5970075512304902E-007
  0.14620000000000000          2.3592465936417284E-007
  0.14730000000000004         -1.0084375645647015E-007
  0.14840000000000003         -5.3838931535210577E-007
  0.14950000000000002         -7.2511750204284908E-007
  0.15060000000000001         -4.8935879704004037E-007
  0.15170000000000000         -9.7048946656741464E-008
  0.15280000000000005          5.1205233830842189E-008
  0.15390000000000004         -2.2003948174642574E-007
  0.15500000000000003         -4.6598717062806827E-007
  0.15610000000000002         -3.6381072732183384E-007
  0.15720000000000001         -6.7714886142766773E-008
  0.15830000000000000          1.7292437348714884E-007
  0.15940000000000004         -7.0856089884330231E-009
  0.16050000000000003         -4.8306480948667740E-007
  0.16160000000000002         -5.4865290621819440E-007
  0.16270000000000001         -2.8439072252695041E-007
  0.16380000000000000          1.7608267910418363E-007
  0.16490000000000005          5.6213991683762288E-007
  0.16600000000000004          5.4916569069973775E-007
  0.16710000000000003          2.0820667145926564E-007
  0.16820000000000002         -2.0079934870409488E-007
  0.16930000000000001         -6.7297584394054866E-008
  0.17040000000000000          2.3516265912348899E-007
  0.17150000000000004          4.3364462953832117E-007
  0.17260000000000003          6.8702451017088606E-007
  0.17370000000000002          2.2713086522685444E-008
  0.17480000000000001         -8.9326738361705793E-007
  0.17590000000000000         -5.3378272468762589E-007
  0.17700000000000005          7.2414070473314496E-007
  0.17810000000000004          1.7621633787712199E-006
  0.17920000000000003          1.3877188393962570E-006
  0.18030000000000002          4.1575908937829809E-008
  0.18140000000000001         -6.7136909365217434E-007
  0.18250000000000000         -6.9526146262433031E-007
  0.18360000000000004         -2.6467441571753625E-008
  0.18470000000000003          8.4653731846628943E-007
  0.18580000000000002          1.0223020581179298E-006
  0.18690000000000001          2.3649850788842741E-007
  0.18800000000000000         -9.2861500888830051E-007
  0.18910000000000005         -8.3317581811570562E-007
  0.19020000000000004          3.4232249390697689E-007
  0.19130000000000003          1.2997727480978938E-006
  0.19240000000000002          1.2035301324431202E-006
  0.19350000000000001         -8.9538389147492126E-008
  0.19460000000000005         -1.4433643400479923E-006
  0.19570000000000004         -1.7065947304217843E-006
  0.19680000000000003         -7.5055277193314396E-007
  0.19790000000000002          7.6414693239712506E-007
  0.19900000000000001          1.4964680303819478E-006
  0.20010000000000000          8.3735181988231489E-007
  0.20120000000000005         -6.1358349512374843E-007
  0.20230000000000004         -1.4937548939997214E-006
  0.20340000000000003         -9.5883387984940782E-007
  0.20450000000000002          3.2547006867389427E-007
  0.20560000000000000          1.0226418680758798E-006
  0.20670000000000005          4.7754559773238725E-007
  0.20780000000000004         -7.2309035203943495E-007
  0.20890000000000003         -1.4549702882504789E-006
