 -0.12000000000000000          0.0000000000000000     
 -0.11889999999999999          0.0000000000000000     
 -0.11780000000000000          0.0000000000000000     
 -0.11670000000000000          0.0000000000000000     
 -0.11559999999999999          0.0000000000000000     
 -0.11449999999999999          0.0000000000000000     
 -0.11340000000000000          3.7333362550224288E-015
 -0.11230000000000000         -9.2299443844759237E-015
 -0.11119999999999999         -3.4273256975525523E-014
 -0.11009999999999999          8.6530195714858843E-014
 -0.10900000000000000          2.1492883698921023E-013
 -0.10790000000000000         -4.4038652390575306E-013
 -0.10679999999999999         -1.1180390380866045E-012
 -0.10569999999999999          1.4642402958522927E-012
 -0.10460000000000000          4.8125605063564780E-012
 -0.10349999999999999         -2.9287334276512089E-012
 -0.10239999999999999         -1.6795792187607184E-011
 -0.10130000000000000          5.2947647351600513E-013
 -0.10020000000000000          4.7572848438370841E-011
  -9.9099999999999994E-002     2.2220674952833086E-011
  -9.7999999999999990E-002    -1.1150799034131964E-010
  -9.6899999999999986E-002    -1.1076689565570064E-010
  -9.5799999999999996E-002     2.1720597542795872E-010
  -9.4699999999999993E-002     3.7973210686992331E-010
  -9.3599999999999989E-002    -3.0847485676943620E-010
  -9.2499999999999999E-002    -1.0682408291273759E-009
  -9.1399999999999995E-002     4.3761137075160050E-011
  -9.0299999999999991E-002     2.4134534371000882E-009
  -8.9200000000000002E-002     1.5590159163636486E-009
  -8.8099999999999984E-002    -3.9368810433870749E-009
  -8.6999999999999994E-002    -5.9398628238227502E-009
  -8.5899999999999990E-002     3.3768705609560357E-009
  -8.4799999999999986E-002     1.3442152280163100E-008
  -8.3699999999999997E-002     3.1238340802985931E-009
  -8.2599999999999993E-002    -2.1568911989788830E-008
  -8.1499999999999989E-002    -1.9278900253993925E-008
  -8.0399999999999999E-002     2.4960971956033973E-008
  -7.9299999999999995E-002     4.8645460992702283E-008
  -7.8199999999999992E-002    -1.2655534398220425E-008
  -7.7100000000000002E-002    -9.2711943011636322E-008
  -7.5999999999999984E-002    -4.0518433053193803E-008
  -7.4899999999999994E-002     1.3080824601274799E-007
  -7.3799999999999991E-002     1.6309513739543036E-007
  -7.2699999999999987E-002    -9.4740293832273892E-008
  -7.1599999999999997E-002    -3.3117052566922212E-007
  -7.0499999999999993E-002    -9.7096098272686504E-008
  -6.9399999999999989E-002     4.3069621824542992E-007
  -6.8300000000000000E-002     4.4948012600798393E-007
  -6.7199999999999996E-002    -3.1692158586338337E-007
  -6.6099999999999992E-002    -8.6647878561052494E-007
  -6.5000000000000002E-002    -1.2583930697473988E-007
  -6.3899999999999985E-002     1.1687210417221650E-006
  -6.2799999999999995E-002     9.8342968612996629E-007
  -6.1699999999999991E-002    -9.9593989943969063E-007
  -6.0599999999999994E-002    -2.1118626136740204E-006
  -5.9499999999999990E-002    -1.2706964014341793E-007
  -5.8399999999999994E-002     2.8147658213129034E-006
  -5.7299999999999990E-002     2.2112806163931964E-006
  -5.6199999999999986E-002    -2.1249970814096741E-006
  -5.5099999999999996E-002    -4.3690188249456696E-006
  -5.3999999999999992E-002    -3.4609038834787498E-007
  -5.2899999999999989E-002     5.2531436267599929E-006
  -5.1799999999999985E-002     4.0064765016722959E-006
  -5.0699999999999995E-002    -3.7736917875008658E-006
  -4.9599999999999991E-002    -7.4458152994338889E-006
  -4.8499999999999988E-002    -4.4196940507390536E-007
  -4.7399999999999998E-002     8.6319741967599839E-006
  -4.6299999999999994E-002     6.3836828303465154E-006
  -4.5199999999999990E-002    -5.6464450608473271E-006
  -4.4099999999999986E-002    -1.0993938303727191E-005
  -4.2999999999999997E-002    -1.1293338957329979E-006
  -4.1899999999999993E-002     1.0812206710397732E-005
  -4.0799999999999989E-002     7.6708265623892657E-006
  -3.9699999999999985E-002    -6.3286588556366041E-006
  -3.8599999999999995E-002    -1.0661326086847112E-005
  -3.7499999999999992E-002     1.1894520639543771E-006
  -3.6399999999999988E-002     1.1241623724345118E-005
  -3.5299999999999984E-002     3.9899960029288195E-006
  -3.4199999999999994E-002    -9.3059597929823212E-006
  -3.3099999999999991E-002    -7.8648390626767650E-006
  -3.1999999999999987E-002     5.1607398745545652E-006
  -3.0899999999999997E-002     7.0395162765635177E-006
  -2.9799999999999993E-002    -6.2833246374793816E-006
  -2.8699999999999989E-002    -1.0069698873849120E-005
  -2.7599999999999986E-002     8.7881426225067116E-006
  -2.6499999999999996E-002     2.3193029846879654E-005
  -2.5399999999999992E-002     3.1918032163957832E-006
  -2.4299999999999988E-002    -3.0491215511574410E-005
  -2.3199999999999985E-002    -2.6604426238918677E-005
  -2.2099999999999995E-002     1.8644195733941160E-005
  -2.0999999999999991E-002     4.3039333831984550E-005
  -1.9899999999999987E-002     3.6452236145123607E-006
  -1.8799999999999983E-002    -5.0555379857541993E-005
  -1.7699999999999994E-002    -3.7604087992804125E-005
  -1.6599999999999990E-002     3.6717054172186181E-005
  -1.5499999999999986E-002     7.3718416388146579E-005
  -1.4399999999999996E-002     1.5890347640379332E-005
  -1.3299999999999992E-002    -6.5934305894188583E-005
  -1.2199999999999989E-002    -6.6118525865022093E-005
  -1.1099999999999985E-002     9.7384399850852787E-006
  -9.9999999999999950E-003     5.5720483942423016E-005
  -8.8999999999999913E-003     1.7845581169240177E-005
  -7.7999999999999875E-003    -3.5719487641472369E-005
  -6.6999999999999837E-003    -2.5061694032046944E-005
  -5.5999999999999939E-003     2.3369806513073854E-005
  -4.4999999999999901E-003     3.2617957913316786E-005
  -3.3999999999999864E-003     3.1381520670947793E-007
  -2.2999999999999826E-003    -7.1599283728573937E-006
  -1.1999999999999927E-003     1.7260295862797648E-005
  -9.9999999999988987E-005    -3.3806074952735798E-006
   1.0000000000000148E-003    -8.3643753896467388E-005
   2.1000000000000185E-003    -1.0926603135885671E-004
   3.2000000000000084E-003     4.6955824473116081E-006
   4.3000000000000121E-003     1.4761505008209497E-004
   5.4000000000000159E-003     1.2591456470545381E-004
   6.5000000000000058E-003    -5.5710614105919376E-005
   7.6000000000000234E-003    -1.5422211436089128E-004
   8.7000000000000133E-003    -3.3547235943842679E-005
   9.8000000000000032E-003     1.4238349103834480E-004
   1.0900000000000021E-002     1.1887900473084301E-004
   1.2000000000000011E-002    -1.1491737677715719E-004
   1.3100000000000001E-002    -2.5145092513412237E-004
   1.4200000000000018E-002    -1.1297006130916998E-004
   1.5300000000000008E-002     1.1020081001333892E-004
   1.6400000000000026E-002     1.8576813454274088E-004
   1.7500000000000016E-002     6.9196459662634879E-005
   1.8600000000000005E-002    -3.7660178350051865E-005
   1.9700000000000023E-002    -1.9743290977203287E-005
   2.0800000000000013E-002     2.8622644094866700E-005
   2.1900000000000003E-002    -5.7981978898169473E-005
   2.3000000000000020E-002    -7.7506432717200369E-005
   2.4100000000000010E-002    -5.4003776313038543E-005
   2.5200000000000000E-002     1.9210005120839924E-005
   2.6300000000000018E-002     7.0804917413624935E-006
   2.7400000000000008E-002    -6.1565449868794531E-005
   2.8500000000000025E-002    -1.2402053107507527E-004
   2.9600000000000015E-002     2.3323207278735936E-004
   3.0700000000000005E-002     3.6764596006833017E-004
   3.1800000000000023E-002    -2.1387961169239134E-005
   3.2900000000000013E-002    -2.9302827897481620E-004
   3.4000000000000002E-002    -6.6514068748801947E-005
   3.5100000000000020E-002     3.0487938784062862E-004
   3.6200000000000010E-002     2.2901520424056798E-004
   3.7300000000000028E-002    -1.9606290152296424E-004
   3.8400000000000017E-002    -3.2384914811700583E-004
   3.9500000000000007E-002    -1.8751350580714643E-004
   4.0600000000000025E-002     2.1563869086094201E-004
   4.1700000000000015E-002     6.1987253138795495E-004
   4.2800000000000005E-002     2.5464527425356209E-004
   4.3900000000000022E-002     9.8034310212824494E-005
   4.5000000000000012E-002    -4.2839508387260139E-004
   4.6100000000000002E-002    -2.9321343754418194E-004
   4.7200000000000020E-002     3.0917045660316944E-004
   4.8300000000000010E-002     2.8361161821521819E-004
   4.9400000000000027E-002     1.7496958025731146E-004
   5.0500000000000017E-002    -2.3825613607186824E-004
   5.1600000000000007E-002     9.4051720225252211E-005
   5.2700000000000025E-002     2.0042339747305959E-004
   5.3800000000000014E-002    -2.8893124544993043E-004
   5.4900000000000004E-002    -2.6253590476699173E-004
   5.6000000000000022E-002     9.4982108566910028E-004
   5.7100000000000012E-002     3.5776541335508227E-004
   5.8200000000000002E-002    -9.5025484915822744E-004
   5.9300000000000019E-002    -9.0987910516560078E-004
   6.0400000000000009E-002     4.3848698260262609E-004
   6.1500000000000027E-002     1.1837164638563991E-003
   6.2600000000000017E-002    -1.4896300854161382E-004
   6.3700000000000007E-002    -1.0809010127559304E-003
   6.4800000000000024E-002    -9.9831831175833941E-004
   6.5900000000000014E-002     3.7204672116786242E-004
   6.7000000000000004E-002     1.1723431525751948E-003
   6.8100000000000022E-002     5.2975502330809832E-004
   6.9200000000000012E-002    -5.9223879361525178E-004
   7.0300000000000029E-002    -1.4951296616345644E-003
   7.1400000000000019E-002    -1.5961690805852413E-003
   7.2500000000000009E-002    -4.1210721246898174E-004
   7.3600000000000027E-002     2.0107789896428585E-003
   7.4700000000000016E-002     2.4979286827147007E-003
   7.5800000000000006E-002     5.5601649364689365E-005
   7.6900000000000024E-002    -3.7841789890080690E-003
   7.8000000000000014E-002    -3.2636234536767006E-003
   7.9100000000000004E-002     8.1515137571841478E-004
   8.0200000000000021E-002     3.7405306939035654E-003
   8.1300000000000011E-002     1.6709229676052928E-003
   8.2400000000000029E-002    -8.6885894415900111E-004
   8.3500000000000019E-002    -1.9504819065332413E-003
   8.4600000000000009E-002    -1.9793086685240269E-003
   8.5700000000000026E-002    -7.6832104241475463E-004
   8.6800000000000016E-002     1.3484370429068804E-003
   8.7900000000000006E-002     3.5864554811269045E-003
   8.9000000000000024E-002     3.0526996124535799E-003
   9.0100000000000013E-002    -7.2673492832109332E-004
   9.1200000000000003E-002    -5.8417152613401413E-003
   9.2300000000000021E-002    -4.9102660268545151E-003
   9.3400000000000011E-002     2.1425276063382626E-003
   9.4500000000000028E-002     8.3935633301734924E-003
   9.5600000000000018E-002     5.8404891751706600E-003
   9.6700000000000008E-002    -3.6173572298139334E-003
   9.7800000000000026E-002    -7.8392671421170235E-003
   9.8900000000000016E-002    -4.0669320151209831E-003
  0.10000000000000001          2.7970778755843639E-003
  0.10110000000000002          6.1770551837980747E-003
  0.10220000000000001          4.5800581574440002E-003
  0.10330000000000003          5.1963661098852754E-004
  0.10440000000000002         -3.8561259862035513E-003
  0.10550000000000001         -6.1399480327963829E-003
  0.10660000000000003         -3.0645995866507292E-003
  0.10770000000000002          4.4857701286673546E-003
  0.10880000000000001          7.2231180965900421E-003
  0.10990000000000003          2.8034134302288294E-003
  0.11100000000000002         -4.3382216244935989E-003
  0.11210000000000001         -5.5147940292954445E-003
  0.11320000000000002         -2.8972444124519825E-003
  0.11430000000000001          2.2476878948509693E-003
  0.11540000000000003          4.2736870236694813E-003
  0.11650000000000002          4.4739209115505219E-003
  0.11760000000000001          9.2223408864811063E-004
  0.11870000000000003         -5.4466784931719303E-003
  0.11980000000000002         -7.0563075132668018E-003
  0.12090000000000001         -2.2599720396101475E-003
  0.12200000000000003          5.0870487466454506E-003
  0.12310000000000001          8.3127608522772789E-003
  0.12420000000000003          2.6770392432808876E-003
  0.12530000000000002         -6.2614153139293194E-003
  0.12640000000000001         -8.9398901909589767E-003
  0.12750000000000003         -2.0999247208237648E-003
  0.12860000000000002          5.3701018914580345E-003
  0.12970000000000001          7.5397873297333717E-003
  0.13080000000000003          2.6355092413723469E-003
  0.13190000000000002         -3.8623190484941006E-003
  0.13300000000000001         -6.8003660999238491E-003
  0.13410000000000000         -4.3047862127423286E-003
  0.13520000000000004          1.6339354915544391E-003
  0.13630000000000003          5.9201065450906754E-003
  0.13740000000000002          5.5114985443651676E-003
  0.13850000000000001         -1.3986990961711854E-004
  0.13960000000000000         -6.0265497304499149E-003
  0.14070000000000005         -6.2786149792373180E-003
  0.14180000000000004          6.5345237089786679E-005
  0.14290000000000003          6.4919227734208107E-003
  0.14400000000000002          6.4853695221245289E-003
  0.14510000000000001          4.4680008431896567E-004
  0.14620000000000000         -4.9704168923199177E-003
  0.14730000000000004         -5.6678666733205318E-003
  0.14840000000000003         -2.6914975605905056E-003
  0.14950000000000002          1.2084168847650290E-003
  0.15060000000000001          5.1430696621537209E-003
  0.15170000000000000          6.0276933945715427E-003
  0.15280000000000005          2.5410586968064308E-003
  0.15390000000000004         -5.0645358860492706E-003
  0.15500000000000003         -9.1798659414052963E-003
  0.15610000000000002         -3.5558775998651981E-003
  0.15720000000000001          7.0043690502643585E-003
  0.15830000000000000          1.1091440916061401E-002
  0.15940000000000004          2.7244933880865574E-003
  0.16050000000000003         -9.1920867562294006E-003
  0.16160000000000002         -1.0900119319558144E-002
  0.16270000000000001         -1.1036396026611328E-003
  0.16380000000000000          8.1742806360125542E-003
  0.16490000000000005          8.2106525078415871E-003
  0.16600000000000004          1.7135237576439977E-003
  0.16710000000000003         -3.3665045630186796E-003
  0.16820000000000002         -5.2858400158584118E-003
  0.16930000000000001         -5.5837379768490791E-003
  0.17040000000000000         -2.0914336200803518E-003
  0.17150000000000004          5.7127350009977818E-003
  0.17260000000000003          1.1256419122219086E-002
  0.17370000000000002          5.0697345286607742E-003
  0.17480000000000001         -9.7207464277744293E-003
  0.17590000000000000         -1.5951951965689659E-002
  0.17700000000000005         -3.9971657097339630E-003
  0.17810000000000004          1.3743784278631210E-002
  0.17920000000000003          1.6221778467297554E-002
  0.18030000000000002          3.5313345142640173E-004
  0.18140000000000001         -1.4269994571805000E-002
  0.18250000000000000         -1.1281870305538177E-002
  0.18360000000000004          2.8154540341347456E-003
  0.18470000000000003          9.7737824544310570E-003
  0.18580000000000002          4.4688056223094463E-003
  0.18690000000000001         -2.0997680258005857E-003
  0.18800000000000000         -2.4884012527763844E-003
  0.18910000000000005         -1.3783249305561185E-003
  0.19020000000000004         -3.4562994260340929E-003
  0.19130000000000003         -3.3455190714448690E-003
  0.19240000000000002          4.2336275801062584E-003
  0.19350000000000001          1.0828160680830479E-002
  0.19460000000000005          4.2243464849889278E-003
  0.19570000000000004         -1.0731505230069160E-002
  0.19680000000000003         -1.4255691319704056E-002
  0.19790000000000002          4.3029189691878855E-004
  0.19900000000000001          1.4984854497015476E-002
  0.20010000000000000          1.0378765873610973E-002
  0.20120000000000005         -6.7977048456668854E-003
  0.20230000000000004         -1.3136389665305614E-002
  0.20340000000000003         -1.4705882640555501E-003
  0.20450000000000002          9.8423855379223824E-003
  0.20560000000000000          5.3070136345922947E-003
  0.20670000000000005         -5.8083846233785152E-003
  0.20780000000000004         -5.9373541735112667E-003
  0.20890000000000003          3.6183302290737629E-003
