 -0.12000000000000000          0.0000000000000000     
 -0.11889999999999999          0.0000000000000000     
 -0.11780000000000000          0.0000000000000000     
 -0.11670000000000000          0.0000000000000000     
 -0.11559999999999999          0.0000000000000000     
 -0.11449999999999999          0.0000000000000000     
 -0.11340000000000000          0.0000000000000000     
 -0.11230000000000000          0.0000000000000000     
 -0.11119999999999999          0.0000000000000000     
 -0.11009999999999999          1.6971579707572092E-026
 -0.10900000000000000         -7.0056071505635027E-027
 -0.10790000000000000         -2.3090860955479362E-025
 -0.10679999999999999          2.2889187432464446E-026
 -0.10569999999999999          1.2469662379486947E-024
 -0.10460000000000000         -1.0913017946356298E-024
 -0.10349999999999999         -3.6575575313617473E-024
 -0.10239999999999999          2.3563349391876713E-023
 -0.10130000000000000          3.6152438212665975E-023
 -0.10020000000000000         -1.8533434998390034E-022
  -9.9099999999999994E-002    -4.6807744649288295E-022
  -9.7999999999999990E-002     4.9207578167650758E-022
  -9.6899999999999986E-002     2.9717117818756746E-021
  -9.5799999999999996E-002     1.8880839748500760E-021
  -9.4699999999999993E-002    -8.4873626076956334E-021
  -9.3599999999999989E-002    -1.7632362882939334E-020
  -9.2499999999999999E-002    -4.9069213227052441E-022
  -9.1399999999999995E-002     4.0863730386491116E-020
  -9.0299999999999991E-002     6.1078454206592969E-020
  -8.9200000000000002E-002     3.9369273513549218E-020
  -8.8099999999999984E-002    -1.4612685126851954E-020
  -8.6999999999999994E-002    -2.3015393230553601E-019
  -8.5899999999999990E-002    -7.4741667175909319E-019
  -8.4799999999999986E-002    -8.4795375437243671E-019
  -8.3699999999999997E-002     1.2255017851072720E-018
  -8.2599999999999993E-002     5.3728573702483602E-018
  -8.1499999999999989E-002     5.9504399552762683E-018
  -8.0399999999999999E-002    -4.4514435151326791E-018
  -7.9299999999999995E-002    -2.2165489035995552E-017
  -7.8199999999999992E-002    -2.7035215453019759E-017
  -7.7100000000000002E-002    -4.8058624902659778E-019
  -7.5999999999999984E-002     5.0279763252451961E-017
  -7.4899999999999994E-002     9.5803707821311943E-017
  -7.3799999999999991E-002     1.0239779314123767E-016
  -7.2699999999999987E-002     1.6503927433992709E-017
  -7.1599999999999997E-002    -2.3861802214792337E-016
  -7.0499999999999993E-002    -6.1177944585198945E-016
  -6.9399999999999989E-002    -6.8888331979333152E-016
  -6.8300000000000000E-002     1.5377630371006626E-016
  -6.7199999999999996E-002     1.9150396380300657E-015
  -6.6099999999999992E-002     3.2125297888318865E-015
  -6.5000000000000002E-002     1.9665023952899216E-015
  -6.3899999999999985E-002    -2.4894762070342509E-015
  -6.2799999999999995E-002    -8.0146697926334470E-015
  -6.1699999999999991E-002    -1.0679599769087243E-014
  -6.0599999999999994E-002    -6.8103261609752871E-015
  -5.9499999999999990E-002     5.9611845251987972E-015
  -5.8399999999999994E-002     2.6649638577716864E-014
  -5.7299999999999990E-002     4.4980431055177683E-014
  -5.6199999999999986E-002     3.8077268389117430E-014
  -5.5099999999999996E-002    -1.5542050001040968E-014
  -5.3999999999999992E-002    -1.0472046542637017E-013
  -5.2899999999999989E-002    -1.6861990590703174E-013
  -5.1799999999999985E-002    -1.2895018169575834E-013
  -5.0699999999999995E-002     4.2265507500111044E-014
  -4.9599999999999991E-002     2.8252050763948044E-013
  -4.8499999999999988E-002     4.6462947421790912E-013
  -4.7399999999999998E-002     4.5176172915398216E-013
  -4.6299999999999994E-002     1.3603231225917806E-013
  -4.5199999999999990E-002    -5.0255497463166932E-013
  -4.4099999999999986E-002    -1.2658840989332454E-012
  -4.2999999999999997E-002    -1.6522944037283827E-012
  -4.1899999999999993E-002    -1.0676339369866672E-012
  -4.0799999999999989E-002     6.4501957377713359E-013
  -3.9699999999999985E-002     2.8077902416295819E-012
  -3.8599999999999995E-002     4.1683557647220759E-012
  -3.7499999999999992E-002     3.7067484498498615E-012
  -3.6399999999999988E-002     1.2279802825629349E-012
  -3.5299999999999984E-002    -2.7278969014221666E-012
  -3.4199999999999994E-002    -7.1779249211090246E-012
  -3.3099999999999991E-002    -1.0543280658248388E-011
  -3.1999999999999987E-002    -1.0502397562728305E-011
  -3.0899999999999997E-002    -5.0063841960934496E-012
  -2.9799999999999993E-002     5.6982339853572928E-012
  -2.8699999999999989E-002     1.8144288155275134E-011
  -2.7599999999999986E-002     2.7340638433792641E-011
  -2.6499999999999996E-002     2.9416139663007712E-011
  -2.5399999999999992E-002     2.2096772328561443E-011
  -2.4299999999999988E-002     3.2184129493406655E-012
  -2.3199999999999985E-002    -2.8498280124633624E-011
  -2.2099999999999995E-002    -6.8256754415241261E-011
  -2.0999999999999991E-002    -1.0067705696892304E-010
  -1.9899999999999987E-002    -1.0367683794809679E-010
  -1.8799999999999983E-002    -6.0665646117730176E-011
  -1.7699999999999994E-002     2.8611472566164586E-011
  -1.6599999999999990E-002     1.4657634828108002E-010
  -1.5499999999999986E-002     2.6235119632289639E-010
  -1.4399999999999996E-002     3.3443961489076912E-010
  -1.3299999999999992E-002     3.1365857133813790E-010
  -1.2199999999999989E-002     1.5785223128617076E-010
  -1.1099999999999985E-002    -1.3951316490956600E-010
  -9.9999999999999950E-003    -5.2520832127811445E-010
  -8.8999999999999913E-003    -8.8853741031513778E-010
  -7.7999999999999875E-003    -1.0903887792679257E-009
  -6.6999999999999837E-003    -9.9944763576331752E-010
  -5.5999999999999939E-003    -5.2417087337275348E-010
  -4.4999999999999901E-003     3.4973360318879543E-010
  -3.3999999999999864E-003     1.5106541573217669E-009
  -2.2999999999999826E-003     2.6881152859203894E-009
  -1.1999999999999927E-003     3.4795744063842449E-009
  -9.9999999999988987E-005     3.4512053215252081E-009
   1.0000000000000148E-003     2.2790149767359935E-009
   2.1000000000000185E-003    -1.1752862572045331E-010
   3.2000000000000084E-003    -3.4762075440397666E-009
   4.3000000000000121E-003    -7.1451897731833469E-009
   5.4000000000000159E-003    -1.0127554794792104E-008
   6.5000000000000058E-003    -1.1259880139391498E-008
   7.6000000000000234E-003    -9.5144399026025894E-009
   8.7000000000000133E-003    -4.3435601781993682E-009
   9.8000000000000032E-003     4.0328682615609068E-009
   1.0900000000000021E-002     1.4460045605346750E-008
   1.2000000000000011E-002     2.4846297463909650E-008
   1.3100000000000001E-002     3.2394662952128783E-008
   1.4200000000000018E-002     3.4123811332165133E-008
   1.5300000000000008E-002     2.7623677567589766E-008
   1.6400000000000026E-002     1.1853062531486103E-008
   1.7500000000000016E-002    -1.2250453984563592E-008
   1.8600000000000005E-002    -4.1506552861392265E-008
   1.9700000000000023E-002    -7.0672136587290879E-008
   2.0800000000000013E-002    -9.3167400905258546E-008
   2.1900000000000003E-002    -1.0240422199103705E-007
   2.3000000000000020E-002    -9.3554206159751629E-008
   2.4100000000000010E-002    -6.5310892694014910E-008
   2.5200000000000000E-002    -2.1097122271385160E-008
   2.6300000000000018E-002     3.0675135320734626E-008
   2.7400000000000008E-002     7.7451986157939245E-008
   2.8500000000000025E-002     1.0452933452143043E-007
   2.9600000000000015E-002     9.8108699830845580E-008
   3.0700000000000005E-002     4.9042668592846894E-008
   3.1800000000000023E-002    -4.3496410029320032E-008
   3.2900000000000013E-002    -1.6942296099387022E-007
   3.4000000000000002E-002    -3.0704686082572152E-007
   3.5100000000000020E-002    -4.2468778360671422E-007
   3.6200000000000010E-002    -4.8456104195793159E-007
   3.7300000000000028E-002    -4.4849028313365125E-007
   3.8400000000000017E-002    -2.8448914690670790E-007
   3.9500000000000007E-002     2.7165233618120510E-008
   4.0600000000000025E-002     4.8987180889525916E-007
   4.1700000000000015E-002     1.0898006621573586E-006
   4.2800000000000005E-002     1.7984858686759253E-006
   4.3900000000000022E-002     2.5787319373193895E-006
   4.5000000000000012E-002     3.3933733902813401E-006
   4.6100000000000002E-002     4.2158021642535459E-006
   4.7200000000000020E-002     5.0404182729835156E-006
   4.8300000000000010E-002     5.8909508879878558E-006
   4.9400000000000027E-002     6.8251129050622694E-006
   5.0500000000000017E-002     7.9349529187311418E-006
   5.1600000000000007E-002     9.3430307970265858E-006
   5.2700000000000025E-002     1.1194733815500513E-005
   5.3800000000000014E-002     1.3647908417624421E-005
   5.4900000000000004E-002     1.6863275959622115E-005
   5.6000000000000022E-002     2.0997418687329628E-005
   5.7100000000000012E-002     2.6199373678537086E-005
   5.8200000000000002E-002     3.2613166695227847E-005
   5.9300000000000019E-002     4.0386712498730049E-005
   6.0400000000000009E-002     4.9683781981002539E-005
   6.1500000000000027E-002     6.0699087043758482E-005
   6.2600000000000017E-002     7.3680421337485313E-005
   6.3700000000000007E-002     8.8941444118972868E-005
   6.4800000000000024E-002     1.0686503082979470E-004
   6.5900000000000014E-002     1.2790628534276038E-004
   6.7000000000000004E-002     1.5258711937349290E-004
   6.8100000000000022E-002     1.8148975505027920E-004
   6.9200000000000012E-002     2.1524740441236645E-004
   7.0300000000000029E-002     2.5452679255977273E-004
   7.1400000000000019E-002     3.0002321000210941E-004
   7.2500000000000009E-002     3.5246452898718417E-004
   7.3600000000000027E-002     4.1261658770963550E-004
   7.4700000000000016E-002     4.8128922935575247E-004
   7.5800000000000006E-002     5.5934570264071226E-004
   7.6900000000000024E-002     6.4770353492349386E-004
   7.8000000000000014E-002     7.4732833309099078E-004
   7.9100000000000004E-002     8.5921434219926596E-004
   8.0200000000000021E-002     9.8434428218752146E-004
   8.1300000000000011E-002     1.1236564023420215E-003
   8.2400000000000029E-002     1.2780538527294993E-003
   8.3500000000000019E-002     1.4483868144452572E-003
   8.4600000000000009E-002     1.6353277023881674E-003
   8.5700000000000026E-002     1.8393459031358361E-003
   8.6800000000000016E-002     2.0607027690857649E-003
   8.7900000000000006E-002     2.2995176259428263E-003
   8.9000000000000024E-002     2.5557002518326044E-003
   9.0100000000000013E-002     2.8287516906857491E-003
   9.1200000000000003E-002     3.1178013887256384E-003
   9.2300000000000021E-002     3.4215692430734634E-003
   9.3400000000000011E-002     3.7384158931672573E-003
   9.4500000000000028E-002     4.0661240927875042E-003
   9.5600000000000018E-002     4.4018179178237915E-003
   9.6700000000000008E-002     4.7422605566680431E-003
   9.7800000000000026E-002     5.0834538415074348E-003
   9.8900000000000016E-002     5.4205628111958504E-003
  0.10000000000000001          5.7480931282043457E-003
  0.10110000000000002          6.0599558055400848E-003
  0.10220000000000001          6.3495463691651821E-003
  0.10330000000000003          6.6094174981117249E-003
  0.10440000000000002          6.8313539959490299E-003
  0.10550000000000001          7.0065697655081749E-003
  0.10660000000000003          7.1259988471865654E-003
  0.10770000000000002          7.1805464103817940E-003
  0.10880000000000001          7.1607572026550770E-003
  0.10990000000000003          7.0567331276834011E-003
  0.11100000000000002          6.8590021692216396E-003
  0.11210000000000001          6.5585225820541382E-003
  0.11320000000000002          6.1465674079954624E-003
  0.11430000000000001          5.6148278526961803E-003
  0.11540000000000003          4.9561378546059132E-003
  0.11650000000000002          4.1649225167930126E-003
  0.11760000000000001          3.2364781945943832E-003
  0.11870000000000003          2.1678484044969082E-003
  0.11980000000000002          9.5875101396813989E-004
  0.12090000000000001         -3.8922624662518501E-004
  0.12200000000000003         -1.8722658278420568E-003
  0.12310000000000001         -3.4837282728403807E-003
  0.12420000000000003         -5.2144885994493961E-003
  0.12530000000000002         -7.0517519488930702E-003
  0.12640000000000001         -8.9806197211146355E-003
  0.12750000000000003         -1.0983615182340145E-002
  0.12860000000000002         -1.3039799407124519E-002
  0.12970000000000001         -1.5126289799809456E-002
  0.13080000000000003         -1.7216898500919342E-002
  0.13190000000000002         -1.9283918663859367E-002
  0.13300000000000001         -2.1297855302691460E-002
  0.13410000000000000         -2.3226730525493622E-002
  0.13520000000000004         -2.5038214400410652E-002
  0.13630000000000003         -2.6699502021074295E-002
  0.13740000000000002         -2.8178134933114052E-002
  0.13850000000000001         -2.9442768543958664E-002
  0.13960000000000000         -3.0462326481938362E-002
  0.14070000000000005         -3.1207341700792313E-002
  0.14180000000000004         -3.1651925295591354E-002
  0.14290000000000003         -3.1773887574672699E-002
  0.14400000000000002         -3.1555119901895523E-002
  0.14510000000000001         -3.0980870127677917E-002
  0.14620000000000000         -3.0040729790925980E-002
  0.14730000000000004         -2.8730012476444244E-002
  0.14840000000000003         -2.7050230652093887E-002
  0.14950000000000002         -2.5009421631693840E-002
  0.15060000000000001         -2.2621084004640579E-002
  0.15170000000000000         -1.9904008135199547E-002
  0.15280000000000005         -1.6882868483662605E-002
  0.15390000000000004         -1.3587977737188339E-002
  0.15500000000000003         -1.0054763406515121E-002
  0.15610000000000002         -6.3237878493964672E-003
  0.15720000000000001         -2.4404134601354599E-003
  0.15830000000000000          1.5467898920178413E-003
  0.15940000000000004          5.5880029685795307E-003
  0.16050000000000003          9.6319904550909996E-003
  0.16160000000000002          1.3625391758978367E-002
  0.16270000000000001          1.7514754086732864E-002
  0.16380000000000000          2.1248109638690948E-002
  0.16490000000000005          2.4774992838501930E-002
  0.16600000000000004          2.8048042207956314E-002
  0.16710000000000003          3.1024826690554619E-002
  0.16820000000000002          3.3666878938674927E-002
  0.16930000000000001          3.5940390080213547E-002
  0.17040000000000000          3.7817362695932388E-002
  0.17150000000000004          3.9275366812944412E-002
  0.17260000000000003          4.0299240499734879E-002
  0.17370000000000002          4.0881726890802383E-002
  0.17480000000000001          4.1021920740604401E-002
  0.17590000000000000          4.0725886821746826E-002
  0.17700000000000005          4.0005192160606384E-002
  0.17810000000000004          3.8877237588167191E-002
  0.17920000000000003          3.7366088479757309E-002
  0.18030000000000002          3.5501979291439056E-002
  0.18140000000000001          3.3319480717182159E-002
  0.18250000000000000          3.0856201425194740E-002
  0.18360000000000004          2.8152808547019958E-002
  0.18470000000000003          2.5251828134059906E-002
  0.18580000000000002          2.2197626531124115E-002
  0.18690000000000001          1.9035734236240387E-002
  0.18800000000000000          1.5811523422598839E-002
  0.18910000000000005          1.2569588609039783E-002
  0.19020000000000004          9.3520190566778183E-003
  0.19130000000000003          6.1980122700333595E-003
  0.19240000000000002          3.1437831930816174E-003
  0.19350000000000001          2.2244878346100450E-004
  0.19460000000000005         -2.5350803043693304E-003
  0.19570000000000004         -5.1024830900132656E-003
  0.19680000000000003         -7.4591962620615959E-003
  0.19790000000000002         -9.5892529934644699E-003
  0.19900000000000001         -1.1480849236249924E-002
  0.20010000000000000         -1.3125845231115818E-002
  0.20120000000000005         -1.4519591815769672E-002
  0.20230000000000004         -1.5661772340536118E-002
  0.20340000000000003         -1.6556438058614731E-002
  0.20450000000000002         -1.7211778089404106E-002
  0.20560000000000000         -1.7639327794313431E-002
  0.20670000000000005         -1.7852414399385452E-002
  0.20780000000000004         -1.7865400761365891E-002
  0.20890000000000003         -1.7693625763058662E-002
