 -0.12000000000000000          0.0000000000000000     
 -0.11889999999999999          0.0000000000000000     
 -0.11780000000000000        -0.13998456299304962     
 -0.11670000000000000          5.2324306219816208E-002
 -0.11559999999999999         0.56046313047409058     
 -0.11449999999999999          9.9298350512981415E-002
 -0.11340000000000000         -1.1527040004730225     
 -0.11230000000000000        -0.55342352390289307     
 -0.11119999999999999          1.6516840457916260     
 -0.11009999999999999         0.39463430643081665     
 -0.10900000000000000         -4.3418359756469727     
 -0.10790000000000000         -2.0974051952362061     
 -0.10679999999999999          11.097191810607910     
 -0.10569999999999999          16.248785018920898     
 -0.10460000000000000         -6.1147122383117676     
 -0.10349999999999999         -35.920665740966797     
 -0.10239999999999999         -27.007156372070312     
 -0.10130000000000000          23.177341461181641     
 -0.10020000000000000          51.184921264648438     
  -9.9099999999999994E-002     11.960783004760742     
  -9.7999999999999990E-002    -41.176090240478516     
  -9.6899999999999986E-002    -21.417091369628906     
  -9.5799999999999996E-002     52.184215545654297     
  -9.4699999999999993E-002     60.060810089111328     
  -9.3599999999999989E-002    -39.851200103759766     
  -9.2499999999999999E-002    -121.23018646240234     
  -9.1399999999999995E-002    -59.311130523681641     
  -9.0299999999999991E-002     63.293613433837891     
  -8.9200000000000002E-002     46.400791168212891     
  -8.8099999999999984E-002    -131.76907348632812     
  -8.6999999999999994E-002    -251.61836242675781     
  -8.5899999999999990E-002    -156.15908813476562     
  -8.4799999999999986E-002     7.4956245422363281     
  -8.3699999999999997E-002    -11.777169227600098     
  -8.2599999999999993E-002    -203.33807373046875     
  -8.1499999999999989E-002    -316.56823730468750     
  -8.0399999999999999E-002    -248.55586242675781     
  -7.9299999999999995E-002    -199.41047668457031     
  -7.8199999999999992E-002    -342.73760986328125     
  -7.7100000000000002E-002    -533.17437744140625     
  -7.5999999999999984E-002    -544.72491455078125     
  -7.4899999999999994E-002    -482.41293334960938     
  -7.3799999999999991E-002    -672.41412353515625     
  -7.2699999999999987E-002    -1133.3608398437500     
  -7.1599999999999997E-002    -1465.3068847656250     
  -7.0499999999999993E-002    -1426.3989257812500     
  -6.9399999999999989E-002    -1365.6353759765625     
  -6.8300000000000000E-002    -1785.9820556640625     
  -6.7199999999999996E-002    -2607.5107421875000     
  -6.6099999999999992E-002    -3242.5869140625000     
  -6.5000000000000002E-002    -3441.0407714843750     
  -6.3899999999999985E-002    -3677.5524902343750     
  -6.2799999999999995E-002    -4480.3779296875000     
  -6.1699999999999991E-002    -5683.8583984375000     
  -6.0599999999999994E-002    -6721.7485351562500     
  -5.9499999999999990E-002    -7509.2749023437500     
  -5.8399999999999994E-002    -8558.7773437500000     
  -5.7299999999999990E-002    -10166.261718750000     
  -5.6199999999999986E-002    -11959.650390625000     
  -5.5099999999999996E-002    -13540.277343750000     
  -5.3999999999999992E-002    -15197.669921875000     
  -5.2899999999999989E-002    -17512.636718750000     
  -5.1799999999999985E-002    -20418.521484375000     
  -5.0699999999999995E-002    -23236.503906250000     
  -4.9599999999999991E-002    -25736.750000000000     
  -4.8499999999999988E-002    -28607.183593750000     
  -4.7399999999999998E-002    -32494.179687500000     
  -4.6299999999999994E-002    -37001.707031250000     
  -4.5199999999999990E-002    -41208.015625000000     
  -4.4099999999999986E-002    -45017.769531250000     
  -4.2999999999999997E-002    -49331.207031250000     
  -4.1899999999999993E-002    -54721.125000000000     
  -4.0799999999999989E-002    -60584.457031250000     
  -3.9699999999999985E-002    -66015.546875000000     
  -3.8599999999999995E-002    -71088.625000000000     
  -3.7499999999999992E-002    -76621.554687500000     
  -3.6399999999999988E-002    -82815.414062500000     
  -3.5299999999999984E-002    -88902.906250000000     
  -3.4199999999999994E-002    -94294.609375000000     
  -3.3099999999999991E-002    -99410.007812500000     
  -3.1999999999999987E-002    -104822.27343750000     
  -3.0899999999999997E-002    -110094.98437500000     
  -2.9799999999999993E-002    -114197.16406250000     
  -2.8699999999999989E-002    -116947.75000000000     
  -2.7599999999999986E-002    -119202.37500000000     
  -2.6499999999999996E-002    -121383.17187500000     
  -2.5399999999999992E-002    -122517.95312500000     
  -2.4299999999999988E-002    -121366.92968750000     
  -2.3199999999999985E-002    -117993.64843750000     
  -2.2099999999999995E-002    -113438.45312500000     
  -2.0999999999999991E-002    -107980.67187500000     
  -1.9899999999999987E-002    -100529.65625000000     
  -1.8799999999999983E-002    -90098.625000000000     
  -1.7699999999999994E-002    -77041.367187500000     
  -1.6599999999999990E-002    -62189.906250000000     
  -1.5499999999999986E-002    -45423.179687500000     
  -1.4399999999999996E-002    -25818.957031250000     
  -1.3299999999999992E-002    -3105.6706542968750     
  -1.2199999999999989E-002     21820.488281250000     
  -1.1099999999999985E-002     48238.039062500000     
  -9.9999999999999950E-003     76719.320312500000     
  -8.8999999999999913E-003     108085.17187500000     
  -7.7999999999999875E-003     141872.78125000000     
  -6.6999999999999837E-003     176625.60937500000     
  -5.5999999999999939E-003     211532.09375000000     
  -4.4999999999999901E-003     247216.92187500000     
  -3.3999999999999864E-003     284176.00000000000     
  -2.2999999999999826E-003     321476.06250000000     
  -1.1999999999999927E-003     357548.96875000000     
  -9.9999999999988987E-005     391730.37500000000     
   1.0000000000000148E-003     424416.84375000000     
   2.1000000000000185E-003     455487.31250000000     
   3.2000000000000084E-003     483636.87500000000     
   4.3000000000000121E-003     507504.06250000000     
   5.4000000000000159E-003     527039.68750000000     
   6.5000000000000058E-003     542672.37500000000     
   7.6000000000000234E-003     553828.37500000000     
   8.7000000000000133E-003     559017.43750000000     
   9.8000000000000032E-003     557377.00000000000     
   1.0900000000000021E-002     549461.81250000000     
   1.2000000000000011E-002     535901.87500000000     
   1.3100000000000001E-002     516224.00000000000     
   1.4200000000000018E-002     489409.84375000000     
   1.5300000000000008E-002     455369.90625000000     
   1.6400000000000026E-002     415130.62500000000     
   1.7500000000000016E-002     369432.90625000000     
   1.8600000000000005E-002     318106.87500000000     
   1.9700000000000023E-002     260971.84375000000     
   2.0800000000000013E-002     198944.87500000000     
   2.1900000000000003E-002     133507.40625000000     
   2.3000000000000020E-002     65439.285156250000     
   2.4100000000000010E-002    -5229.6030273437500     
   2.5200000000000000E-002    -78039.851562500000     
   2.6300000000000018E-002    -151431.26562500000     
   2.7400000000000008E-002    -223729.59375000000     
   2.8500000000000025E-002    -294192.53125000000     
   2.9600000000000015E-002    -362616.43750000000     
   3.0700000000000005E-002    -428262.09375000000     
   3.1800000000000023E-002    -489625.06250000000     
   3.2900000000000013E-002    -545478.25000000000     
   3.4000000000000002E-002    -595498.50000000000     
   3.5100000000000020E-002    -639483.50000000000     
   3.6200000000000010E-002    -676641.56250000000     
   3.7300000000000028E-002    -706002.50000000000     
   3.8400000000000017E-002    -727217.12500000000     
   3.9500000000000007E-002    -740591.00000000000     
   4.0600000000000025E-002    -746385.06250000000     
   4.1700000000000015E-002    -744216.31250000000     
   4.2800000000000005E-002    -733767.50000000000     
   4.3900000000000022E-002    -715426.25000000000     
   4.5000000000000012E-002    -690005.56250000000     
   4.6100000000000002E-002    -658183.68750000000     
   4.7200000000000020E-002    -620270.18750000000     
   4.8300000000000010E-002    -576704.31250000000     
   4.9400000000000027E-002    -528339.56250000000     
   5.0500000000000017E-002    -476118.68750000000     
   5.1600000000000007E-002    -420754.21875000000     
   5.2700000000000025E-002    -362981.25000000000     
   5.3800000000000014E-002    -303670.46875000000     
   5.4900000000000004E-002    -243772.18750000000     
   5.6000000000000022E-002    -184078.26562500000     
   5.7100000000000012E-002    -125229.16406250000     
   5.8200000000000002E-002    -67967.187500000000     
   5.9300000000000019E-002    -12938.446289062500     
   6.0400000000000009E-002     39322.050781250000     
   6.1500000000000027E-002     88331.015625000000     
   6.2600000000000017E-002     133502.42187500000     
   6.3700000000000007E-002     174401.87500000000     
   6.4800000000000024E-002     210851.12500000000     
   6.5900000000000014E-002     242916.50000000000     
   6.7000000000000004E-002     270522.18750000000     
   6.8100000000000022E-002     293357.43750000000     
   6.9200000000000012E-002     311291.03125000000     
   7.0300000000000029E-002     324661.53125000000     
   7.1400000000000019E-002     333947.96875000000     
   7.2500000000000009E-002     339221.93750000000     
   7.3600000000000027E-002     340339.68750000000     
   7.4700000000000016E-002     337598.84375000000     
   7.5800000000000006E-002     331831.96875000000     
   7.6900000000000024E-002     323650.03125000000     
   7.8000000000000014E-002     312950.03125000000     
   7.9100000000000004E-002     299540.40625000000     
   8.0200000000000021E-002     283987.81250000000     
   8.1300000000000011E-002     267369.00000000000     
   8.2400000000000029E-002     250214.64062500000     
   8.3500000000000019E-002     232203.23437500000     
   8.4600000000000009E-002     213143.87500000000     
   8.5700000000000026E-002     193729.76562500000     
   8.6800000000000016E-002     174873.65625000000     
   8.7900000000000006E-002     156647.62500000000     
   8.9000000000000024E-002     138491.45312500000     
   9.0100000000000013E-002     120458.28125000000     
   9.1200000000000003E-002     103498.75781250000     
   9.2300000000000021E-002     88218.265625000000     
   9.3400000000000011E-002     74024.453125000000     
   9.4500000000000028E-002     60043.628906250000     
   9.5600000000000018E-002     46562.414062500000     
   9.6700000000000008E-002     34770.843750000000     
   9.7800000000000026E-002     25034.548828125000     
   9.8900000000000016E-002     16335.804687500000     
  0.10000000000000001          7756.6235351562500     
  0.10110000000000002         -193.80738830566406     
  0.10220000000000001         -6465.0649414062500     
  0.10330000000000003         -11155.311523437500     
  0.10440000000000002         -15429.116210937500     
  0.10550000000000001         -19735.453125000000     
  0.10660000000000003         -23154.990234375000     
  0.10770000000000002         -24949.835937500000     
  0.10880000000000001         -25917.939453125000     
  0.10990000000000003         -27348.765625000000     
  0.11100000000000002         -29110.033203125000     
  0.11210000000000001         -29822.263671875000     
  0.11320000000000002         -29013.115234375000     
  0.11430000000000001         -27949.742187500000     
  0.11540000000000003         -27860.101562500000     
  0.11650000000000002         -28163.996093750000     
  0.11760000000000001         -27442.486328125000     
  0.11870000000000003         -25642.490234375000     
  0.11980000000000002         -24172.429687500000     
  0.12090000000000001         -23736.849609375000     
  0.12200000000000003         -23289.177734375000     
  0.12310000000000001         -21718.675781250000     
  0.12420000000000003         -19666.230468750000     
  0.12530000000000002         -18589.087890625000     
  0.12640000000000001         -18494.220703125000     
  0.12750000000000003         -17866.718750000000     
  0.12860000000000002         -15987.744140625000     
  0.12970000000000001         -14084.260742187500     
  0.13080000000000003         -13502.293945312500     
  0.13190000000000002         -13666.865234375000     
  0.13300000000000001         -12963.249023437500     
  0.13410000000000000         -11195.841796875000     
  0.13520000000000004         -9867.5361328125000     
  0.13630000000000003         -9851.5664062500000     
  0.13740000000000002         -10046.115234375000     
  0.13850000000000001         -9085.5253906250000     
  0.13960000000000000         -7472.2792968750000     
  0.14070000000000005         -6812.7675781250000     
  0.14180000000000004         -7331.2680664062500     
  0.14290000000000003         -7497.5502929687500     
  0.14400000000000002         -6354.2890625000000     
  0.14510000000000001         -4978.6025390625000     
  0.14620000000000000         -4833.0771484375000     
  0.14730000000000004         -5544.3735351562500     
  0.14840000000000003         -5507.3647460937500     
  0.14950000000000002         -4351.8154296875000     
  0.15060000000000001         -3469.9118652343750     
  0.15170000000000000         -3825.7482910156250     
  0.15280000000000005         -4462.4833984375000     
  0.15390000000000004         -4004.3479003906250     
  0.15500000000000003         -2812.0971679687500     
  0.15610000000000002         -2446.3657226562500     
  0.15720000000000001         -3250.2802734375000     
  0.15830000000000000         -3787.9978027343750     
  0.15940000000000004         -3014.4406738281250     
  0.16050000000000003         -1863.5078125000000     
  0.16160000000000002         -1832.8850097656250     
  0.16270000000000001         -2738.8925781250000     
  0.16380000000000000         -3041.4072265625000     
  0.16490000000000005         -2184.0478515625000     
  0.16600000000000004         -1372.8718261718750     
  0.16710000000000003         -1672.7202148437500     
  0.16820000000000002         -2401.8398437500000     
  0.16930000000000001         -2255.1101074218750     
  0.17040000000000000         -1342.0670166015625     
  0.17150000000000004         -988.02673339843750     
  0.17260000000000003         -1648.8541259765625     
  0.17370000000000002         -2195.7788085937500     
  0.17480000000000001         -1660.8884277343750     
  0.17590000000000000         -735.14324951171875     
  0.17700000000000005         -715.45330810546875     
  0.17810000000000004         -1531.3110351562500     
  0.17920000000000003         -1871.6400146484375     
  0.18030000000000002         -1174.3031005859375     
  0.18140000000000001         -442.94790649414062     
  0.18250000000000000         -693.28979492187500     
  0.18360000000000004         -1435.4645996093750     
  0.18470000000000003         -1476.5295410156250     
  0.18580000000000002         -738.87829589843750     
  0.18690000000000001         -325.10244750976562     
  0.18800000000000000         -802.17852783203125     
  0.18910000000000005         -1371.7071533203125     
  0.19020000000000004         -1134.4477539062500     
  0.19130000000000003         -452.08697509765625     
  0.19240000000000002         -341.17675781250000     
  0.19350000000000001         -906.52813720703125     
  0.19460000000000005         -1222.8319091796875     
  0.19570000000000004         -783.48327636718750     
  0.19680000000000003         -256.27639770507812     
  0.19790000000000002         -423.14080810546875     
  0.19900000000000001         -982.87066650390625     
  0.20010000000000000         -1037.8192138671875     
  0.20120000000000005         -471.99664306640625     
  0.20230000000000004         -107.38208770751953     
  0.20340000000000003         -446.00576782226562     
  0.20450000000000002         -937.57830810546875     
  0.20560000000000000         -837.15661621093750     
  0.20670000000000005         -302.98095703125000     
  0.20780000000000004         -103.11399841308594     
  0.20890000000000003         -452.58514404296875     
