 -0.12000000000000000          0.0000000000000000     
 -0.11889999999999999          0.0000000000000000     
 -0.11780000000000000          0.0000000000000000     
 -0.11670000000000000          0.0000000000000000     
 -0.11559999999999999          0.0000000000000000     
 -0.11449999999999999          0.0000000000000000     
 -0.11340000000000000          0.0000000000000000     
 -0.11230000000000000          0.0000000000000000     
 -0.11119999999999999          0.0000000000000000     
 -0.11009999999999999          3.0857417645648911E-023
 -0.10900000000000000         -7.4452300959750105E-023
 -0.10790000000000000         -3.3264408972320988E-022
 -0.10679999999999999          7.9409459974125699E-022
 -0.10569999999999999          1.4314999666889990E-021
 -0.10460000000000000         -5.6828964059205241E-021
 -0.10349999999999999          1.0169769617652498E-021
 -0.10239999999999999          4.8475582092523324E-020
 -0.10130000000000000         -2.5586332936031779E-020
 -0.10020000000000000         -3.7711691453933034E-019
  -9.9099999999999994E-002    -1.3696138635105082E-019
  -9.7999999999999990E-002     1.8826945070339680E-018
  -9.6899999999999986E-002     2.6257345144732548E-018
  -9.5799999999999996E-002    -4.5959668573967190E-018
  -9.4699999999999993E-002    -1.4268481754735503E-017
  -9.3599999999999989E-002    -2.3587934046350422E-018
  -9.2499999999999999E-002     3.3525468099374151E-017
  -9.1399999999999995E-002     4.1664389313859009E-017
  -9.0299999999999991E-002    -4.9103434666423976E-018
  -8.9200000000000002E-002    -3.4560889776776179E-017
  -8.8099999999999984E-002    -6.3588119926584913E-017
  -8.6999999999999994E-002    -3.2830504697676090E-016
  -8.5899999999999990E-002    -6.1217268089775226E-016
  -8.4799999999999986E-002     4.2937788868259072E-016
  -8.3699999999999997E-002     3.3405412428757185E-015
  -8.2599999999999993E-002     4.2001047720352253E-015
  -8.1499999999999989E-002    -3.1499539593040542E-015
  -8.0399999999999999E-002    -1.5762563170397363E-014
  -7.9299999999999995E-002    -1.6444792305236183E-014
  -7.8199999999999992E-002     7.5907433550598258E-015
  -7.7100000000000002E-002     4.0690398912714837E-014
  -7.5999999999999984E-002     5.1601142114646517E-014
  -7.4899999999999994E-002     3.1169667270413565E-014
  -7.3799999999999991E-002    -1.9180420733665507E-014
  -7.2699999999999987E-002    -1.3699024553615047E-013
  -7.1599999999999997E-002    -3.2686781883603522E-013
  -7.0499999999999993E-002    -3.5160752347856983E-013
  -6.9399999999999989E-002     2.1141880021842419E-013
  -6.8300000000000000E-002     1.3206896513906496E-012
  -6.7199999999999996E-002     1.8816070663368878E-012
  -6.6099999999999992E-002     4.7746577741883400E-013
  -6.5000000000000002E-002    -2.7429699137049290E-012
  -6.3899999999999985E-002    -5.3588088827494218E-012
  -6.2799999999999995E-002    -4.6869977517183248E-012
  -6.1699999999999991E-002    -1.5832917388183126E-013
  -6.0599999999999994E-002     7.1933708989391221E-012
  -5.9499999999999990E-002     1.6027556018483047E-011
  -5.8399999999999994E-002     2.1587813134327227E-011
  -5.7299999999999990E-002     1.1740897316869781E-011
  -5.6199999999999986E-002    -2.4292099581879611E-011
  -5.5099999999999996E-002    -7.3197573002836691E-011
  -5.3999999999999992E-002    -8.8944990261907719E-011
  -5.2899999999999989E-002    -2.7235831645544550E-011
  -5.1799999999999985E-002     9.9362615357811990E-011
  -5.0699999999999995E-002     2.1193864718771493E-010
  -4.9599999999999991E-002     2.2488859385827453E-010
  -4.8499999999999988E-002     1.0621858254067362E-010
  -4.7399999999999998E-002    -1.2961444417758372E-010
  -4.6299999999999994E-002    -4.4443904112512200E-010
  -4.5199999999999990E-002    -7.1662875633649037E-010
  -4.4099999999999986E-002    -6.7124250602290658E-010
  -4.2999999999999997E-002    -3.1321556459573685E-011
  -4.1899999999999993E-002     1.0943405071017764E-009
  -4.0799999999999989E-002     2.0195749517171180E-009
  -3.9699999999999985E-002     1.9127355255221801E-009
  -3.8599999999999995E-002     5.6102011924963335E-010
  -3.7499999999999992E-002    -1.4003067594359209E-009
  -3.6399999999999988E-002    -3.1065445771361055E-009
  -3.5299999999999984E-002    -4.0859595706876917E-009
  -3.4199999999999994E-002    -4.0050003313751859E-009
  -3.3099999999999991E-002    -2.1138284456156953E-009
  -3.1999999999999987E-002     2.1881612077834234E-009
  -3.0899999999999997E-002     7.8045916396263237E-009
  -2.9799999999999993E-002     1.1658351617427343E-008
  -2.8699999999999989E-002     1.0970837571733227E-008
  -2.7599999999999986E-002     5.7498001915234909E-009
  -2.6499999999999996E-002    -1.9761561276254724E-009
  -2.5399999999999992E-002    -1.1331787952428840E-008
  -2.4299999999999988E-002    -2.2992503900809425E-008
  -2.3199999999999985E-002    -3.4674219051566979E-008
  -2.2099999999999995E-002    -3.7613926195945169E-008
  -2.0999999999999991E-002    -2.1332079214175792E-008
  -1.9899999999999987E-002     1.5877937187269708E-008
  -1.8799999999999983E-002     6.2324232885657693E-008
  -1.7699999999999994E-002     9.9997805591556244E-008
  -1.6599999999999990E-002     1.1448376824318984E-007
  -1.5499999999999986E-002     9.6015916994929285E-008
  -1.4399999999999996E-002     3.5053933089557177E-008
  -1.3299999999999992E-002    -7.2837636366784864E-008
  -1.2199999999999989E-002    -2.1044670006631350E-007
  -1.1099999999999985E-002    -3.3021774470398668E-007
  -9.9999999999999950E-003    -3.7104601346982236E-007
  -8.8999999999999913E-003    -2.8955241759831551E-007
  -7.7999999999999875E-003    -7.7450224011954560E-008
  -6.6999999999999837E-003     2.4279790977743687E-007
  -5.5999999999999939E-003     6.2134159861670923E-007
  -4.4999999999999901E-003     9.6757582923601149E-007
  -3.3999999999999864E-003     1.1431885695856181E-006
  -2.2999999999999826E-003     9.9764974947902374E-007
  -1.1999999999999927E-003     4.4136601218269789E-007
  -9.9999999999988987E-005    -4.9294578730041394E-007
   1.0000000000000148E-003    -1.6383088450311334E-006
   2.1000000000000185E-003    -2.7190435503143817E-006
   3.2000000000000084E-003    -3.3876458473969251E-006
   4.3000000000000121E-003    -3.2832315355335595E-006
   5.4000000000000159E-003    -2.1392522739915876E-006
   6.5000000000000058E-003     8.0479388486764947E-008
   7.6000000000000234E-003     3.0930484626878751E-006
   8.7000000000000133E-003     6.3085540205065627E-006
   9.8000000000000032E-003     8.9213181126979180E-006
   1.0900000000000021E-002     1.0037181709776632E-005
   1.2000000000000011E-002     8.8469105321564712E-006
   1.3100000000000001E-002     4.8773922571854200E-006
   1.4200000000000018E-002    -1.7334862150164554E-006
   1.5300000000000008E-002    -1.0084941095556132E-005
   1.6400000000000026E-002    -1.8588902094052173E-005
   1.7500000000000016E-002    -2.5235682187485509E-005
   1.8600000000000005E-002    -2.7957235943176784E-005
   1.9700000000000023E-002    -2.5071081836358644E-005
   2.0800000000000013E-002    -1.5829393305466510E-005
   2.1900000000000003E-002    -9.6481130640313495E-007
   2.3000000000000020E-002     1.7055752323358320E-005
   2.4100000000000010E-002     3.4295695513719693E-005
   2.5200000000000000E-002     4.6092995034996420E-005
   2.6300000000000018E-002     4.8038378736237064E-005
   2.7400000000000008E-002     3.7010489904787391E-005
   2.8500000000000025E-002     1.2221089491504245E-005
   2.9600000000000015E-002    -2.3894868718343787E-005
   3.0700000000000005E-002    -6.5315849496982992E-005
   3.1800000000000023E-002    -1.0293712693965062E-004
   3.2900000000000013E-002    -1.2602063361555338E-004
   3.4000000000000002E-002    -1.2420490384101868E-004
   3.5100000000000020E-002    -8.9687957370188087E-005
   3.6200000000000010E-002    -1.9172553948010318E-005
   3.7300000000000028E-002     8.4756422438658774E-005
   3.8400000000000017E-002     2.1342917170841247E-004
   3.9500000000000007E-002     3.5321727045811713E-004
   4.0600000000000025E-002     4.8806759878061712E-004
   4.1700000000000015E-002     6.0271116672083735E-004
   4.2800000000000005E-002     6.8580947117879987E-004
   4.3900000000000022E-002     7.3282403172925115E-004
   4.5000000000000012E-002     7.4834330007433891E-004
   4.6100000000000002E-002     7.4698467506095767E-004
   4.7200000000000020E-002     7.5230910442769527E-004
   4.8300000000000010E-002     7.9410744365304708E-004
   4.9400000000000027E-002     9.0437207836657763E-004
   5.0500000000000017E-002     1.1135244276374578E-003
   5.1600000000000007E-002     1.4466390712186694E-003
   5.2700000000000025E-002     1.9200830720365047E-003
   5.3800000000000014E-002     2.5402233004570007E-003
   5.4900000000000004E-002     3.3058696426451206E-003
   5.6000000000000022E-002     4.2107487097382545E-003
   5.7100000000000012E-002     5.2473382093012333E-003
   5.8200000000000002E-002     6.4140139147639275E-003
   5.9300000000000019E-002     7.7196634374558926E-003
   6.0400000000000009E-002     9.1840075328946114E-003
   6.1500000000000027E-002     1.0843791067600250E-002
   6.2600000000000017E-002     1.2758714146912098E-002
   6.3700000000000007E-002     1.4988672919571400E-002
   6.4800000000000024E-002     1.7599659040570259E-002
   6.5900000000000014E-002     2.0656974986195564E-002
   6.7000000000000004E-002     2.4217233061790466E-002
   6.8100000000000022E-002     2.8333172202110291E-002
   6.9200000000000012E-002     3.3044472336769104E-002
   7.0300000000000029E-002     3.8372870534658432E-002
   7.1400000000000019E-002     4.4347923249006271E-002
   7.2500000000000009E-002     5.0999898463487625E-002
   7.3600000000000027E-002     5.8366980403661728E-002
   7.4700000000000016E-002     6.6491916775703430E-002
   7.5800000000000006E-002     7.5428977608680725E-002
   7.6900000000000024E-002     8.5221990942955017E-002
   7.8000000000000014E-002     9.5914125442504883E-002
   7.9100000000000004E-002    0.10751378536224365     
   8.0200000000000021E-002    0.11999399214982986     
   8.1300000000000011E-002    0.13330028951168060     
   8.2400000000000029E-002    0.14742285013198853     
   8.3500000000000019E-002    0.16227370500564575     
   8.4600000000000009E-002    0.17761865258216858     
   8.5700000000000026E-002    0.19332434237003326     
   8.6800000000000016E-002    0.20914579927921295     
   8.7900000000000006E-002    0.22506567835807800     
   8.9000000000000024E-002    0.24072301387786865     
   9.0100000000000013E-002    0.25573235750198364     
   9.1200000000000003E-002    0.26981118321418762     
   9.2300000000000021E-002    0.28249862790107727     
   9.3400000000000011E-002    0.29358747601509094     
   9.4500000000000028E-002    0.30224680900573730     
   9.5600000000000018E-002    0.30810564756393433     
   9.6700000000000008E-002    0.31088563799858093     
   9.7800000000000026E-002    0.30946338176727295     
   9.8900000000000016E-002    0.30345162749290466     
  0.10000000000000001         0.29205307364463806     
  0.10110000000000002         0.27497708797454834     
  0.10220000000000001         0.25155556201934814     
  0.10330000000000003         0.22093886137008667     
  0.10440000000000002         0.18257588148117065     
  0.10550000000000001         0.13598266243934631     
  0.10660000000000003          8.1165730953216553E-002
  0.10770000000000002          1.8016565591096878E-002
  0.10880000000000001         -5.4001189768314362E-002
  0.10990000000000003        -0.13512852787971497     
  0.11100000000000002        -0.22437572479248047     
  0.11210000000000001        -0.32195073366165161     
  0.11320000000000002        -0.42705219984054565     
  0.11430000000000001        -0.53975057601928711     
  0.11540000000000003        -0.65787148475646973     
  0.11650000000000002        -0.78069120645523071     
  0.11760000000000001        -0.90737968683242798     
  0.11870000000000003         -1.0355710983276367     
  0.11980000000000002         -1.1627727746963501     
  0.12090000000000001         -1.2880738973617554     
  0.12200000000000003         -1.4083378314971924     
  0.12310000000000001         -1.5215728282928467     
  0.12420000000000003         -1.6252467632293701     
  0.12530000000000002         -1.7152268886566162     
  0.12640000000000001         -1.7917950153350830     
  0.12750000000000003         -1.8500065803527832     
  0.12860000000000002         -1.8885104656219482     
  0.12970000000000001         -1.9051189422607422     
  0.13080000000000003         -1.8959941864013672     
  0.13190000000000002         -1.8622176647186279     
  0.13300000000000001         -1.7994817495346069     
  0.13410000000000000         -1.7075587511062622     
  0.13520000000000004         -1.5860416889190674     
  0.13630000000000003         -1.4344704151153564     
  0.13740000000000002         -1.2539653778076172     
  0.13850000000000001         -1.0453554391860962     
  0.13960000000000000        -0.80837106704711914     
  0.14070000000000005        -0.54618614912033081     
  0.14180000000000004        -0.26215255260467529     
  0.14290000000000003          4.0374040603637695E-002
  0.14400000000000002         0.35736015439033508     
  0.14510000000000001         0.68671423196792603     
  0.14620000000000000          1.0225899219512939     
  0.14730000000000004          1.3605031967163086     
  0.14840000000000003          1.6936190128326416     
  0.14950000000000002          2.0169112682342529     
  0.15060000000000001          2.3255445957183838     
  0.15170000000000000          2.6145775318145752     
  0.15280000000000005          2.8783922195434570     
  0.15390000000000004          3.1123428344726562     
  0.15500000000000003          3.3117346763610840     
  0.15610000000000002          3.4718458652496338     
  0.15720000000000001          3.5888097286224365     
  0.15830000000000000          3.6605956554412842     
  0.15940000000000004          3.6870748996734619     
  0.16050000000000003          3.6656210422515869     
  0.16160000000000002          3.5951282978057861     
  0.16270000000000001          3.4764349460601807     
  0.16380000000000000          3.3115186691284180     
  0.16490000000000005          3.1010167598724365     
  0.16600000000000004          2.8499922752380371     
  0.16710000000000003          2.5623435974121094     
  0.16820000000000002          2.2413997650146484     
  0.16930000000000001          1.8922606706619263     
  0.17040000000000000          1.5204162597656250     
  0.17150000000000004          1.1305073499679565     
  0.17260000000000003         0.73110353946685791     
  0.17370000000000002         0.32797393202781677     
  0.17480000000000001         -7.3070183396339417E-002
  0.17590000000000000        -0.46517428755760193     
  0.17700000000000005        -0.84518831968307495     
  0.17810000000000004         -1.2056483030319214     
  0.17920000000000003         -1.5419106483459473     
  0.18030000000000002         -1.8474009037017822     
  0.18140000000000001         -2.1207842826843262     
  0.18250000000000000         -2.3579254150390625     
  0.18360000000000004         -2.5573456287384033     
  0.18470000000000003         -2.7171933650970459     
  0.18580000000000002         -2.8359084129333496     
  0.18690000000000001         -2.9130241870880127     
  0.18800000000000000         -2.9491903781890869     
  0.18910000000000005         -2.9452278614044189     
  0.19020000000000004         -2.9049038887023926     
  0.19130000000000003         -2.8296775817871094     
  0.19240000000000002         -2.7234852313995361     
  0.19350000000000001         -2.5880355834960938     
  0.19460000000000005         -2.4256386756896973     
  0.19570000000000004         -2.2423405647277832     
  0.19680000000000003         -2.0425775051116943     
  0.19790000000000002         -1.8302209377288818     
  0.19900000000000001         -1.6090055704116821     
  0.20010000000000000         -1.3818882703781128     
  0.20120000000000005         -1.1522125005722046     
  0.20230000000000004        -0.92447215318679810     
  0.20340000000000003        -0.70215749740600586     
  0.20450000000000002        -0.48934447765350342     
  0.20560000000000000        -0.28799951076507568     
  0.20670000000000005         -9.9439255893230438E-002
  0.20780000000000004          7.5801998376846313E-002
  0.20890000000000003         0.23648969829082489     
