 -0.12000000000000000          0.0000000000000000
 -0.11889999999999999          0.0000000000000000
 -0.11780000000000000          0.0000000000000000
 -0.11670000000000000          0.0000000000000000
 -0.11559999999999999          0.0000000000000000
 -0.11449999999999999          0.0000000000000000
 -0.11340000000000000          0.0000000000000000
 -0.11230000000000000          0.0000000000000000
 -0.11119999999999999          0.0000000000000000
 -0.11009999999999999          0.0000000000000000
 -0.10900000000000000          0.0000000000000000
 -0.10790000000000000          1.9595432523687732E-030
 -0.10679999999999999         -4.4594351148161897E-030
 -0.10569999999999999         -3.0723129613204489E-029
 -0.10460000000000000          6.4259019724875773E-029
 -0.10349999999999999          2.9027127417081031E-028
 -0.10239999999999999         -4.6664916625813291E-028
 -0.10130000000000000         -2.0752632781941167E-027
 -0.10020000000000000          2.0507583233607168E-027
  -9.9099999999999994E-002     1.1726681593698710E-026
  -9.7999999999999990E-002    -4.6992417160996452E-027
  -9.6899999999999986E-002    -5.2944319535222521E-026
  -9.5799999999999996E-002    -4.7411068108587572E-027
  -9.4699999999999993E-002     1.9614073612258371E-025
  -9.3599999999999989E-002     9.7820391598974126E-026
  -9.2499999999999999E-002    -6.3135866251781476E-025
  -9.1399999999999995E-002    -5.6938505955036000E-025
  -9.0299999999999991E-002     1.8606479573908973E-024
  -8.9200000000000002E-002     2.6774771371456149E-024
  -8.8099999999999984E-002    -4.7387876429975810E-024
  -8.6999999999999994E-002    -1.1244332624016202E-023
  -8.5899999999999990E-002     7.5621768319078529E-024
  -8.4799999999999986E-002     3.8791127453532325E-023
  -8.3699999999999997E-002     7.0800321463849175E-024
  -8.2599999999999993E-002    -9.9121496078949168E-023
  -8.1499999999999989E-002    -9.3908532823293194E-023
  -8.0399999999999999E-002     1.6725516002739829E-022
  -7.9299999999999995E-002     3.3376215175051048E-022
  -7.8199999999999992E-002    -1.3471365056684735E-022
  -7.7100000000000002E-002    -7.7046002409824787E-022
  -7.5999999999999984E-002    -1.3723642774174415E-022
  -7.4899999999999994E-002     1.5122207583500270E-021
  -7.3799999999999991E-002     9.2447268339478414E-022
  -7.2699999999999987E-002    -3.0605373683422667E-021
  -7.1599999999999997E-002    -3.8644638255352190E-021
  -7.0499999999999993E-002     5.0087514768319091E-021
  -6.9399999999999989E-002     1.3157930499931900E-020
  -6.8300000000000000E-002    -6.3035701466644988E-022
  -6.7199999999999996E-002    -2.9442999534162049E-020
  -6.6099999999999992E-002    -2.4788638404259426E-020
  -6.5000000000000002E-002     3.5229354101169222E-020
  -6.3899999999999985E-002     7.4170539029502374E-020
  -6.2799999999999995E-002    -1.9726882340841984E-021
  -6.1699999999999991E-002    -1.1983139351856967E-019
  -6.0599999999999994E-002    -6.7404718606701453E-020
  -5.9499999999999990E-002     1.5570332155285054E-019
  -5.8399999999999994E-002     1.7527896433922422E-019
  -5.7299999999999990E-002    -2.2764374933916728E-019
  -5.6199999999999986E-002    -4.9464268427207623E-019
  -5.5099999999999996E-002     1.4486657051946111E-019
  -5.3999999999999992E-002     1.1741719193759065E-018
  -5.2899999999999989E-002     7.8316891709849530E-019
  -5.1799999999999985E-002    -1.4747709049413253E-018
  -5.0699999999999995E-002    -2.7673838176989792E-018
  -4.9599999999999991E-002    -1.2247837147873936E-019
  -4.8499999999999988E-002     4.1183109990876669E-018
  -4.7399999999999998E-002     3.5007073480729119E-018
  -4.6299999999999994E-002    -3.0219401726108948E-018
  -4.5199999999999990E-002    -6.4421450626992273E-018
  -4.4099999999999986E-002     6.6799461505208453E-019
  -4.2999999999999997E-002     9.3954730850406861E-018
  -4.1899999999999993E-002     2.9375727132141613E-018
  -4.0799999999999989E-002    -1.5047727250791083E-017
  -3.9699999999999985E-002    -1.5278513950415827E-017
  -3.8599999999999995E-002     1.5952983787001765E-017
  -3.7499999999999992E-002     4.0582288180129389E-017
  -3.6399999999999988E-002     8.1810925364740364E-018
  -3.5299999999999984E-002    -5.9321760555052812E-017
  -3.4199999999999994E-002    -6.6170637355979570E-017
  -3.3099999999999991E-002     3.0271528166770202E-017
  -3.1999999999999987E-002     1.2269192831639735E-016
  -3.0899999999999997E-002     6.5908136551669542E-017
  -2.9799999999999993E-002    -1.0320047597276932E-016
  -2.8699999999999989E-002    -1.6215757560913936E-016
  -2.7599999999999986E-002    -6.8095027969740804E-019
  -2.6499999999999996E-002     1.6911437631894714E-016
  -2.5399999999999992E-002     7.0322058327036203E-017
  -2.4299999999999988E-002    -1.8748747385695857E-016
  -2.3199999999999985E-002    -1.6166527741321720E-016
  -2.2099999999999995E-002     2.7199736713772881E-016
  -2.0999999999999991E-002     5.5430672513356828E-016
  -1.9899999999999987E-002     9.0517309023048850E-017
  -1.8799999999999983E-002    -7.8516825482524721E-016
  -1.7699999999999994E-002    -9.7998821497390044E-016
  -1.6599999999999990E-002    -4.5222867369502931E-017
  -1.5499999999999986E-002     1.0112277429807047E-015
  -1.4399999999999996E-002     8.9497554146448577E-016
  -1.3299999999999992E-002    -1.5430065680908608E-016
  -1.2199999999999989E-002    -5.3297737673052093E-016
  -1.1099999999999985E-002     4.2858728930544724E-016
  -9.9999999999999950E-003     1.1796190575651621E-015
  -8.8999999999999913E-003    -8.5591924931328401E-017
  -7.7999999999999875E-003    -2.5306208324471285E-015
  -6.6999999999999837E-003    -3.1043215415783865E-015
  -5.5999999999999939E-003    -3.7276339762819537E-016
  -4.4999999999999901E-003     3.1980620425763094E-015
  -3.3999999999999864E-003     3.9520655729919068E-015
  -2.2999999999999826E-003     1.4800025634081914E-015
  -1.1999999999999927E-003    -1.1469848898107036E-015
  -9.9999999999988987E-005    -1.6272581824971675E-015
   1.0000000000000148E-003    -1.1452413783678990E-015
   2.1000000000000185E-003    -1.7981819138356784E-015
   3.2000000000000084E-003    -2.7317085717076675E-015
   4.3000000000000121E-003    -9.9973392940293747E-016
   5.4000000000000159E-003     3.7863880460913338E-015
   6.5000000000000058E-003     7.7373681463613342E-015
   7.6000000000000234E-003     6.4901845528463672E-015
   8.7000000000000133E-003    -5.4025778373084925E-016
   9.8000000000000032E-003    -1.0287893617794228E-014
   1.0900000000000021E-002    -1.8466688749452405E-014
   1.2000000000000011E-002    -2.0115538331170676E-014
   1.3100000000000001E-002    -9.9517172524573108E-015
   1.4200000000000018E-002     1.2984147719670436E-014
   1.5300000000000008E-002     3.9883068093764240E-014
   1.6400000000000026E-002     5.4843201377843820E-014
   1.7500000000000016E-002     4.6519489920338747E-014
   1.8600000000000005E-002     1.6284352406564957E-014
   1.9700000000000023E-002    -2.6374305436014170E-014
   2.0800000000000013E-002    -7.2541012910085079E-014
   2.1900000000000003E-002    -1.1173101831761512E-013
   2.3000000000000020E-002    -1.2283822234133296E-013
   2.4100000000000010E-002    -8.0260444286755356E-014
   2.5200000000000000E-002     1.9619781805603996E-014
   2.6300000000000018E-002     1.3874143533262190E-013
   2.7400000000000008E-002     2.1437502651950463E-013
   2.8500000000000025E-002     2.0268449462193527E-013
   2.9600000000000015E-002     1.0831547654242477E-013
   3.0700000000000005E-002    -2.6151596757258491E-014
   3.1800000000000023E-002    -1.4922800137522757E-013
   3.2900000000000013E-002    -2.1395541317369843E-013
   3.4000000000000002E-002    -1.7827505151366690E-013
   3.5100000000000020E-002    -3.1925356184635961E-014
   3.6200000000000010E-002     1.7897079760027801E-013
   3.7300000000000028E-002     3.4123577444603037E-013
   3.8400000000000017E-002     3.1572571705489050E-013
   3.9500000000000007E-002     1.9052269730943615E-014
   4.0600000000000025E-002    -5.1250486059889466E-013
   4.1700000000000015E-002    -1.1335408523285850E-012
   4.2800000000000005E-002    -1.6243166750876115E-012
   4.3900000000000022E-002    -1.7684930126229959E-012
   4.5000000000000012E-002    -1.4477967436032912E-012
   4.6100000000000002E-002    -7.1015469980256762E-013
   4.7200000000000020E-002     2.1107898415251292E-013
   4.8300000000000010E-002     8.7027227872044088E-013
   4.9400000000000027E-002     8.7160102269293049E-013
   5.0500000000000017E-002    -3.4955033794770510E-014
   5.1600000000000007E-002    -1.7883591742900995E-012
   5.2700000000000025E-002    -3.9781056053456165E-012
   5.3800000000000014E-002    -5.8765279968564510E-012
   5.4900000000000004E-002    -6.8792762285274645E-012
   5.6000000000000022E-002    -6.6385998261087042E-012
   5.7100000000000012E-002    -5.5787948045893376E-012
   5.8200000000000002E-002    -4.1986093421431114E-012
   5.9300000000000019E-002    -3.0050890161698041E-012
   6.0400000000000009E-002    -3.7230015077771572E-012
   6.1500000000000027E-002    -6.8706785052996544E-012
   6.2600000000000017E-002    -1.2617957026450632E-011
   6.3700000000000007E-002    -2.0013593213241698E-011
   6.4800000000000024E-002    -2.7507988942243600E-011
   6.5900000000000014E-002    -3.2210838163404532E-011
   6.7000000000000004E-002    -3.4655851105513946E-011
   6.8100000000000022E-002    -3.3136937638289510E-011
   6.9200000000000012E-002    -2.9512690902233629E-011
   7.0300000000000029E-002    -2.7576500111203828E-011
   7.1400000000000019E-002    -3.2847922298850918E-011
   7.2500000000000009E-002    -4.3968943069794264E-011
   7.3600000000000027E-002    -6.0116925326703097E-011
   7.4700000000000016E-002    -7.9605974590002404E-011
   7.5800000000000006E-002    -1.0271496153624327E-010
   7.6900000000000024E-002    -1.1865571025726496E-010
   7.8000000000000014E-002    -1.3061554615667603E-010
   7.9100000000000004E-002    -1.3580020441494867E-010
   8.0200000000000021E-002    -1.3238177221097658E-010
   8.1300000000000011E-002    -1.2919577907499757E-010
   8.2400000000000029E-002    -1.3669783360814591E-010
   8.3500000000000019E-002    -1.5867676617098425E-010
   8.4600000000000009E-002    -1.9246340632328440E-010
   8.5700000000000026E-002    -2.2299782853618666E-010
   8.6800000000000016E-002    -2.7142890712816836E-010
   8.7900000000000006E-002    -3.2547800565829732E-010
   8.9000000000000024E-002    -3.6418471016652632E-010
   9.0100000000000013E-002    -3.7492134397076882E-010
   9.1200000000000003E-002    -3.5508801454753325E-010
   9.2300000000000021E-002    -3.4873440246663279E-010
   9.3400000000000011E-002    -3.9213632341272842E-010
   9.4500000000000028E-002    -4.0169231829700891E-010
   9.5600000000000018E-002    -3.8627928633516717E-010
   9.6700000000000008E-002    -3.9922407046866226E-010
   9.7800000000000026E-002    -4.3464637444756704E-010
   9.8900000000000016E-002    -5.1407916812351573E-010
  0.10000000000000001         -5.7470550540728027E-010
  0.10110000000000002         -5.3818072220934710E-010
  0.10220000000000001         -4.6641307482886418E-010
  0.10330000000000003         -4.4050274539131351E-010
  0.10440000000000002         -4.6995418667705735E-010
  0.10550000000000001         -4.0128333989031262E-010
  0.10660000000000003         -4.5987716412732027E-010
  0.10770000000000002         -2.4976720691682885E-010
  0.10880000000000001         -1.6031753702350215E-010
  0.10990000000000003         -2.1747345591016654E-010
  0.11100000000000002         -2.8172730814901570E-010
  0.11210000000000001         -2.8631561010961093E-010
  0.11320000000000002         -9.1591796647083612E-011
  0.11430000000000001         -5.1986880078569442E-011
  0.11540000000000003          3.3473318561405563E-010
  0.11650000000000002          6.2676691614527158E-010
  0.11760000000000001          7.6238276802698124E-010
  0.11870000000000003          6.9221034459943098E-010
  0.11980000000000002          8.7443957630384261E-010
  0.12090000000000001          9.6484376044259079E-010
  0.12200000000000003          1.3531460396620787E-009
  0.12310000000000001          1.1422756074352947E-009
  0.12420000000000003          1.2236381907726468E-009
  0.12530000000000002          1.1286303003288367E-009
  0.12640000000000001          1.5630523542142782E-009
  0.12750000000000003          1.9856549737795604E-009
  0.12860000000000002          2.1159149987681758E-009
  0.12970000000000001          2.5585609186862257E-009
  0.13080000000000003          2.5842947781740122E-009
  0.13190000000000002          2.1468609112673676E-009
  0.13300000000000001          2.3264736803696451E-009
  0.13410000000000000          1.7824588471881953E-009
  0.13520000000000004          2.1699162466859434E-009
  0.13630000000000003          1.8941159751761916E-009
  0.13740000000000002          1.5989732871091178E-009
  0.13850000000000001          1.2637219048983184E-009
  0.13960000000000000          1.3724081870947202E-009
  0.14070000000000005          1.6958983106718506E-009
  0.14180000000000004          2.2454027526208620E-009
  0.14290000000000003          1.5864736191417705E-009
  0.14400000000000002          1.1341385608432120E-009
  0.14510000000000001          2.1947872685945669E-010
  0.14620000000000000         -1.2493238388255890E-010
  0.14730000000000004          1.1808137800883856E-011
  0.14840000000000003         -2.8470259483270866E-010
  0.14950000000000002         -5.4354520884203339E-010
  0.15060000000000001         -9.6215468925464620E-010
  0.15170000000000000         -1.2926557602099820E-009
  0.15280000000000005         -1.6677951242272115E-009
  0.15390000000000004         -2.3323818432174903E-009
  0.15500000000000003         -2.9589770633720036E-009
  0.15610000000000002         -3.6480218845724721E-009
  0.15720000000000001         -3.6445906292925656E-009
  0.15830000000000000         -2.9225253328490908E-009
  0.15940000000000004         -2.3736896892501136E-009
  0.16050000000000003         -2.1632604596533156E-009
  0.16160000000000002         -2.8396993645429802E-009
  0.16270000000000001         -3.8963499093824794E-009
  0.16380000000000000         -4.4382320041336243E-009
  0.16490000000000005         -4.1858334576261313E-009
  0.16600000000000004         -3.5277147869550163E-009
  0.16710000000000003         -2.7579036832037218E-009
  0.16820000000000002         -2.7997546503399917E-009
  0.16930000000000001         -3.5359135619472681E-009
  0.17040000000000000         -3.5663612063530081E-009
  0.17150000000000004         -2.5131983161230664E-009
  0.17260000000000003         -1.1047478487569151E-009
  0.17370000000000002         -1.9958260738528466E-011
  0.17480000000000001         -6.4920441245064353E-010
  0.17590000000000000         -1.9882213653232839E-009
  0.17700000000000005         -1.6373218336696027E-009
  0.17810000000000004         -7.8191225716395252E-010
  0.17920000000000003          1.1473468841671774E-009
  0.18030000000000002          2.2620407769124995E-009
  0.18140000000000001          6.7783234580787166E-010
  0.18250000000000000         -9.6648633540752371E-010
  0.18360000000000004         -1.1191815252331594E-009
  0.18470000000000003          3.4533667592206996E-010
  0.18580000000000002          2.8444953059647560E-009
  0.18690000000000001          4.8375867756078605E-009
  0.18800000000000000          3.6228910982316620E-009
  0.18910000000000005          1.1115274256567886E-009
  0.19020000000000004          5.7711682655003926E-011
  0.19130000000000003          2.1433309294049963E-010
  0.19240000000000002          2.2491222217979612E-009
  0.19350000000000001          4.1842662668045705E-009
  0.19460000000000005          3.5392320185678727E-009
  0.19570000000000004          1.7849548505921575E-009
  0.19680000000000003          6.4143307332287236E-010
  0.19790000000000002          1.0460138311074729E-009
  0.19900000000000001          2.4147690513842690E-009
  0.20010000000000000          3.1572844338967343E-009
  0.20120000000000005          2.3860757814020417E-009
  0.20230000000000004          4.8790843587553923E-010
  0.20340000000000003         -8.6421947376180697E-010
  0.20450000000000002         -6.0177501870484207E-010
  0.20560000000000000          9.9816865883894934E-010
  0.20670000000000005          2.1687274198711748E-009
  0.20780000000000004          1.8020298586662875E-009
  0.20890000000000003          2.1621171519825566E-010
