 -0.12000000000000000          0.0000000000000000
 -0.11889999999999999          0.0000000000000000
 -0.11780000000000000          0.0000000000000000
 -0.11670000000000000          0.0000000000000000
 -0.11559999999999999          0.0000000000000000
 -0.11449999999999999          0.0000000000000000
 -0.11340000000000000         -1.0370384665327475E-019
 -0.11230000000000000         -4.6409876227256865E-020
 -0.11119999999999999          8.2720842650112477E-019
 -0.11009999999999999          8.0862028226977456E-019
 -0.10900000000000000         -2.4883402283185032E-018
 -0.10790000000000000         -2.5798934056964849E-018
 -0.10679999999999999          4.4458095879805804E-018
 -0.10569999999999999         -8.2915699519060062E-018
 -0.10460000000000000         -4.1711803306570549E-017
 -0.10349999999999999          3.4793552522030194E-017
 -0.10239999999999999          2.8669153588801880E-016
 -0.10130000000000000          2.5638893219999620E-016
 -0.10020000000000000         -6.8406153180152721E-016
  -9.9099999999999994E-002    -1.7783005682559623E-015
  -9.7999999999999990E-002    -6.4952386925635152E-016
  -9.6899999999999986E-002     3.2767259923878163E-015
  -9.5799999999999996E-002     5.7871662648666111E-015
  -9.4699999999999993E-002     2.2170111188909601E-015
  -9.3599999999999989E-002    -5.0691186477872484E-015
  -9.2499999999999999E-002    -9.9055200755140613E-015
  -9.1399999999999995E-002    -1.3656571601111840E-014
  -9.0299999999999991E-002    -1.9275620460673312E-014
  -8.9200000000000002E-002    -7.1703193987231011E-015
  -8.8099999999999984E-002     5.4147827985729508E-014
  -8.6999999999999994E-002     1.3642907604419913E-013
  -8.5899999999999990E-002     1.1752887075014429E-013
  -8.4799999999999986E-002    -9.3426372053170142E-014
  -8.3699999999999997E-002    -3.7053083583142576E-013
  -8.2599999999999993E-002    -4.1808898465674205E-013
  -8.1499999999999989E-002    -1.0171621574531220E-013
  -8.0399999999999999E-002     3.5628268456149026E-013
  -7.9299999999999995E-002     6.6289031555588629E-013
  -7.8199999999999992E-002     8.2279587873893001E-013
  -7.7100000000000002E-002     9.0005504134807457E-013
  -7.5999999999999984E-002     4.4932571660778742E-013
  -7.4899999999999994E-002    -1.1745863613341068E-012
  -7.3799999999999991E-002    -3.4557834024950829E-012
  -7.2699999999999987E-002    -4.2359778879008658E-012
  -7.1599999999999997E-002    -1.7172206582052874E-012
  -7.0499999999999993E-002     2.9525650587641783E-012
  -6.9399999999999989E-002     6.3249388365660408E-012
  -6.8300000000000000E-002     6.5535099048885659E-012
  -6.7199999999999996E-002     5.3395517174426033E-012
  -6.6099999999999992E-002     4.4603648031993348E-012
  -6.5000000000000002E-002     1.5831603606200617E-012
  -6.3899999999999985E-002    -7.2067816124510298E-012
  -6.2799999999999995E-002    -1.9912894250184721E-011
  -6.1699999999999991E-002    -2.7178292602569876E-011
  -6.0599999999999994E-002    -2.1546889272805458E-011
  -5.9499999999999990E-002    -6.1066100093265518E-012
  -5.8399999999999994E-002     1.0584709324301667E-011
  -5.7299999999999990E-002     2.7202143315641081E-011
  -5.6199999999999986E-002     5.0021015107759581E-011
  -5.5099999999999996E-002     7.6653031144680028E-011
  -5.3999999999999992E-002     8.5816131978333487E-011
  -5.2899999999999989E-002     5.3101415625755877E-011
  -5.1799999999999985E-002    -2.2090562018517446E-011
  -5.0699999999999995E-002    -1.1234462665710154E-010
  -4.9599999999999991E-002    -1.8649702615558539E-010
  -4.8499999999999988E-002    -2.2949642186631536E-010
  -4.7399999999999998E-002    -2.3298971085772280E-010
  -4.6299999999999994E-002    -1.7724323397860786E-010
  -4.5199999999999990E-002    -3.9997262446522797E-011
  -4.4099999999999986E-002     1.7328671830796338E-010
  -4.2999999999999997E-002     4.1959857810525136E-010
  -4.1899999999999993E-002     6.4424421353237449E-010
  -4.0799999999999989E-002     8.0668860480415105E-010
  -3.9699999999999985E-002     8.7561818906678468E-010
  -3.8599999999999995E-002     8.1776585503234855E-010
  -3.7499999999999992E-002     6.2022093016977919E-010
  -3.6399999999999988E-002     3.2891575574289789E-010
  -3.5299999999999984E-002     4.5457668879089752E-011
  -3.4199999999999994E-002    -1.2486542355638619E-010
  -3.3099999999999991E-002    -1.0975938907753502E-010
  -3.1999999999999987E-002     1.4636107603660520E-010
  -3.0899999999999997E-002     6.9390398982349666E-010
  -2.9799999999999993E-002     1.5184227208919765E-009
  -2.8699999999999989E-002     2.4584221325341105E-009
  -2.7599999999999986E-002     3.2189673149218834E-009
  -2.6499999999999996E-002     3.4917926328148496E-009
  -2.5399999999999992E-002     3.0425157948599235E-009
  -2.4299999999999988E-002     1.6652181855647541E-009
  -2.3199999999999985E-002    -8.9581508877500937E-010
  -2.2099999999999995E-002    -4.8898289861654121E-009
  -2.0999999999999991E-002    -1.0389092253149101E-008
  -1.9899999999999987E-002    -1.7221781334342268E-008
  -1.8799999999999983E-002    -2.5130828973374264E-008
  -1.7699999999999994E-002    -3.4010270155704347E-008
  -1.6599999999999990E-002    -4.3996237764076795E-008
  -1.5499999999999986E-002    -5.5407831212050951E-008
  -1.4399999999999996E-002    -6.8721305979124736E-008
  -1.3299999999999992E-002    -8.4655980003844888E-008
  -1.2199999999999989E-002    -1.0424349028426150E-007
  -1.1099999999999985E-002    -1.2877208632744441E-007
  -9.9999999999999950E-003    -1.5969121136549802E-007
  -8.8999999999999913E-003    -1.9860854649778048E-007
  -7.7999999999999875E-003    -2.4732568704166624E-007
  -6.6999999999999837E-003    -3.0777457027397759E-007
  -5.5999999999999939E-003    -3.8194144735825830E-007
  -4.4999999999999901E-003    -4.7200072117448144E-007
  -3.3999999999999864E-003    -5.8066626706931856E-007
  -2.2999999999999826E-003    -7.1144285129776108E-007
  -1.1999999999999927E-003    -8.6851889591343934E-007
  -9.9999999999988987E-005    -1.0565518095972948E-006
   1.0000000000000148E-003    -1.2807651046387036E-006
   2.1000000000000185E-003    -1.5473518715225509E-006
   3.2000000000000084E-003    -1.8637236962604220E-006
   4.3000000000000121E-003    -2.2382862425729400E-006
   5.4000000000000159E-003    -2.6801319563674042E-006
   6.5000000000000058E-003    -3.1991316973289941E-006
   7.6000000000000234E-003    -3.8063851661718218E-006
   8.7000000000000133E-003    -4.5144984142098110E-006
   9.8000000000000032E-003    -5.3374506023828872E-006
   1.0900000000000021E-002    -6.2903254729462788E-006
   1.2000000000000011E-002    -7.3894175329769496E-006
   1.3100000000000001E-002    -8.6524987636948936E-006
   1.4200000000000018E-002    -1.0098967322846875E-005
   1.5300000000000008E-002    -1.1749682926165406E-005
   1.6400000000000026E-002    -1.3626899999508169E-005
   1.7500000000000016E-002    -1.5754319974803366E-005
   1.8600000000000005E-002    -1.8156690202886239E-005
   1.9700000000000023E-002    -2.0859397409367375E-005
   2.0800000000000013E-002    -2.3887847419246100E-005
   2.1900000000000003E-002    -2.7267624318483286E-005
   2.3000000000000020E-002    -3.1024512281874195E-005
   2.4100000000000010E-002    -3.5183686122763902E-005
   2.5200000000000000E-002    -3.9768834540154785E-005
   2.6300000000000018E-002    -4.4801174226449803E-005
   2.7400000000000008E-002    -5.0299822760280222E-005
   2.8500000000000025E-002    -5.6281376600963995E-005
   2.9600000000000015E-002    -6.2759012507740408E-005
   3.0700000000000005E-002    -6.9741035986226052E-005
   3.1800000000000023E-002    -7.7229749877005816E-005
   3.2900000000000013E-002    -8.5220170149113983E-005
   3.4000000000000002E-002    -9.3699862190987915E-005
   3.5100000000000020E-002    -1.0264720185659826E-004
   3.6200000000000010E-002    -1.1203032045159489E-004
   3.7300000000000028E-002    -1.2180625344626606E-004
   3.8400000000000017E-002    -1.3192144979257137E-004
   3.9500000000000007E-002    -1.4230971282813698E-004
   4.0600000000000025E-002    -1.5289218572434038E-004
   4.1700000000000015E-002    -1.6357591084670275E-004
   4.2800000000000005E-002    -1.7425412079319358E-004
   4.3900000000000022E-002    -1.8480602011550218E-004
   4.5000000000000012E-002    -1.9509738194756210E-004
   4.6100000000000002E-002    -2.0498056255746633E-004
   4.7200000000000020E-002    -2.1429495245683938E-004
   4.8300000000000010E-002    -2.2286669991444796E-004
   4.9400000000000027E-002    -2.3051170865073800E-004
   5.0500000000000017E-002    -2.3703648184891790E-004
   5.1600000000000007E-002    -2.4224143999163061E-004
   5.2700000000000025E-002    -2.4592477711848915E-004
   5.3800000000000014E-002    -2.4788445443846285E-004
   5.4900000000000004E-002    -2.4791600299067795E-004
   5.6000000000000022E-002    -2.4582011974416673E-004
   5.7100000000000012E-002    -2.4140726600307971E-004
   5.8200000000000002E-002    -2.3450296430382878E-004
   5.9300000000000019E-002    -2.2494964650832117E-004
   6.0400000000000009E-002    -2.1261097572278231E-004
   6.1500000000000027E-002    -1.9737347611226141E-004
   6.2600000000000017E-002    -1.7915436183102429E-004
   6.3700000000000007E-002    -1.5790236648172140E-004
   6.4800000000000024E-002    -1.3360148295760155E-004
   6.5900000000000014E-002    -1.0628004383761436E-004
   6.7000000000000004E-002    -7.6010735938325524E-005
   6.8100000000000022E-002    -4.2911844502668828E-005
   6.9200000000000012E-002    -7.1419653977500275E-006
   7.0300000000000029E-002     3.1097137252800167E-005
   7.1400000000000019E-002     7.1551388828083873E-005
   7.2500000000000009E-002     1.1391416774131358E-004
   7.3600000000000027E-002     1.5783398703206331E-004
   7.4700000000000016E-002     2.0292284898459911E-004
   7.5800000000000006E-002     2.4876042152754962E-004
   7.6900000000000024E-002     2.9489150620065629E-004
   7.8000000000000014E-002     3.4082579077221453E-004
   7.9100000000000004E-002     3.8604915607720613E-004
   8.0200000000000021E-002     4.3003709288313985E-004
   8.1300000000000011E-002     4.7225988237187266E-004
   8.2400000000000029E-002     5.1218736916780472E-004
   8.3500000000000019E-002     5.4929772159084678E-004
   8.4600000000000009E-002     5.8308767620474100E-004
   8.5700000000000026E-002     6.1307998839765787E-004
   8.6800000000000016E-002     6.3882762333378196E-004
   8.7900000000000006E-002     6.5992429153993726E-004
   8.9000000000000024E-002     6.7601993214339018E-004
   9.0100000000000013E-002     6.8682816345244646E-004
   9.1200000000000003E-002     6.9212418748065829E-004
   9.2300000000000021E-002     6.9174054078757763E-004
   9.3400000000000011E-002     6.8557419581338763E-004
   9.4500000000000028E-002     6.7360250977799296E-004
   9.5600000000000018E-002     6.5589323639869690E-004
   9.6700000000000008E-002     6.3259352464228868E-004
   9.7800000000000026E-002     6.0391513397917151E-004
   9.8900000000000016E-002     5.7012564502656460E-004
  0.10000000000000001          5.3156388457864523E-004
  0.10110000000000002          4.8864295240491629E-004
  0.10220000000000001          4.4184102443978190E-004
  0.10330000000000003          3.9168691728264093E-004
  0.10440000000000002          3.3873473876155913E-004
  0.10550000000000001          2.8356557595543563E-004
  0.10660000000000003          2.2678478853777051E-004
  0.10770000000000002          1.6902034985832870E-004
  0.10880000000000001          1.1091037595178932E-004
  0.10990000000000003          5.3083316743141040E-005
  0.11100000000000002         -3.8558018786716275E-006
  0.11210000000000001         -5.9327223425498232E-005
  0.11320000000000002         -1.1278426973149180E-004
  0.11430000000000001         -1.6372538811992854E-004
  0.11540000000000003         -2.1169397223275155E-004
  0.11650000000000002         -2.5627095601521432E-004
  0.11760000000000001         -2.9708983493037522E-004
  0.11870000000000003         -3.3386322320438921E-004
  0.11980000000000002         -3.6638224264606833E-004
  0.12090000000000001         -3.9449491305276752E-004
  0.12200000000000003         -4.1809235699474812E-004
  0.12310000000000001         -4.3711744365282357E-004
  0.12420000000000003         -4.5159060391597450E-004
  0.12530000000000002         -4.6160811325535178E-004
  0.12640000000000001         -4.6731479233130813E-004
  0.12750000000000003         -4.6888532233424485E-004
  0.12860000000000002         -4.6652974560856819E-004
  0.12970000000000001         -4.6050769742578268E-004
  0.13080000000000003         -4.5111749204806983E-004
  0.13190000000000002         -4.3867918429896235E-004
  0.13300000000000001         -4.2352089076302946E-004
  0.13410000000000000         -4.0598487248644233E-004
  0.13520000000000004         -3.8642846629954875E-004
  0.13630000000000003         -3.6520930007100105E-004
  0.13740000000000002         -3.4266812144778669E-004
  0.13850000000000001         -3.1913170823827386E-004
  0.13960000000000000         -2.9492453904822469E-004
  0.14070000000000005         -2.7036506799049675E-004
  0.14180000000000004         -2.4574305280111730E-004
  0.14290000000000003         -2.2130817524157465E-004
  0.14400000000000002         -1.9728318147826940E-004
  0.14510000000000001         -1.7388269770890474E-004
  0.14620000000000000         -1.5130503743421286E-004
  0.14730000000000004         -1.2970826355740428E-004
  0.14840000000000003         -1.0920575005002320E-004
  0.14950000000000002         -8.9887784270104021E-005
  0.15060000000000001         -7.1839262091089040E-005
  0.15170000000000000         -5.5127449741121382E-005
  0.15280000000000005         -3.9781520172255114E-005
  0.15390000000000004         -2.5795257897698320E-005
  0.15500000000000003         -1.3153848158253822E-005
  0.15610000000000002         -1.8453636130288942E-006
  0.15720000000000001          8.1556772784097120E-006
  0.15830000000000000          1.6904865333344787E-005
  0.15940000000000004          2.4476064936607145E-005
  0.16050000000000003          3.0938466807128862E-005
  0.16160000000000002          3.6351597373140976E-005
  0.16270000000000001          4.0786988392937928E-005
  0.16380000000000000          4.4333919504424557E-005
  0.16490000000000005          4.7082266974030063E-005
  0.16600000000000004          4.9104564823210239E-005
  0.16710000000000003          5.0468399422243237E-005
  0.16820000000000002          5.1253748097224161E-005
  0.16930000000000001          5.1548944611568004E-005
  0.17040000000000000          5.1424747653072700E-005
  0.17150000000000004          5.0928309065056965E-005
  0.17260000000000003          5.0108094001188874E-005
  0.17370000000000002          4.9032849346986040E-005
  0.17480000000000001          4.7774399718036875E-005
  0.17590000000000000          4.6377968828892335E-005
  0.17700000000000005          4.4860782509204000E-005
  0.17810000000000004          4.3244006519671530E-005
  0.17920000000000003          4.1570729081286117E-005
  0.18030000000000002          3.9888316678116098E-005
  0.18140000000000001          3.8221449358388782E-005
  0.18250000000000000          3.6574107070919126E-005
  0.18360000000000004          3.4953762224176899E-005
  0.18470000000000003          3.3379710657754913E-005
  0.18580000000000002          3.1866671633906662E-005
  0.18690000000000001          3.0414958018809557E-005
  0.18800000000000000          2.9023678507655859E-005
  0.18910000000000005          2.7704863896360621E-005
  0.19020000000000004          2.6471445380593650E-005
  0.19130000000000003          2.5315002858405933E-005
  0.19240000000000002          2.4212329662987031E-005
  0.19350000000000001          2.3154643713496625E-005
  0.19460000000000005          2.2158999854582362E-005
  0.19570000000000004          2.1242252842057496E-005
  0.19680000000000003          2.0392124497448094E-005
  0.19790000000000002          1.9577344573917799E-005
  0.19900000000000001          1.8781882317853160E-005
  0.20010000000000000          1.8016156900557689E-005
  0.20120000000000005          1.7291999029112048E-005
  0.20230000000000004          1.6600100934738293E-005
  0.20340000000000003          1.5921528756734915E-005
  0.20450000000000002          1.5250293472490739E-005
  0.20560000000000000          1.4591957551601809E-005
  0.20670000000000005          1.3943279554951005E-005
  0.20780000000000004          1.3288407899381127E-005
  0.20890000000000003          1.2618955224752426E-005
