 -0.12000000000000000          0.0000000000000000
 -0.11889999999999999          0.0000000000000000
 -0.11780000000000000          0.0000000000000000
 -0.11670000000000000          0.0000000000000000
 -0.11559999999999999          0.0000000000000000
 -0.11449999999999999          0.0000000000000000
 -0.11340000000000000          0.0000000000000000
 -0.11230000000000000          4.5173334915543855E-021
 -0.11119999999999999          2.6953383395904554E-021
 -0.11009999999999999         -3.9686148311642383E-020
 -0.10900000000000000         -4.3154532775948567E-020
 -0.10790000000000000          1.2673961825370042E-019
 -0.10679999999999999          1.1275686670622454E-019
 -0.10569999999999999         -2.9436465453557734E-019
 -0.10460000000000000          7.7179637274802171E-019
 -0.10349999999999999          3.4095603163756938E-018
 -0.10239999999999999         -2.6647561394849845E-018
 -0.10130000000000000         -2.4008300202614664E-017
 -0.10020000000000000         -2.3006915353057968E-017
  -9.9099999999999994E-002     5.9794438026845214E-017
  -9.7999999999999990E-002     1.6465781834608704E-016
  -9.6899999999999986E-002     6.5371819112269760E-017
  -9.5799999999999996E-002    -3.2096637999152924E-016
  -9.4699999999999993E-002    -5.9947475704590384E-016
  -9.3599999999999989E-002    -2.6554607304386444E-016
  -9.2499999999999999E-002     5.2617946087277234E-016
  -9.1399999999999995E-002     1.2265280598214605E-015
  -9.0299999999999991E-002     1.9775489754715386E-015
  -8.9200000000000002E-002     2.6896684207113053E-015
  -8.8099999999999984E-002     1.9473867145549642E-016
  -8.6999999999999994E-002    -9.5672515387974257E-015
  -8.5899999999999990E-002    -2.1019359755340694E-014
  -8.4799999999999986E-002    -1.4576910167753317E-014
  -8.3699999999999997E-002     2.3028633714576932E-014
  -8.2599999999999993E-002     6.8656255539697314E-014
  -8.1499999999999989E-002     7.0093866962831625E-014
  -8.0399999999999999E-002     1.8026841057085718E-015
  -7.9299999999999995E-002    -9.8447481720539964E-014
  -7.8199999999999992E-002    -1.7167476750075406E-013
  -7.7100000000000002E-002    -1.9459218578935650E-013
  -7.5999999999999984E-002    -1.4046687532749680E-013
  -7.4899999999999994E-002     9.1882786643938952E-014
  -7.3799999999999991E-002     5.6259543464859396E-013
  -7.2699999999999987E-002     1.0080224415592864E-012
  -7.1599999999999997E-002     8.3523894181189440E-013
  -7.0499999999999993E-002    -2.9889692066895068E-013
  -6.9399999999999989E-002    -1.8545852787515971E-012
  -6.8300000000000000E-002    -2.6645740735381507E-012
  -6.7199999999999996E-002    -2.0365256789972586E-012
  -6.6099999999999992E-002    -3.4666621786735852E-013
  -6.5000000000000002E-002     1.7393216858105354E-012
  -6.3899999999999985E-002     4.1749277646108141E-012
  -6.2799999999999995E-002     6.7709930544335162E-012
  -6.1699999999999991E-002     7.5979647920498827E-012
  -6.0599999999999994E-002     3.6871334978261228E-012
  -5.9499999999999990E-002    -5.3345960461526065E-012
  -5.8399999999999994E-002    -1.5047071227902720E-011
  -5.7299999999999990E-002    -1.9570289833126253E-011
  -5.6199999999999986E-002    -1.7235570609619444E-011
  -5.5099999999999996E-002    -1.0806307237931634E-011
  -5.3999999999999992E-002    -1.1947485101942990E-012
  -5.2899999999999989E-002     1.5830942459715835E-011
  -5.1799999999999985E-002     4.2452256987512982E-011
  -5.0699999999999995E-002     6.8811373266086662E-011
  -4.9599999999999991E-002     7.5453789050161646E-011
  -4.8499999999999988E-002     4.9080867842166143E-011
  -4.7399999999999998E-002    -6.5036517837846475E-012
  -4.6299999999999994E-002    -7.7458907343785910E-011
  -4.5199999999999990E-002    -1.5275536391357036E-010
  -4.4099999999999986E-002    -2.2125640208869868E-010
  -4.2999999999999997E-002    -2.5614366183646098E-010
  -4.1899999999999993E-002    -2.1505970615454117E-010
  -4.0799999999999989E-002    -6.9065017593850087E-011
  -3.9699999999999985E-002     1.6694899629410287E-010
  -3.8599999999999995E-002     4.3755221668106969E-010
  -3.7499999999999992E-002     6.7744698739602427E-010
  -3.6399999999999988E-002     8.2886486563182871E-010
  -3.5299999999999984E-002     8.2947021473600557E-010
  -3.4199999999999994E-002     6.0446830874028024E-010
  -3.3099999999999991E-002     9.7093492967825767E-011
  -3.1999999999999987E-002    -6.8152355980899415E-010
  -3.0899999999999997E-002    -1.6310367501048972E-009
  -2.9799999999999993E-002    -2.5782604939905696E-009
  -2.8699999999999989E-002    -3.2951077422183062E-009
  -2.7599999999999986E-002    -3.5026770373036697E-009
  -2.6499999999999996E-002    -2.8971780530184787E-009
  -2.5399999999999992E-002    -1.2209916411265453E-009
  -2.4299999999999988E-002     1.6695271831679293E-009
  -2.3199999999999985E-002     5.8055120710776009E-009
  -2.2099999999999995E-002     1.1159318802356211E-008
  -2.0999999999999991E-002     1.7666986096287474E-008
  -1.9899999999999987E-002     2.5200586506457512E-008
  -1.8799999999999983E-002     3.3585784819933906E-008
  -1.7699999999999994E-002     4.2738879102444116E-008
  -1.6599999999999990E-002     5.2840043451851670E-008
  -1.5499999999999986E-002     6.4385197617866652E-008
  -1.4399999999999996E-002     7.8097173172864132E-008
  -1.3299999999999992E-002     9.4849141873964982E-008
  -1.2199999999999989E-002     1.1570796232263092E-007
  -1.1099999999999985E-002     1.4199845566054137E-007
  -9.9999999999999950E-003     1.7523112205708458E-007
  -8.8999999999999913E-003     2.1693185203730536E-007
  -7.7999999999999875E-003     2.6858734258894401E-007
  -6.6999999999999837E-003     3.3180526770593133E-007
  -5.5999999999999939E-003     4.0853251448424999E-007
  -4.4999999999999901E-003     5.0113544602936599E-007
  -3.3999999999999864E-003     6.1238091575432918E-007
  -2.2999999999999826E-003     7.4549825512804091E-007
  -1.1999999999999927E-003     9.0435440824876423E-007
  -9.9999999999988987E-005     1.0935980299109360E-006
   1.0000000000000148E-003     1.3186783007768099E-006
   2.1000000000000185E-003     1.5858483948250068E-006
   3.2000000000000084E-003     1.9022537571800058E-006
   4.3000000000000121E-003     2.2760332285542972E-006
   5.4000000000000159E-003     2.7162611786479829E-006
   6.5000000000000058E-003     3.2328587167285150E-006
   7.6000000000000234E-003     3.8367229535651859E-006
   8.7000000000000133E-003     4.5400693124975078E-006
   9.8000000000000032E-003     5.3566268434224185E-006
   1.0900000000000021E-002     6.3015027080837172E-006
   1.2000000000000011E-002     7.3909445745812263E-006
   1.3100000000000001E-002     8.6424079199787229E-006
   1.4200000000000018E-002     1.0074967576656491E-005
   1.5300000000000008E-002     1.1709557838912588E-005
   1.6400000000000026E-002     1.3568747817771509E-005
   1.7500000000000016E-002     1.5676221664762124E-005
   1.8600000000000005E-002     1.8056514818454161E-005
   1.9700000000000023E-002     2.0735018551931717E-005
   2.0800000000000013E-002     2.3737753508612514E-005
   2.1900000000000003E-002     2.7090874937130138E-005
   2.3000000000000020E-002     3.0820181564195082E-005
   2.4100000000000010E-002     3.4950644476339221E-005
   2.5200000000000000E-002     3.9506441680714488E-005
   2.6300000000000018E-002     4.4510314182844013E-005
   2.7400000000000008E-002     4.9982558266492561E-005
   2.8500000000000025E-002     5.5940588936209679E-005
   2.9600000000000015E-002     6.2398081354331225E-005
   3.0700000000000005E-002     6.9364468799903989E-005
   3.1800000000000023E-002     7.6842887210659683E-005
   3.2900000000000013E-002     8.4829669503960758E-005
   3.4000000000000002E-002     9.3312679382506758E-005
   3.5100000000000020E-002     1.0227116581518203E-004
   3.6200000000000010E-002     1.1167451884830371E-004
   3.7300000000000028E-002     1.2148094538133591E-004
   3.8400000000000017E-002     1.3163690164219588E-004
   3.9500000000000007E-002     1.4207673666533083E-004
   4.0600000000000025E-002     1.5272154996637255E-004
   4.1700000000000015E-002     1.6347900964319706E-004
   4.2800000000000005E-002     1.7424252291675657E-004
   4.3900000000000022E-002     1.8489146896172315E-004
   4.5000000000000012E-002     1.9528990378603339E-004
   4.6100000000000002E-002     2.0528797176666558E-004
   4.7200000000000020E-002     2.1472333173733205E-004
   4.8300000000000010E-002     2.2342064767144620E-004
   4.9400000000000027E-002     2.3119302932173014E-004
   5.0500000000000017E-002     2.3784443328622729E-004
   5.1600000000000007E-002     2.4317372299265116E-004
   5.2700000000000025E-002     2.4697638582438231E-004
   5.3800000000000014E-002     2.4904264137148857E-004
   5.4900000000000004E-002     2.4916511029005051E-004
   5.6000000000000022E-002     2.4714414030313492E-004
   5.7100000000000012E-002     2.4278981436509639E-004
   5.8200000000000002E-002     2.3592224169988185E-004
   5.9300000000000019E-002     2.2637887741439044E-004
   6.0400000000000009E-002     2.1401901904027909E-004
   6.1500000000000027E-002     1.9873071869369596E-004
   6.2600000000000017E-002     1.8043046293314546E-004
   6.3700000000000007E-002     1.5906585031189024E-004
   6.4800000000000024E-002     1.3462083006743342E-004
   6.5900000000000014E-002     1.0712574294302613E-004
   6.7000000000000004E-002     7.6655902375932783E-005
   6.8100000000000022E-002     4.3328109313733876E-005
   6.9200000000000012E-002     7.3012706707231700E-006
   7.0300000000000029E-002    -3.1214261980494484E-005
   7.1400000000000019E-002    -7.1954564191401005E-005
   7.2500000000000009E-002    -1.1460676614660770E-004
   7.3600000000000027E-002    -1.5881794388405979E-004
   7.4700000000000016E-002    -2.0419793145265430E-004
   7.5800000000000006E-002    -2.5031686527654529E-004
   7.6900000000000024E-002    -2.9670991352759302E-004
   7.8000000000000014E-002    -3.4288002643734217E-004
   7.9100000000000004E-002    -3.8830869016237557E-004
   8.0200000000000021E-002    -4.3246263521723449E-004
   8.1300000000000011E-002    -4.7480786452069879E-004
   8.2400000000000029E-002    -5.1481253467500210E-004
   8.3500000000000019E-002    -5.5195484310388565E-004
   8.4600000000000009E-002    -5.8572739362716675E-004
   8.5700000000000026E-002    -6.1564467614516616E-004
   8.6800000000000016E-002    -6.4125756034627557E-004
   8.7900000000000006E-002    -6.6216726554557681E-004
   8.9000000000000024E-002    -6.7803508136421442E-004
   9.0100000000000013E-002    -6.8857806036248803E-004
   9.1200000000000003E-002    -6.9356715539470315E-004
   9.2300000000000021E-002    -6.9283426273614168E-004
   9.3400000000000011E-002    -6.8628904409706593E-004
   9.4500000000000028E-002    -6.7392899654805660E-004
   9.5600000000000018E-002    -6.5583089599385858E-004
   9.6700000000000008E-002    -6.3213868997991085E-004
   9.7800000000000026E-002    -6.0306640807539225E-004
   9.8900000000000016E-002    -5.6889804545789957E-004
  0.10000000000000001         -5.2998744649812579E-004
  0.10110000000000002         -4.8675417201593518E-004
  0.10220000000000001         -4.3967799865640700E-004
  0.10330000000000003         -3.8928951835259795E-004
  0.10440000000000002         -3.3615456777624786E-004
  0.10550000000000001         -2.8085859958082438E-004
  0.10660000000000003         -2.2400490706786513E-004
  0.10770000000000002         -1.6622210387140512E-004
  0.10880000000000001         -1.0814895358635113E-004
  0.10990000000000003         -5.0415328587405384E-005
  0.11100000000000002          6.3783159021113534E-006
  0.11210000000000001          6.1664417444262654E-005
  0.11320000000000002          1.1490403267089278E-004
  0.11430000000000001          1.6559449431952089E-004
  0.11540000000000003          2.1327138529159129E-004
  0.11650000000000002          2.5752710644155741E-004
  0.11760000000000001          2.9802150675095618E-004
  0.11870000000000003          3.3447655732743442E-004
  0.11980000000000002          3.6667732638306916E-004
  0.12090000000000001          3.9447387098334730E-004
  0.12200000000000003          4.1776563739404082E-004
  0.12310000000000001          4.3651141459122300E-004
  0.12420000000000003          4.5073553337715566E-004
  0.12530000000000002          4.6052667312324047E-004
  0.12640000000000001          4.6603512600995600E-004
  0.12750000000000003          4.6745018335059285E-004
  0.12860000000000002          4.6498683514073491E-004
  0.12970000000000001          4.5889025204814970E-004
  0.13080000000000003          4.4944800902158022E-004
  0.13190000000000002          4.3698641820810735E-004
  0.13300000000000001          4.2184995254501700E-004
  0.13410000000000000          4.0438037831336260E-004
  0.13520000000000004          3.8491457235068083E-004
  0.13630000000000003          3.6379270022735000E-004
  0.13740000000000002          3.4136121394112706E-004
  0.13850000000000001          3.1796033727005124E-004
  0.13960000000000000          2.9391082352958620E-004
  0.14070000000000005          2.6951133622787893E-004
  0.14180000000000004          2.4504220345988870E-004
  0.14290000000000003          2.2076111054047942E-004
  0.14400000000000002          1.9689768669195473E-004
  0.14510000000000001          1.7365327221341431E-004
  0.14620000000000000          1.5120960597414523E-004
  0.14730000000000004          1.2972822878509760E-004
  0.14840000000000003          1.0933929297607392E-004
  0.14950000000000002          9.0134453785140067E-005
  0.15060000000000001          7.2179114795289934E-005
  0.15170000000000000          5.5528664233861491E-005
  0.15280000000000005          4.0225928387371823E-005
  0.15390000000000004          2.6284673367626965E-005
  0.15500000000000003          1.3685078556591179E-005
  0.15610000000000002          2.3938405320222955E-006
  0.15720000000000001         -7.6182855082151946E-006
  0.15830000000000000         -1.6384281479986385E-005
  0.15940000000000004         -2.3960636099218391E-005
  0.16050000000000003         -3.0429539037868381E-005
  0.16160000000000002         -3.5875931644113734E-005
  0.16270000000000001         -4.0366932807955891E-005
  0.16380000000000000         -4.3963744246866554E-005
  0.16490000000000005         -4.6741904952796176E-005
  0.16600000000000004         -4.8792859161039814E-005
  0.16710000000000003         -5.0203212595079094E-005
  0.16820000000000002         -5.1043894927715883E-005
  0.16930000000000001         -5.1379964133957401E-005
  0.17040000000000000         -5.1282571803312749E-005
  0.17150000000000004         -5.0819649914046749E-005
  0.17260000000000003         -5.0044847739627585E-005
  0.17370000000000002         -4.9005382606992498E-005
  0.17480000000000001         -4.7758494474692270E-005
  0.17590000000000000         -4.6367367758648470E-005
  0.17700000000000005         -4.4875694584334269E-005
  0.17810000000000004         -4.3298583477735519E-005
  0.17920000000000003         -4.1647585021564737E-005
  0.18030000000000002         -3.9957751141628250E-005
  0.18140000000000001         -3.8278729334706441E-005
  0.18250000000000000         -3.6639856261899695E-005
  0.18360000000000004         -3.5038494388572872E-005
  0.18470000000000003         -3.3466742024756968E-005
  0.18580000000000002         -3.1937870517140254E-005
  0.18690000000000001         -3.0477631298708729E-005
  0.18800000000000000         -2.9095743229845539E-005
  0.18910000000000005         -2.7782369215856306E-005
  0.19020000000000004         -2.6530500690569170E-005
  0.19130000000000003         -2.5348426788696088E-005
  0.19240000000000002         -2.4243314328487031E-005
  0.19350000000000001         -2.3204191165859811E-005
  0.19460000000000005         -2.2214469936443493E-005
  0.19570000000000004         -2.1274041500873864E-005
  0.19680000000000003         -2.0395171304699033E-005
  0.19790000000000002         -1.9576296836021356E-005
  0.19900000000000001         -1.8795213691191748E-005
  0.20010000000000000         -1.8033784726867452E-005
  0.20120000000000005         -1.7297768863500096E-005
  0.20230000000000004         -1.6599071386735886E-005
  0.20340000000000003         -1.5928002540022135E-005
  0.20450000000000002         -1.5258692656061612E-005
  0.20560000000000000         -1.4581164577975869E-005
  0.20670000000000005         -1.3912344911659602E-005
  0.20780000000000004         -1.3266630048747174E-005
  0.20890000000000003         -1.2628583135665394E-005
