 -0.12000000000000000          0.0000000000000000     
 -0.11889999999999999          0.0000000000000000     
 -0.11780000000000000          1.0369223673478700E-005
 -0.11670000000000000         -9.4180077212513424E-006
 -0.11559999999999999         -4.4106258428655565E-005
 -0.11449999999999999          2.5041714252438396E-005
 -0.11340000000000000          1.3560515071731061E-004
 -0.11230000000000000         -5.9877825151488651E-006
 -0.11119999999999999         -3.1868467340245843E-004
 -0.11009999999999999         -1.6310009232256562E-004
 -0.10900000000000000          5.4384500253945589E-004
 -0.10790000000000000          6.4357678638771176E-004
 -0.10679999999999999         -5.6265015155076981E-004
 -0.10569999999999999         -1.4497148804366589E-003
 -0.10460000000000000         -1.1580851605685893E-005
 -0.10349999999999999          2.2621052339673042E-003
 -0.10239999999999999          1.4494899660348892E-003
 -0.10130000000000000         -2.4414842482656240E-003
 -0.10020000000000000         -3.6634695716202259E-003
  -9.9099999999999994E-002     1.1403631651774049E-003
  -9.7999999999999990E-002     5.9094526804983616E-003
  -9.6899999999999986E-002     2.3853990714997053E-003
  -9.5799999999999996E-002    -6.3208420760929585E-003
  -9.4699999999999993E-002    -7.4455696158111095E-003
  -9.3599999999999989E-002     2.8940299525856972E-003
  -9.2499999999999999E-002     1.1079351417720318E-002
  -9.1399999999999995E-002     3.9647212252020836E-003
  -9.0299999999999991E-002    -1.0187014006078243E-002
  -8.9200000000000002E-002    -1.1011836118996143E-002
  -8.8099999999999984E-002     4.1860290803015232E-003
  -8.6999999999999994E-002     1.4264208264648914E-002
  -8.5899999999999990E-002     4.2274645529687405E-003
  -8.4799999999999986E-002    -1.1689492501318455E-002
  -8.3699999999999997E-002    -1.0283054783940315E-002
  -8.2599999999999993E-002     5.6533440947532654E-003
  -8.1499999999999989E-002     1.1434862390160561E-002
  -8.0399999999999999E-002    -1.0989479487761855E-003
  -7.9299999999999995E-002    -1.0591598227620125E-002
  -7.8199999999999992E-002    -7.1713328361511230E-004
  -7.7100000000000002E-002     1.1872940696775913E-002
  -7.5999999999999984E-002     3.5236892290413380E-003
  -7.4899999999999994E-002    -1.5236981213092804E-002
  -7.3799999999999991E-002    -1.2107279151678085E-002
  -7.2699999999999987E-002     1.4272770844399929E-002
  -7.1599999999999997E-002     2.4918388575315475E-002
  -7.0499999999999993E-002    -2.1834615617990494E-003
  -6.9399999999999989E-002    -3.2283246517181396E-002
  -6.8300000000000000E-002    -1.9563283771276474E-002
  -6.7199999999999996E-002     2.2850930690765381E-002
  -6.6099999999999992E-002     3.6042377352714539E-002
  -6.5000000000000002E-002    -3.0813456396572292E-004
  -6.3899999999999985E-002    -3.5867515951395035E-002
  -6.2799999999999995E-002    -2.1448569372296333E-002
  -6.1699999999999991E-002     1.9719056785106659E-002
  -6.0599999999999994E-002     2.8043996542692184E-002
  -5.9499999999999990E-002    -3.5341808106750250E-003
  -5.8399999999999994E-002    -2.2930424660444260E-002
  -5.7299999999999990E-002    -2.7425147127360106E-003
  -5.6199999999999986E-002     1.8074706196784973E-002
  -5.5099999999999996E-002     6.9413013989105821E-004
  -5.3999999999999992E-002    -2.6333101093769073E-002
  -5.2899999999999989E-002    -1.1121996678411961E-002
  -5.1799999999999985E-002     3.1857214868068695E-002
  -5.0699999999999995E-002     3.4312609583139420E-002
  -4.9599999999999991E-002    -1.9443113356828690E-002
  -4.8499999999999988E-002    -5.6296918541193008E-002
  -4.7399999999999998E-002    -1.7173230648040771E-002
  -4.6299999999999994E-002     4.9363911151885986E-002
  -4.5199999999999990E-002     5.0059013068675995E-002
  -4.4099999999999986E-002    -1.7564795911312103E-002
  -4.2999999999999997E-002    -5.9256341308355331E-002
  -4.1899999999999993E-002    -2.0238058641552925E-002
  -4.0799999999999989E-002     3.8129448890686035E-002
  -3.9699999999999985E-002     3.3530045300722122E-002
  -3.8599999999999995E-002    -1.6521083191037178E-002
  -3.7499999999999992E-002    -2.9793146997690201E-002
  -3.6399999999999988E-002     9.1872392222285271E-003
  -3.5299999999999984E-002     2.8689522296190262E-002
  -3.4199999999999994E-002    -8.9093791320919991E-003
  -3.3099999999999991E-002    -4.1702680289745331E-002
  -3.1999999999999987E-002    -5.7583563029766083E-003
  -3.0899999999999997E-002     5.3642872720956802E-002
  -2.9799999999999993E-002     4.2289875447750092E-002
  -2.8699999999999989E-002    -3.4531496465206146E-002
  -2.7599999999999986E-002    -6.7790493369102478E-002
  -2.6499999999999996E-002    -5.0454353913664818E-003
  -2.5399999999999992E-002     6.8384990096092224E-002
  -2.4299999999999988E-002     4.9705207347869873E-002
  -2.3199999999999985E-002    -3.0048770830035210E-002
  -2.2099999999999995E-002    -5.5421873927116394E-002
  -2.0999999999999991E-002     2.6141009293496609E-003
  -1.9899999999999987E-002     5.2172355353832245E-002
  -1.8799999999999983E-002     2.0980667322874069E-002
  -1.7699999999999994E-002    -3.2469045370817184E-002
  -1.6599999999999990E-002    -1.8076706677675247E-002
  -1.5499999999999986E-002     3.9219669997692108E-002
  -1.4399999999999996E-002     4.1692454367876053E-002
  -1.3299999999999992E-002    -2.2353649139404297E-002
  -1.2199999999999989E-002    -5.4664976894855499E-002
  -1.1099999999999985E-002     3.2823805231601000E-003
  -9.9999999999999950E-003     6.9467626512050629E-002
  -8.8999999999999913E-003     4.3131858110427856E-002
  -7.7999999999999875E-003    -4.1711732745170593E-002
  -6.6999999999999837E-003    -6.3165351748466492E-002
  -5.5999999999999939E-003     8.5549047216773033E-003
  -4.4999999999999901E-003     6.2497913837432861E-002
  -3.3999999999999864E-003     2.4116544052958488E-002
  -2.2999999999999826E-003    -4.3238330632448196E-002
  -1.1999999999999927E-003    -3.8401842117309570E-002
  -9.9999999999988987E-005     2.1134853363037109E-002
   1.0000000000000148E-003     3.7682689726352692E-002
   2.1000000000000185E-003    -1.5661915764212608E-002
   3.2000000000000084E-003    -5.2352111786603928E-002
   4.3000000000000121E-003    -1.1525356210768223E-002
   5.4000000000000159E-003     4.0619138628244400E-002
   6.5000000000000058E-003     2.1186975762248039E-002
   7.6000000000000234E-003    -4.6808157116174698E-002
   8.7000000000000133E-003    -5.9595480561256409E-002
   9.8000000000000032E-003     4.8320675268769264E-003
   1.0900000000000021E-002     4.7761242836713791E-002
   1.2000000000000011E-002     6.3283843919634819E-003
   1.3100000000000001E-002    -5.6896246969699860E-002
   1.4200000000000018E-002    -4.7900728881359100E-002
   1.5300000000000008E-002     1.7749216407537460E-002
   1.6400000000000026E-002     3.9542436599731445E-002
   1.7500000000000016E-002    -1.2282125651836395E-002
   1.8600000000000005E-002    -5.3417589515447617E-002
   1.9700000000000023E-002    -2.0917361602187157E-002
   2.0800000000000013E-002     3.3182580024003983E-002
   2.1900000000000003E-002     2.6021728292107582E-002
   2.3000000000000020E-002    -2.6476219296455383E-002
   2.4100000000000010E-002    -3.8965597748756409E-002
   2.5200000000000000E-002     8.6511811241507530E-003
   2.6300000000000018E-002     4.2302902787923813E-002
   2.7400000000000008E-002     1.0377317667007446E-002
   2.8500000000000025E-002    -3.4114766865968704E-002
   2.9600000000000015E-002    -1.6510924324393272E-002
   3.0700000000000005E-002     3.4109015017747879E-002
   3.1800000000000023E-002     4.1337184607982635E-002
   3.2900000000000013E-002    -1.7850144067779183E-003
   3.4000000000000002E-002    -3.0926560983061790E-002
   3.5100000000000020E-002     4.3950605322606862E-004
   3.6200000000000010E-002     4.3114434927701950E-002
   3.7300000000000028E-002     3.2550822943449020E-002
   3.8400000000000017E-002    -9.4828084111213684E-003
   3.9500000000000007E-002    -1.9392283633351326E-002
   4.0600000000000025E-002     1.6028776764869690E-002
   4.1700000000000015E-002     3.4528974443674088E-002
   4.2800000000000005E-002     7.1504348888993263E-003
   4.3900000000000022E-002    -1.7666928470134735E-002
   4.5000000000000012E-002     2.0830826833844185E-003
   4.6100000000000002E-002     3.1596109271049500E-002
   4.7200000000000020E-002     1.9239308312535286E-002
   4.8300000000000010E-002    -1.7667153850197792E-002
   4.9400000000000027E-002    -2.2303013131022453E-002
   5.0500000000000017E-002     1.1544134467840195E-002
   5.1600000000000007E-002     2.7795780450105667E-002
   5.2700000000000025E-002     2.7412112103775144E-004
   5.3800000000000014E-002    -2.2874319925904274E-002
   5.4900000000000004E-002    -8.6666904389858246E-003
   5.6000000000000022E-002     1.6548357903957367E-002
   5.7100000000000012E-002     5.6864512152969837E-003
   5.8200000000000002E-002    -2.4279525503516197E-002
   5.9300000000000019E-002    -2.2648360580205917E-002
   6.0400000000000009E-002     1.1514325626194477E-002
   6.1500000000000027E-002     2.5479421019554138E-002
   6.2600000000000017E-002    -5.9533989988267422E-003
   6.3700000000000007E-002    -3.6086652427911758E-002
   6.4800000000000024E-002    -1.9069230183959007E-002
   6.5900000000000014E-002     1.7051821574568748E-002
   6.7000000000000004E-002     1.7008613795042038E-002
   6.8100000000000022E-002    -1.5272034332156181E-002
   6.9200000000000012E-002    -2.3103704676032066E-002
   7.0300000000000029E-002     5.2025467157363892E-003
   7.1400000000000019E-002     1.7767561599612236E-002
   7.2500000000000009E-002    -1.1542629450559616E-002
   7.3600000000000027E-002    -3.4728042781352997E-002
   7.4700000000000016E-002    -4.3184715323150158E-003
   7.5800000000000006E-002     4.0795244276523590E-002
   7.6900000000000024E-002     2.8696324676275253E-002
   7.8000000000000014E-002    -2.9328381642699242E-002
   7.9100000000000004E-002    -4.9692694097757339E-002
   8.0200000000000021E-002     2.2532818547915667E-004
   8.1300000000000011E-002     4.7157783061265945E-002
   8.2400000000000029E-002     2.3315319791436195E-002
   8.3500000000000019E-002    -2.9996383935213089E-002
   8.4600000000000009E-002    -2.9348066076636314E-002
   8.5700000000000026E-002     1.9654037430882454E-002
   8.6800000000000016E-002     3.3453110605478287E-002
   8.7900000000000006E-002    -1.2201294302940369E-002
   8.9000000000000024E-002    -4.0085956454277039E-002
   9.0100000000000013E-002     2.7996478602290154E-003
   9.1200000000000003E-002     5.3506992757320404E-002
   9.2300000000000021E-002     2.7680406346917152E-002
   9.3400000000000011E-002    -4.5915666967630386E-002
   9.4500000000000028E-002    -5.6617815047502518E-002
   9.5600000000000018E-002     1.8250247463583946E-002
   9.6700000000000008E-002     6.7957878112792969E-002
   9.7800000000000026E-002     1.9279962405562401E-002
   9.8900000000000016E-002    -5.4443061351776123E-002
  0.10000000000000001         -4.0316410362720490E-002
  0.10110000000000002          3.5561777651309967E-002
  0.10220000000000001          5.2615690976381302E-002
  0.10330000000000003         -1.7073975875973701E-002
  0.10440000000000002         -6.0552027076482773E-002
  0.10550000000000001         -4.4159693643450737E-003
  0.10660000000000003          6.5458521246910095E-002
  0.10770000000000002          3.5174105316400528E-002
  0.10880000000000001         -5.5198624730110168E-002
  0.10990000000000003         -6.6709354519844055E-002
  0.11100000000000002          2.3005465045571327E-002
  0.11210000000000001          7.9729817807674408E-002
  0.11320000000000002          1.7400152981281281E-002
  0.11430000000000001         -6.8231612443923950E-002
  0.11540000000000003         -4.7045700252056122E-002
  0.11650000000000002          4.5447319746017456E-002
  0.11760000000000001          6.2651827931404114E-002
  0.11870000000000003         -2.1831756457686424E-002
  0.11980000000000002         -7.3097489774227142E-002
  0.12090000000000001         -6.7251836881041527E-003
  0.12200000000000003          7.5794704258441925E-002
  0.12310000000000001          4.1906181722879410E-002
  0.12420000000000003         -6.1465553939342499E-002
  0.12530000000000002         -7.5495004653930664E-002
  0.12640000000000001          2.5105070322751999E-002
  0.12750000000000003          8.9900620281696320E-002
  0.12860000000000002          2.0925005897879601E-002
  0.12970000000000001         -7.6854549348354340E-002
  0.13080000000000003         -5.5994544178247452E-002
  0.13190000000000002          4.7209445387125015E-002
  0.13300000000000001          7.1540489792823792E-002
  0.13410000000000000         -1.8079005181789398E-002
  0.13520000000000004         -7.7844023704528809E-002
  0.13630000000000003         -1.1356219649314880E-002
  0.13740000000000002          7.8049704432487488E-002
  0.13850000000000001          4.7421220690011978E-002
  0.13960000000000000         -6.0532841831445694E-002
  0.14070000000000005         -8.0115519464015961E-002
  0.14180000000000004          2.1710697561502457E-002
  0.14290000000000003          9.1611094772815704E-002
  0.14400000000000002          2.4074355140328407E-002
  0.14510000000000001         -7.7299714088439941E-002
  0.14620000000000000         -5.9490967541933060E-002
  0.14730000000000004          4.6267859637737274E-002
  0.14840000000000003          7.6183363795280457E-002
  0.14950000000000002         -1.2515832670032978E-002
  0.15060000000000001         -7.8131183981895447E-002
  0.15170000000000000         -1.7697293311357498E-002
  0.15280000000000005          7.2756387293338776E-002
  0.15390000000000004          4.9064997583627701E-002
  0.15500000000000003         -5.4817367345094681E-002
  0.15610000000000002         -7.8196734189987183E-002
  0.15720000000000001          1.7824394628405571E-002
  0.15830000000000000          8.8660724461078644E-002
  0.15940000000000004          2.7443716302514076E-002
  0.16050000000000003         -7.2407193481922150E-002
  0.16160000000000002         -6.1322961002588272E-002
  0.16270000000000001          3.9261143654584885E-002
  0.16380000000000000          7.4471063911914825E-002
  0.16490000000000005         -5.0086188130080700E-003
  0.16600000000000004         -7.1801997721195221E-002
  0.16710000000000003         -2.3284781724214554E-002
  0.16820000000000002          6.1345513910055161E-002
  0.16930000000000001          4.7937680035829544E-002
  0.17040000000000000         -4.2818341404199600E-002
  0.17150000000000004         -6.8749450147151947E-002
  0.17260000000000003          1.2065642513334751E-002
  0.17370000000000002          7.6310619711875916E-002
  0.17480000000000001          2.5727864354848862E-002
  0.17590000000000000         -6.2647596001625061E-002
  0.17700000000000005         -5.5838778614997864E-002
  0.17810000000000004          3.2703157514333725E-002
  0.17920000000000003          6.7648872733116150E-002
  0.18030000000000002         -1.1347154213581234E-004
  0.18140000000000001         -6.3096553087234497E-002
  0.18250000000000000         -2.6246659457683563E-002
  0.18360000000000004          4.9167521297931671E-002
  0.18470000000000003          4.5490276068449020E-002
  0.18580000000000002         -2.9139453545212746E-002
  0.18690000000000001         -5.7339999824762344E-002
  0.18800000000000000          3.9094495587050915E-003
  0.18910000000000005          5.9112623333930969E-002
  0.19020000000000004          2.3745657876133919E-002
  0.19130000000000003         -4.6812981367111206E-002
  0.19240000000000002         -4.5407153666019440E-002
  0.19350000000000001          2.2994723170995712E-002
  0.19460000000000005          5.3134892135858536E-002
  0.19570000000000004          2.1544264163821936E-003
  0.19680000000000003         -4.8664193600416183E-002
  0.19790000000000002         -2.2479124367237091E-002
  0.19900000000000001          3.7016533315181732E-002
  0.20010000000000000          3.7617355585098267E-002
  0.20120000000000005         -1.9336776807904243E-002
  0.20230000000000004         -4.5154862105846405E-002
  0.20340000000000003         -2.0665195770561695E-003
  0.20450000000000002          4.2131584137678146E-002
  0.20560000000000000          2.1137995645403862E-002
  0.20670000000000005         -3.0089411884546280E-002
  0.20780000000000004         -3.3460721373558044E-002
  0.20890000000000003          1.2917445972561836E-002
