 -0.12000000000000000          0.0000000000000000     
 -0.11889999999999999          0.0000000000000000     
 -0.11780000000000000          0.0000000000000000     
 -0.11670000000000000          0.0000000000000000     
 -0.11559999999999999          0.0000000000000000     
 -0.11449999999999999          0.0000000000000000     
 -0.11340000000000000          0.0000000000000000     
 -0.11230000000000000          0.0000000000000000     
 -0.11119999999999999         -2.6777135671003476E-014
 -0.11009999999999999          1.9617246466586274E-013
 -0.10900000000000000         -3.7009908619755130E-014
 -0.10790000000000000         -2.7932762439869530E-012
 -0.10679999999999999          2.5751943980023562E-012
 -0.10569999999999999          2.5121273117267862E-011
 -0.10460000000000000         -2.0350009871661356E-011
 -0.10349999999999999         -1.7970849808257583E-010
 -0.10239999999999999          5.5530833403816260E-011
 -0.10130000000000000          1.0452199106225635E-009
 -0.10020000000000000          3.7640368599767271E-010
  -9.9099999999999994E-002    -4.7305719341750319E-009
  -9.7999999999999990E-002    -5.4335336230337816E-009
  -9.6899999999999986E-002     1.5033755573767849E-008
  -9.5799999999999996E-002     3.4846195262616675E-008
  -9.4699999999999993E-002    -2.2175218106212924E-008
  -9.3599999999999989E-002    -1.4292477601429709E-007
  -9.2499999999999999E-002    -7.2909699611045653E-008
  -9.1399999999999995E-002     3.6878466858070169E-007
  -9.0299999999999991E-002     6.1070022638887167E-007
  -8.9200000000000002E-002    -3.6724534879795101E-007
  -8.8099999999999984E-002    -2.0336201487225480E-006
  -8.6999999999999994E-002    -1.3627982298203278E-006
  -8.5899999999999990E-002     3.3085937047871994E-006
  -8.4799999999999986E-002     6.8887170527887065E-006
  -8.3699999999999997E-002     9.8712985163729172E-007
  -8.2599999999999993E-002    -1.2522345059551299E-005
  -8.1499999999999989E-002    -1.6696907550795004E-005
  -8.0399999999999999E-002     9.5406960554100806E-007
  -7.9299999999999995E-002     2.6504238121560775E-005
  -7.8199999999999992E-002     3.3414969948353246E-005
  -7.7100000000000002E-002     1.7693559129838832E-005
  -7.5999999999999984E-002    -9.5661289378767833E-006
  -7.4899999999999994E-002    -6.6803288063965738E-005
  -7.3799999999999991E-002    -1.6743675223551691E-004
  -7.2699999999999987E-002    -1.8568124505691230E-004
  -7.1599999999999997E-002     1.2195164890727028E-004
  -7.0499999999999993E-002     7.2555179940536618E-004
  -6.9399999999999989E-002     9.5996662275865674E-004
  -6.8300000000000000E-002    -6.9760808401042596E-006
  -6.7199999999999996E-002    -1.9248611060902476E-003
  -6.6099999999999992E-002    -2.9522851109504700E-003
  -6.5000000000000002E-002    -1.2258942006155849E-003
  -6.3899999999999985E-002     2.7227969840168953E-003
  -6.2799999999999995E-002     5.7906345464289188E-003
  -6.1699999999999991E-002     5.2134352736175060E-003
  -6.0599999999999994E-002     1.1773190926760435E-003
  -5.9499999999999990E-002    -4.2292699217796326E-003
  -5.8399999999999994E-002    -9.6834506839513779E-003
  -5.7299999999999990E-002    -1.3988075777888298E-002
  -5.6199999999999986E-002    -1.2867427431046963E-002
  -5.5099999999999996E-002    -5.7605956681072712E-004
  -5.3999999999999992E-002     2.1435400471091270E-002
  -5.2899999999999989E-002     3.9649043232202530E-002
  -5.1799999999999985E-002     3.8514249026775360E-002
  -5.0699999999999995E-002     1.6838757321238518E-002
  -4.9599999999999991E-002    -1.1875603348016739E-002
  -4.8499999999999988E-002    -3.8985647261142731E-002
  -4.7399999999999998E-002    -7.2033211588859558E-002
  -4.6299999999999994E-002   -0.11400308459997177     
  -4.5199999999999990E-002   -0.13360401988029480     
  -4.4099999999999986E-002    -7.6241977512836456E-002
  -4.2999999999999997E-002     7.9044684767723083E-002
  -4.1899999999999993E-002    0.27841079235076904     
  -4.0799999999999989E-002    0.42238023877143860     
  -3.9699999999999985E-002    0.43517324328422546     
  -3.8599999999999995E-002    0.29540374875068665     
  -3.7499999999999992E-002     1.0494792833924294E-002
  -3.6399999999999988E-002   -0.39940261840820312     
  -3.5299999999999984E-002   -0.86623942852020264     
  -3.4199999999999994E-002    -1.2450418472290039     
  -3.3099999999999991E-002    -1.3610688447952271     
  -3.1999999999999987E-002    -1.0934375524520874     
  -3.0899999999999997E-002   -0.39615407586097717     
  -2.9799999999999993E-002    0.73437327146530151     
  -2.8699999999999989E-002     2.2233588695526123     
  -2.7599999999999986E-002     3.7906966209411621     
  -2.6499999999999996E-002     4.9136776924133301     
  -2.5399999999999992E-002     5.0254073143005371     
  -2.4299999999999988E-002     3.7887883186340332     
  -2.3199999999999985E-002     1.1366887092590332     
  -2.2099999999999995E-002    -2.9356813430786133     
  -2.0999999999999991E-002    -8.4751119613647461     
  -1.9899999999999987E-002    -15.363383293151855     
  -1.8799999999999983E-002    -23.105690002441406     
  -1.7699999999999994E-002    -31.037952423095703     
  -1.6599999999999990E-002    -38.810165405273438     
  -1.5499999999999986E-002    -46.548107147216797     
  -1.4399999999999996E-002    -54.508777618408203     
  -1.3299999999999992E-002    -62.811317443847656     
  -1.2199999999999989E-002    -71.779769897460938     
  -1.1099999999999985E-002    -82.496559143066406     
  -9.9999999999999950E-003    -96.710105895996094     
  -8.8999999999999913E-003    -116.06065368652344     
  -7.7999999999999875E-003    -141.59164428710938     
  -6.6999999999999837E-003    -174.18139648437500     
  -5.5999999999999939E-003    -215.20613098144531     
  -4.4999999999999901E-003    -266.44271850585938     
  -3.3999999999999864E-003    -329.40557861328125     
  -2.2999999999999826E-003    -405.20745849609375     
  -1.1999999999999927E-003    -495.14224243164062     
  -9.9999999999988987E-005    -601.13702392578125     
   1.0000000000000148E-003    -725.43872070312500     
   2.1000000000000185E-003    -870.56341552734375     
   3.2000000000000084E-003    -1040.1550292968750     
   4.3000000000000121E-003    -1239.8140869140625     
   5.4000000000000159E-003    -1476.0660400390625     
   6.5000000000000058E-003    -1754.0794677734375     
   7.6000000000000234E-003    -2077.4357910156250     
   8.7000000000000133E-003    -2450.5859375000000     
   9.8000000000000032E-003    -2881.4360351562500     
   1.0900000000000021E-002    -3379.8415527343750     
   1.2000000000000011E-002    -3953.8999023437500     
   1.3100000000000001E-002    -4608.9038085937500     
   1.4200000000000018E-002    -5350.5449218750000     
   1.5300000000000008E-002    -6188.5483398437500     
   1.6400000000000026E-002    -7135.9912109375000     
   1.7500000000000016E-002    -8205.1621093750000     
   1.8600000000000005E-002    -9405.0087890625000     
   1.9700000000000023E-002    -10742.773437500000     
   2.0800000000000013E-002    -12226.145507812500     
   2.1900000000000003E-002    -13862.837890625000     
   2.3000000000000020E-002    -15659.046875000000     
   2.4100000000000010E-002    -17621.804687500000     
   2.5200000000000000E-002    -19757.335937500000     
   2.6300000000000018E-002    -22069.162109375000     
   2.7400000000000008E-002    -24554.527343750000     
   2.8500000000000025E-002    -27204.505859375000     
   2.9600000000000015E-002    -30013.638671875000     
   3.0700000000000005E-002    -32979.160156250000     
   3.1800000000000023E-002    -36092.757812500000     
   3.2900000000000013E-002    -39329.574218750000     
   3.4000000000000002E-002    -42651.910156250000     
   3.5100000000000020E-002    -46022.046875000000     
   3.6200000000000010E-002    -49409.023437500000     
   3.7300000000000028E-002    -52778.253906250000     
   3.8400000000000017E-002    -56077.789062500000     
   3.9500000000000007E-002    -59241.097656250000     
   4.0600000000000025E-002    -62192.382812500000     
   4.1700000000000015E-002    -64860.113281250000     
   4.2800000000000005E-002    -67172.789062500000     
   4.3900000000000022E-002    -69054.242187500000     
   4.5000000000000012E-002    -70420.000000000000     
   4.6100000000000002E-002    -71166.296875000000     
   4.7200000000000020E-002    -71186.007812500000     
   4.8300000000000010E-002    -70375.304687500000     
   4.9400000000000027E-002    -68636.953125000000     
   5.0500000000000017E-002    -65890.210937500000     
   5.1600000000000007E-002    -62059.328125000000     
   5.2700000000000025E-002    -57061.351562500000     
   5.3800000000000014E-002    -50787.972656250000     
   5.4900000000000004E-002    -43146.937500000000     
   5.6000000000000022E-002    -34104.074218750000     
   5.7100000000000012E-002    -23681.220703125000     
   5.8200000000000002E-002    -11884.061523437500     
   5.9300000000000019E-002     1319.5932617187500     
   6.0400000000000009E-002     15947.595703125000     
   6.1500000000000027E-002     31929.222656250000     
   6.2600000000000017E-002     49146.792968750000     
   6.3700000000000007E-002     67457.195312500000     
   6.4800000000000024E-002     86726.585937500000     
   6.5900000000000014E-002     106790.55468750000     
   6.7000000000000004E-002     127465.00781250000     
   6.8100000000000022E-002     148527.84375000000     
   6.9200000000000012E-002     169711.35937500000     
   7.0300000000000029E-002     190737.92187500000     
   7.1400000000000019E-002     211270.81250000000     
   7.2500000000000009E-002     230964.00000000000     
   7.3600000000000027E-002     249522.25000000000     
   7.4700000000000016E-002     266662.50000000000     
   7.5800000000000006E-002     282087.93750000000     
   7.6900000000000024E-002     295408.06250000000     
   7.8000000000000014E-002     306229.31250000000     
   7.9100000000000004E-002     314236.81250000000     
   8.0200000000000021E-002     319245.18750000000     
   8.1300000000000011E-002     321084.78125000000     
   8.2400000000000029E-002     319525.56250000000     
   8.3500000000000019E-002     314335.50000000000     
   8.4600000000000009E-002     305359.31250000000     
   8.5700000000000026E-002     292569.65625000000     
   8.6800000000000016E-002     276017.40625000000     
   8.7900000000000006E-002     255787.90625000000     
   8.9000000000000024E-002     232002.01562500000     
   9.0100000000000013E-002     204830.56250000000     
   9.1200000000000003E-002     174490.12500000000     
   9.2300000000000021E-002     141243.18750000000     
   9.3400000000000011E-002     105438.12500000000     
   9.4500000000000028E-002     67556.429687500000     
   9.5600000000000018E-002     28115.564453125000     
   9.6700000000000008E-002    -12405.030273437500     
   9.7800000000000026E-002    -53592.113281250000     
   9.8900000000000016E-002    -94997.023437500000     
  0.10000000000000001         -136045.26562500000     
  0.10110000000000002         -176033.06250000000     
  0.10220000000000001         -214375.40625000000     
  0.10330000000000003         -250634.10937500000     
  0.10440000000000002         -284429.18750000000     
  0.10550000000000001         -315341.34375000000     
  0.10660000000000003         -342891.56250000000     
  0.10770000000000002         -366639.71875000000     
  0.10880000000000001         -386268.43750000000     
  0.10990000000000003         -401610.25000000000     
  0.11100000000000002         -412523.62500000000     
  0.11210000000000001         -418945.09375000000     
  0.11320000000000002         -420867.37500000000     
  0.11430000000000001         -418309.00000000000     
  0.11540000000000003         -411334.09375000000     
  0.11650000000000002         -400022.15625000000     
  0.11760000000000001         -384693.56250000000     
  0.11870000000000003         -365757.75000000000     
  0.11980000000000002         -343654.96875000000     
  0.12090000000000001         -318666.46875000000     
  0.12200000000000003         -291033.81250000000     
  0.12310000000000001         -261146.56250000000     
  0.12420000000000003         -229605.93750000000     
  0.12530000000000002         -197072.82812500000     
  0.12640000000000001         -163964.39062500000     
  0.12750000000000003         -130570.84375000000     
  0.12860000000000002         -97282.203125000000     
  0.12970000000000001         -64582.019531250000     
  0.13080000000000003         -32891.582031250000     
  0.13190000000000002         -2556.6960449218750     
  0.13300000000000001          26119.951171875000     
  0.13410000000000000          52814.449218750000     
  0.13520000000000004          77271.750000000000     
  0.13630000000000003          99399.343750000000     
  0.13740000000000002          119201.35937500000     
  0.13850000000000001          136572.79687500000     
  0.13960000000000000          151264.25000000000     
  0.14070000000000005          163168.00000000000     
  0.14180000000000004          172442.57812500000     
  0.14290000000000003          179366.06250000000     
  0.14400000000000002          184069.96875000000     
  0.14510000000000001          186509.18750000000     
  0.14620000000000000          186715.01562500000     
  0.14730000000000004          184926.93750000000     
  0.14840000000000003          181456.21875000000     
  0.14950000000000002          176496.04687500000     
  0.15060000000000001          170156.45312500000     
  0.15170000000000000          162642.95312500000     
  0.15280000000000005          154252.92187500000     
  0.15390000000000004          145196.89062500000     
  0.15500000000000003          135531.48437500000     
  0.15610000000000002          125323.22656250000     
  0.15720000000000001          114848.32031250000     
  0.15830000000000000          104453.52343750000     
  0.15940000000000004          94290.882812500000     
  0.16050000000000003          84274.312500000000     
  0.16160000000000002          74361.835937500000     
  0.16270000000000001          64747.855468750000     
  0.16380000000000000          55691.718750000000     
  0.16490000000000005          47260.488281250000     
  0.16600000000000004          39338.609375000000     
  0.16710000000000003          31899.689453125000     
  0.16820000000000002          25077.724609375000     
  0.16930000000000001          18952.105468750000     
  0.17040000000000000          13414.697265625000     
  0.17150000000000004          8331.2568359375000     
  0.17260000000000003          3768.2680664062500     
  0.17370000000000002         -106.65629577636719     
  0.17480000000000001         -3309.5490722656250     
  0.17590000000000000         -6076.2333984375000     
  0.17700000000000005         -8590.3261718750000     
  0.17810000000000004         -10765.545898437500     
  0.17920000000000003         -12424.125976562500     
  0.18030000000000002         -13590.117187500000     
  0.18140000000000001         -14486.769531250000     
  0.18250000000000000         -15247.133789062500     
  0.18360000000000004         -15792.225585937500     
  0.18470000000000003         -16031.790039062500     
  0.18580000000000002         -16055.340820312500     
  0.18690000000000001         -16016.875000000000     
  0.18800000000000000         -15914.542968750000     
  0.18910000000000005         -15611.618164062500     
  0.19020000000000004         -15097.400390625000     
  0.19130000000000003         -14554.252929687500     
  0.19240000000000002         -14121.291015625000     
  0.19350000000000001         -13704.464843750000     
  0.19460000000000005         -13122.621093750000     
  0.19570000000000004         -12383.771484375000     
  0.19680000000000003         -11682.164062500000     
  0.19790000000000002         -11118.277343750000     
  0.19900000000000001         -10573.223632812500     
  0.20010000000000000         -9906.9882812500000     
  0.20120000000000005         -9173.8916015625000     
  0.20230000000000004         -8532.7226562500000     
  0.20340000000000003         -7996.2944335937500     
  0.20450000000000002         -7414.4550781250000     
  0.20560000000000000         -6714.2548828125000     
  0.20670000000000005         -6015.3203125000000     
  0.20780000000000004         -5454.0327148437500     
  0.20890000000000003         -4978.3266601562500     
