 -0.12000000000000000          0.0000000000000000     
 -0.11889999999999999          0.0000000000000000     
 -0.11780000000000000          0.0000000000000000     
 -0.11670000000000000          0.0000000000000000     
 -0.11559999999999999          0.0000000000000000     
 -0.11449999999999999         -8.5705659962683617E-014
 -0.11340000000000000          1.3305605532296094E-013
 -0.11230000000000000          6.7464821706594846E-013
 -0.11119999999999999         -7.3736063912685501E-013
 -0.11009999999999999         -2.7093988944765224E-012
 -0.10900000000000000          2.6490970875259201E-012
 -0.10790000000000000          5.8820296723605114E-012
 -0.10679999999999999         -1.6333125824052885E-011
 -0.10569999999999999         -1.7093271242885066E-011
 -0.10460000000000000          9.0847600275889562E-011
 -0.10349999999999999          1.4495259159641449E-010
 -0.10239999999999999         -2.3322366260458693E-010
 -0.10130000000000000         -7.5218836714796566E-010
 -0.10020000000000000         -1.2709799879218053E-010
  -9.9099999999999994E-002     1.8372029453317396E-009
  -9.7999999999999990E-002     2.3119615111255598E-009
  -9.6899999999999986E-002    -1.1700904689604386E-009
  -9.5799999999999996E-002    -5.0252855210430880E-009
  -9.4699999999999993E-002    -3.0710538556633082E-009
  -9.3599999999999989E-002     2.0245687348818819E-009
  -9.2499999999999999E-002     8.9698320993036873E-010
  -9.1399999999999995E-002    -1.5437997546996485E-009
  -9.0299999999999991E-002     1.4648225743485455E-008
  -8.9200000000000002E-002     4.0671771728284511E-008
  -8.8099999999999984E-002     1.7324870427160022E-008
  -8.6999999999999994E-002    -8.3621024771218799E-008
  -8.5899999999999990E-002    -1.5872319636400789E-007
  -8.4799999999999986E-002    -5.4668763738163761E-008
  -8.3699999999999997E-002     1.8970767712289671E-007
  -8.2599999999999993E-002     3.0076938628553762E-007
  -8.1499999999999989E-002     1.1704637614684543E-007
  -8.0399999999999999E-002    -1.2511672764503601E-007
  -7.9299999999999995E-002    -1.2124142756420042E-007
  -7.8199999999999992E-002    -6.8302782096907322E-008
  -7.7100000000000002E-002    -4.3635415636344987E-007
  -7.5999999999999984E-002    -9.6957251116691623E-007
  -7.4899999999999994E-002    -5.4321066045304178E-007
  -7.3799999999999991E-002     1.2404979088387336E-006
  -7.2699999999999987E-002     2.7264065920462599E-006
  -7.1599999999999997E-002     1.7777095990823000E-006
  -7.0499999999999993E-002    -1.0722415026975796E-006
  -6.9399999999999989E-002    -2.5981842100009089E-006
  -6.8300000000000000E-002    -1.1921728173547308E-006
  -6.7199999999999996E-002     2.7667041990753205E-007
  -6.6099999999999992E-002    -1.6512542515556561E-006
  -6.5000000000000002E-002    -4.8865595090319403E-006
  -6.3899999999999985E-002    -3.2365051083615981E-006
  -6.2799999999999995E-002     4.4964572225580923E-006
  -6.1699999999999991E-002     1.0658513019734528E-005
  -6.0599999999999994E-002     8.1065090853371657E-006
  -5.9499999999999990E-002     1.0339150549043552E-006
  -5.8399999999999994E-002    -6.1061342648827122E-008
  -5.7299999999999990E-002     5.1251563490950502E-006
  -5.6199999999999986E-002     3.1513563953922130E-006
  -5.5099999999999996E-002    -1.4437118807109073E-005
  -5.3999999999999992E-002    -3.4609773138072342E-005
  -5.2899999999999989E-002    -3.5105174902128056E-005
  -5.1799999999999985E-002    -1.2448014786059503E-005
  -5.0699999999999995E-002     1.3307172594068106E-005
  -4.9599999999999991E-002     2.5746272513060831E-005
  -4.8499999999999988E-002     3.2649684726493433E-005
  -4.7399999999999998E-002     4.8958499974105507E-005
  -4.6299999999999994E-002     6.7354936618357897E-005
  -4.5199999999999990E-002     6.2841376347932965E-005
  -4.4099999999999986E-002     2.7295720428810455E-005
  -4.2999999999999997E-002    -1.7905953427543864E-005
  -4.1899999999999993E-002    -5.1405939302640036E-005
  -4.0799999999999989E-002    -7.7285076258704066E-005
  -3.9699999999999985E-002    -1.0477828618604690E-004
  -3.8599999999999995E-002    -1.1544849257916212E-004
  -3.7499999999999992E-002    -7.7487777161877602E-005
  -3.6399999999999988E-002     6.4855166783672757E-006
  -3.5299999999999984E-002     9.3498681962955743E-005
  -3.4199999999999994E-002     1.5324783453252167E-004
  -3.3099999999999991E-002     1.9918617908842862E-004
  -3.1999999999999987E-002     2.4084532924462110E-004
  -3.0899999999999997E-002     2.2890498803462833E-004
  -2.9799999999999993E-002     9.5436531410086900E-005
  -2.8699999999999989E-002    -1.4830802683718503E-004
  -2.7599999999999986E-002    -4.0307143353857100E-004
  -2.6499999999999996E-002    -5.9678981779143214E-004
  -2.5399999999999992E-002    -7.6694815652444959E-004
  -2.4299999999999988E-002    -9.7831222228705883E-004
  -2.3199999999999985E-002    -1.1842586100101471E-003
  -2.2099999999999995E-002    -1.2440177379176021E-003
  -2.0999999999999991E-002    -1.1020153760910034E-003
  -1.9899999999999987E-002    -8.8954216334968805E-004
  -1.8799999999999983E-002    -8.0197013448923826E-004
  -1.7699999999999994E-002    -9.1451563639566302E-004
  -1.6599999999999990E-002    -1.1781776556745172E-003
  -1.5499999999999986E-002    -1.5717934584245086E-003
  -1.4399999999999996E-002    -2.1663545630872250E-003
  -1.3299999999999992E-002    -3.0190418474376202E-003
  -1.2199999999999989E-002    -4.0834089741110802E-003
  -1.1099999999999985E-002    -5.2812234498560429E-003
  -9.9999999999999950E-003    -6.6103585995733738E-003
  -8.8999999999999913E-003    -8.0987475812435150E-003
  -7.7999999999999875E-003    -9.6958279609680176E-003
  -6.6999999999999837E-003    -1.1337149888277054E-002
  -5.5999999999999939E-003    -1.3134314678609371E-002
  -4.4999999999999901E-003    -1.5377700328826904E-002
  -3.3999999999999864E-003    -1.8272629007697105E-002
  -2.2999999999999826E-003    -2.1735908463597298E-002
  -1.1999999999999927E-003    -2.5582972913980484E-002
  -9.9999999999988987E-005    -2.9899463057518005E-002
   1.0000000000000148E-003    -3.5020384937524796E-002
   2.1000000000000185E-003    -4.1145320981740952E-002
   3.2000000000000084E-003    -4.8096053302288055E-002
   4.3000000000000121E-003    -5.5603787302970886E-002
   5.4000000000000159E-003    -6.3757024705410004E-002
   6.5000000000000058E-003    -7.2942472994327545E-002
   7.6000000000000234E-003    -8.3358414471149445E-002
   8.7000000000000133E-003    -9.4895608723163605E-002
   9.8000000000000032E-003   -0.10737676918506622     
   1.0900000000000021E-002   -0.12085623294115067     
   1.2000000000000011E-002   -0.13554300367832184     
   1.3100000000000001E-002   -0.15151365101337433     
   1.4200000000000018E-002   -0.16879081726074219     
   1.5300000000000008E-002   -0.18721929192543030     
   1.6400000000000026E-002   -0.20678235590457916     
   1.7500000000000016E-002   -0.22727632522583008     
   1.8600000000000005E-002   -0.24815069139003754     
   1.9700000000000023E-002   -0.26919060945510864     
   2.0800000000000013E-002   -0.29036223888397217     
   2.1900000000000003E-002   -0.31168037652969360     
   2.3000000000000020E-002   -0.33248412609100342     
   2.4100000000000010E-002   -0.35205405950546265     
   2.5200000000000000E-002   -0.36971330642700195     
   2.6300000000000018E-002   -0.38531178236007690     
   2.7400000000000008E-002   -0.39893376827239990     
   2.8500000000000025E-002   -0.40984600782394409     
   2.9600000000000015E-002   -0.41705644130706787     
   3.0700000000000005E-002   -0.41894453763961792     
   3.1800000000000023E-002   -0.41466641426086426     
   3.2900000000000013E-002   -0.40410089492797852     
   3.4000000000000002E-002   -0.38630321621894836     
   3.5100000000000020E-002   -0.36007580161094666     
   3.6200000000000010E-002   -0.32512837648391724     
   3.7300000000000028E-002   -0.28028294444084167     
   3.8400000000000017E-002   -0.22579467296600342     
   3.9500000000000007E-002   -0.16048087179660797     
   4.0600000000000025E-002    -8.3403840661048889E-002
   4.1700000000000015E-002     4.8723602667450905E-003
   4.2800000000000005E-002    0.10429372638463974     
   4.3900000000000022E-002    0.21461735665798187     
   4.5000000000000012E-002    0.33728739619255066     
   4.6100000000000002E-002    0.47085243463516235     
   4.7200000000000020E-002    0.61398130655288696     
   4.8300000000000010E-002    0.76546609401702881     
   4.9400000000000027E-002    0.92527967691421509     
   5.0500000000000017E-002     1.0903146266937256     
   5.1600000000000007E-002     1.2585110664367676     
   5.2700000000000025E-002     1.4262127876281738     
   5.3800000000000014E-002     1.5925298929214478     
   5.4900000000000004E-002     1.7563159465789795     
   5.6000000000000022E-002     1.9140542745590210     
   5.7100000000000012E-002     2.0606567859649658     
   5.8200000000000002E-002     2.1904439926147461     
   5.9300000000000019E-002     2.3016958236694336     
   6.0400000000000009E-002     2.3942184448242188     
   6.1500000000000027E-002     2.4650824069976807     
   6.2600000000000017E-002     2.5077323913574219     
   6.3700000000000007E-002     2.5178618431091309     
   6.4800000000000024E-002     2.4950470924377441     
   6.5900000000000014E-002     2.4363195896148682     
   6.7000000000000004E-002     2.3410174846649170     
   6.8100000000000022E-002     2.2095830440521240     
   6.9200000000000012E-002     2.0385642051696777     
   7.0300000000000029E-002     1.8277765512466431     
   7.1400000000000019E-002     1.5774623155593872     
   7.2500000000000009E-002     1.2892732620239258     
   7.3600000000000027E-002    0.96832722425460815     
   7.4700000000000016E-002    0.61693918704986572     
   7.5800000000000006E-002    0.24027638137340546     
   7.6900000000000024E-002   -0.16211289167404175     
   7.8000000000000014E-002   -0.58634114265441895     
   7.9100000000000004E-002    -1.0227669477462769     
   8.0200000000000021E-002    -1.4599121809005737     
   8.1300000000000011E-002    -1.8944249153137207     
   8.2400000000000029E-002    -2.3243820667266846     
   8.3500000000000019E-002    -2.7439479827880859     
   8.4600000000000009E-002    -3.1429541110992432     
   8.5700000000000026E-002    -3.5116484165191650     
   8.6800000000000016E-002    -3.8421847820281982     
   8.7900000000000006E-002    -4.1292037963867188     
   8.9000000000000024E-002    -4.3684077262878418     
   9.0100000000000013E-002    -4.5573768615722656     
   9.1200000000000003E-002    -4.6958236694335938     
   9.2300000000000021E-002    -4.7792725563049316     
   9.3400000000000011E-002    -4.7961020469665527     
   9.4500000000000028E-002    -4.7417454719543457     
   9.5600000000000018E-002    -4.6213374137878418     
   9.6700000000000008E-002    -4.4451551437377930     
   9.7800000000000026E-002    -4.2218208312988281     
   9.8900000000000016E-002    -3.9446229934692383     
  0.10000000000000001         -3.6042456626892090     
  0.10110000000000002         -3.2073333263397217     
  0.10220000000000001         -2.7726085186004639     
  0.10330000000000003         -2.3131926059722900     
  0.10440000000000002         -1.8284652233123779     
  0.10550000000000001         -1.3263018131256104     
  0.10660000000000003        -0.81234830617904663     
  0.10770000000000002        -0.29280775785446167     
  0.10880000000000001         0.22745345532894135     
  0.10990000000000003         0.73560041189193726     
  0.11100000000000002          1.2194478511810303     
  0.11210000000000001          1.6681476831436157     
  0.11320000000000002          2.0768444538116455     
  0.11430000000000001          2.4545104503631592     
  0.11540000000000003          2.8024156093597412     
  0.11650000000000002          3.1040461063385010     
  0.11760000000000001          3.3440499305725098     
  0.11870000000000003          3.5199306011199951     
  0.11980000000000002          3.6454772949218750     
  0.12090000000000001          3.7307500839233398     
  0.12200000000000003          3.7705719470977783     
  0.12310000000000001          3.7559478282928467     
  0.12420000000000003          3.6862063407897949     
  0.12530000000000002          3.5720357894897461     
  0.12640000000000001          3.4237635135650635     
  0.12750000000000003          3.2398948669433594     
  0.12860000000000002          3.0220117568969727     
  0.12970000000000001          2.7796082496643066     
  0.13080000000000003          2.5241160392761230     
  0.13190000000000002          2.2539596557617188     
  0.13300000000000001          1.9650169610977173     
  0.13410000000000000          1.6654114723205566     
  0.13520000000000004          1.3728069067001343     
  0.13630000000000003          1.0951218605041504     
  0.13740000000000002         0.82396227121353149     
  0.13850000000000001         0.55186200141906738     
  0.13960000000000000         0.28917121887207031     
  0.14070000000000005          5.4231114685535431E-002
  0.14180000000000004        -0.15036776661872864     
  0.14290000000000003        -0.33993536233901978     
  0.14400000000000002        -0.52183264493942261     
  0.14510000000000001        -0.68250024318695068     
  0.14620000000000000        -0.80632591247558594     
  0.14730000000000004        -0.89919734001159668     
  0.14840000000000003        -0.97991907596588135     
  0.14950000000000002         -1.0538140535354614     
  0.15060000000000001         -1.1056087017059326     
  0.15170000000000000         -1.1245106458663940     
  0.15280000000000005         -1.1225146055221558     
  0.15390000000000004         -1.1172475814819336     
  0.15500000000000003         -1.1061989068984985     
  0.15610000000000002         -1.0757819414138794     
  0.15720000000000001         -1.0251737833023071     
  0.15830000000000000        -0.97188591957092285     
  0.15940000000000004        -0.92567884922027588     
  0.16050000000000003        -0.87494534254074097     
  0.16160000000000002        -0.80525588989257812     
  0.16270000000000001        -0.72489511966705322     
  0.16380000000000000        -0.65720772743225098     
  0.16490000000000005        -0.60495764017105103     
  0.16600000000000004        -0.54861080646514893     
  0.16710000000000003        -0.47628301382064819     
  0.16820000000000002        -0.40314015746116638     
  0.16930000000000001        -0.34906232357025146     
  0.17040000000000000        -0.30973827838897705     
  0.17150000000000004        -0.26340493559837341     
  0.17260000000000003        -0.20433570444583893     
  0.17370000000000002        -0.15251354873180389     
  0.17480000000000001        -0.12421824783086777     
  0.17590000000000000        -0.10643384605646133     
  0.17700000000000005         -7.6096065342426300E-002
  0.17810000000000004         -3.3925425261259079E-002
  0.17920000000000003         -4.1759372688829899E-003
  0.18030000000000002          3.0725833494216204E-003
  0.18140000000000001          6.1934962868690491E-003
  0.18250000000000000          2.3737685754895210E-002
  0.18360000000000004          4.6483069658279419E-002
  0.18470000000000003          5.3868666291236877E-002
  0.18580000000000002          4.7223657369613647E-002
  0.18690000000000001          4.7941174358129501E-002
  0.18800000000000000          6.2516830861568451E-002
  0.18910000000000005          7.1063168346881866E-002
  0.19020000000000004          5.8090284466743469E-002
  0.19130000000000003          4.0007557719945908E-002
  0.19240000000000002          4.2519811540842056E-002
  0.19350000000000001          6.1305828392505646E-002
  0.19460000000000005          6.6050037741661072E-002
  0.19570000000000004          4.4524818658828735E-002
  0.19680000000000003          2.0939033478498459E-002
  0.19790000000000002          2.1259678527712822E-002
  0.19900000000000001          3.6253366619348526E-002
  0.20010000000000000          3.6504656076431274E-002
  0.20120000000000005          1.7295995727181435E-002
  0.20230000000000004          3.7540241610258818E-003
  0.20340000000000003          1.0391243733465672E-002
  0.20450000000000002          1.8605103716254234E-002
  0.20560000000000000          7.3019950650632381E-003
  0.20670000000000005         -1.2454374693334103E-002
  0.20780000000000004         -1.3885595835745335E-002
  0.20890000000000003          3.6717581097036600E-003
