 -0.12000000000000000          0.0000000000000000     
 -0.11889999999999999          0.0000000000000000     
 -0.11780000000000000          0.0000000000000000     
 -0.11670000000000000          0.0000000000000000     
 -0.11559999999999999          0.0000000000000000     
 -0.11449999999999999          0.0000000000000000     
 -0.11340000000000000          0.0000000000000000     
 -0.11230000000000000          0.0000000000000000     
 -0.11119999999999999          1.0909203653995982E-021
 -0.11009999999999999         -6.0602632291712478E-021
 -0.10900000000000000         -1.1159487181604361E-020
 -0.10790000000000000          1.0746981903646969E-019
 -0.10679999999999999          9.0619846228383347E-020
 -0.10569999999999999         -1.0737567425053379E-018
 -0.10460000000000000         -1.0073549222302202E-018
 -0.10349999999999999          7.5504401112962575E-018
 -0.10239999999999999          1.0838527713947620E-017
 -0.10130000000000000         -3.7925992857539904E-017
 -0.10020000000000000         -8.7998927869629105E-017
  -9.9099999999999994E-002     1.1782552551107439E-016
  -9.7999999999999990E-002     5.1750340827316495E-016
  -9.6899999999999986E-002    -2.2669529887893515E-017
  -9.5799999999999996E-002    -2.1418426622945349E-015
  -9.4699999999999993E-002    -2.1315721760508397E-015
  -9.3599999999999989E-002     5.5063176681278709E-015
  -9.2499999999999999E-002     1.3384947616685173E-014
  -9.1399999999999995E-002    -2.8757939582333076E-015
  -9.0299999999999991E-002    -4.4681841776875175E-014
  -8.9200000000000002E-002    -4.3777600224363319E-014
  -8.8099999999999984E-002     7.2651323704871901E-014
  -8.6999999999999994E-002     2.0346104087545086E-013
  -8.5899999999999990E-002     6.5571896870619817E-014
  -8.4799999999999986E-002    -4.0398308071183664E-013
  -8.3699999999999997E-002    -6.5428061189407027E-013
  -8.2599999999999993E-002     2.6349953238780609E-014
  -8.1499999999999989E-002     1.3419986693088970E-012
  -8.0399999999999999E-002     1.7380994647014925E-012
  -7.9299999999999995E-002     6.0014967713344081E-014
  -7.8199999999999992E-002    -2.7681975635351908E-012
  -7.7100000000000002E-002    -4.5717370861231288E-012
  -7.5999999999999984E-002    -3.7991944659698795E-012
  -7.4899999999999994E-002     1.1539233110702263E-012
  -7.3799999999999991E-002     1.2516891169378486E-011
  -7.2699999999999987E-002     2.5908830636467428E-011
  -7.1599999999999997E-002     2.0619825291667837E-011
  -7.0499999999999993E-002    -2.7524420243008052E-011
  -6.9399999999999989E-002    -1.0166826408530838E-010
  -6.8300000000000000E-002    -1.1745070194191243E-010
  -6.7199999999999996E-002     1.3813825083808240E-011
  -6.6099999999999992E-002     2.5396418301681933E-010
  -6.5000000000000002E-002     3.9164363418997539E-010
  -6.3899999999999985E-002     2.0206866735428264E-010
  -6.2799999999999995E-002    -3.0168606501845829E-010
  -6.1699999999999991E-002    -8.0591511242289471E-010
  -6.0599999999999994E-002    -9.2236224213948503E-010
  -5.9499999999999990E-002    -4.6000292464043468E-010
  -5.8399999999999994E-002     5.1908721765414612E-010
  -5.7299999999999990E-002     1.7532149065857539E-009
  -5.6199999999999986E-002     2.6847164491528019E-009
  -5.5099999999999996E-002     2.3967938744817729E-009
  -5.3999999999999992E-002     1.3220108341371883E-010
  -5.2899999999999989E-002    -3.6777321188452561E-009
  -5.1799999999999985E-002    -7.0263945772808256E-009
  -5.0699999999999995E-002    -7.5326553883314773E-009
  -4.9599999999999991E-002    -4.3017758244445758E-009
  -4.8499999999999988E-002     1.6692123239181456E-009
  -4.7399999999999998E-002     8.9613294562695955E-009
  -4.6299999999999994E-002     1.6691860338369224E-008
  -4.5199999999999990E-002     2.2932402643505156E-008
  -4.4099999999999986E-002     2.2609464522815870E-008
  -4.2999999999999997E-002     9.2521981187587699E-009
  -4.1899999999999993E-002    -1.8889222630491531E-008
  -4.0799999999999989E-002    -5.3974478220197852E-008
  -3.9699999999999985E-002    -8.0634634969101171E-008
  -3.8599999999999995E-002    -8.3527403660355048E-008
  -3.7499999999999992E-002    -5.3685273115888776E-008
  -3.6399999999999988E-002     9.5337702177289430E-009
  -3.5299999999999984E-002     9.7545232335960463E-008
  -3.4199999999999994E-002     1.9013265273315483E-007
  -3.3099999999999991E-002     2.5581886120562558E-007
  -3.1999999999999987E-002     2.6020168775175989E-007
  -3.0899999999999997E-002     1.7884167391457595E-007
  -2.9799999999999993E-002     5.7278040088704074E-009
  -2.8699999999999989E-002    -2.4444921109534334E-007
  -2.7599999999999986E-002    -5.3299868341127876E-007
  -2.6499999999999996E-002    -7.9161281973938458E-007
  -2.5399999999999992E-002    -9.2732034318032674E-007
  -2.4299999999999988E-002    -8.4831276581098791E-007
  -2.3199999999999985E-002    -4.9762320486479439E-007
  -2.2099999999999995E-002     1.3147737831786799E-007
  -2.0999999999999991E-002     1.0044408327303245E-006
  -1.9899999999999987E-002     2.0570550987031311E-006
  -1.8799999999999983E-002     3.1949386993801454E-006
  -1.7699999999999994E-002     4.3000795812986325E-006
  -1.6599999999999990E-002     5.2690143093059305E-006
  -1.5499999999999986E-002     6.0648148973996285E-006
  -1.4399999999999996E-002     6.7335731728235260E-006
  -1.3299999999999992E-002     7.3725432230276056E-006
  -1.2199999999999989E-002     8.1003081504604779E-006
  -1.1099999999999985E-002     9.0748981165233999E-006
  -9.9999999999999950E-003     1.0527016456762794E-005
  -8.8999999999999913E-003     1.2733413313981146E-005
  -7.7999999999999875E-003     1.5924897525110282E-005
  -6.6999999999999837E-003     2.0218660210957751E-005
  -5.5999999999999939E-003     2.5649032977526076E-005
  -4.4999999999999901E-003     3.2255677069770172E-005
  -3.3999999999999864E-003     4.0128703403752297E-005
  -2.2999999999999826E-003     4.9387563194613904E-005
  -1.1999999999999927E-003     6.0166948969708756E-005
  -9.9999999999988987E-005     7.2656919655855745E-005
   1.0000000000000148E-003     8.7154883658513427E-005
   2.1000000000000185E-003     1.0408170783193782E-004
   3.2000000000000084E-003     1.2398776016198099E-004
   4.3000000000000121E-003     1.4757906319573522E-004
   5.4000000000000159E-003     1.7569451301824301E-004
   6.5000000000000058E-003     2.0915678760502487E-004
   7.6000000000000234E-003     2.4859467521309853E-004
   8.7000000000000133E-003     2.9445506515912712E-004
   9.8000000000000032E-003     3.4726335434243083E-004
   1.0900000000000021E-002     4.0785712189972401E-004
   1.2000000000000011E-002     4.7729280777275562E-004
   1.3100000000000001E-002     5.5655057076364756E-004
   1.4200000000000018E-002     6.4646179089322686E-004
   1.5300000000000008E-002     7.4800330912694335E-004
   1.6400000000000026E-002     8.6259911768138409E-004
   1.7500000000000016E-002     9.9199183750897646E-004
   1.8600000000000005E-002     1.1377666378393769E-003
   1.9700000000000023E-002     1.3010234106332064E-003
   2.0800000000000013E-002     1.4825259568169713E-003
   2.1900000000000003E-002     1.6830385429784656E-003
   2.3000000000000020E-002     1.9034070428460836E-003
   2.4100000000000010E-002     2.1444123703986406E-003
   2.5200000000000000E-002     2.4066555779427290E-003
   2.6300000000000018E-002     2.6905215345323086E-003
   2.7400000000000008E-002     2.9960614629089832E-003
   2.8500000000000025E-002     3.3228930551558733E-003
   2.9600000000000015E-002     3.6703322548419237E-003
   3.0700000000000005E-002     4.0375706739723682E-003
   3.1800000000000023E-002     4.4235028326511383E-003
   3.2900000000000013E-002     4.8259831964969635E-003
   3.4000000000000002E-002     5.2412324585020542E-003
   3.5100000000000020E-002     5.6644026190042496E-003
   3.6200000000000010E-002     6.0907867737114429E-003
   3.7300000000000028E-002     6.5161096863448620E-003
   3.8400000000000017E-002     6.9352528080344200E-003
   3.9500000000000007E-002     7.3407660238444805E-003
   4.0600000000000025E-002     7.7232611365616322E-003
   4.1700000000000015E-002     8.0732284113764763E-003
   4.2800000000000005E-002     8.3822244778275490E-003
   4.3900000000000022E-002     8.6417170241475105E-003
   4.5000000000000012E-002     8.8412258774042130E-003
   4.6100000000000002E-002     8.9682266116142273E-003
   4.7200000000000020E-002     9.0097235515713692E-003
   4.8300000000000010E-002     8.9532397687435150E-003
   4.9400000000000027E-002     8.7871765717864037E-003
   5.0500000000000017E-002     8.5005536675453186E-003
   5.1600000000000007E-002     8.0831237137317657E-003
   5.2700000000000025E-002     7.5246584601700306E-003
   5.3800000000000014E-002     6.8143475800752640E-003
   5.4900000000000004E-002     5.9419651515781879E-003
   5.6000000000000022E-002     4.9000135622918606E-003
   5.7100000000000012E-002     3.6854771897196770E-003
   5.8200000000000002E-002     2.2994910832494497E-003
   5.9300000000000019E-002     7.4440869502723217E-004
   6.0400000000000009E-002    -9.7927253227680922E-004
   6.1500000000000027E-002    -2.8704327996820211E-003
   6.2600000000000017E-002    -4.9206856638193130E-003
   6.3700000000000007E-002    -7.1117333136498928E-003
   6.4800000000000024E-002    -9.4224708154797554E-003
   6.5900000000000014E-002    -1.1833843775093555E-002
   6.7000000000000004E-002    -1.4327399432659149E-002
   6.8100000000000022E-002    -1.6880344599485397E-002
   6.9200000000000012E-002    -1.9460119307041168E-002
   7.0300000000000029E-002    -2.2028777748346329E-002
   7.1400000000000019E-002    -2.4548500776290894E-002
   7.2500000000000009E-002    -2.6982940733432770E-002
   7.3600000000000027E-002    -2.9295632615685463E-002
   7.4700000000000016E-002    -3.1448826193809509E-002
   7.5800000000000006E-002    -3.3403087407350540E-002
   7.6900000000000024E-002    -3.5117022693157196E-002
   7.8000000000000014E-002    -3.6548975855112076E-002
   7.9100000000000004E-002    -3.7660431116819382E-002
   8.0200000000000021E-002    -3.8419507443904877E-002
   8.1300000000000011E-002    -3.8801740854978561E-002
   8.2400000000000029E-002    -3.8785707205533981E-002
   8.3500000000000019E-002    -3.8347583264112473E-002
   8.4600000000000009E-002    -3.7464216351509094E-002
   8.5700000000000026E-002    -3.6124203354120255E-002
   8.6800000000000016E-002    -3.4332986921072006E-002
   8.7900000000000006E-002    -3.2104756683111191E-002
   8.9000000000000024E-002    -2.9453203082084656E-002
   9.0100000000000013E-002    -2.6390537619590759E-002
   9.1200000000000003E-002    -2.2936325520277023E-002
   9.2300000000000021E-002    -1.9124954938888550E-002
   9.3400000000000011E-002    -1.5003552660346031E-002
   9.4500000000000028E-002    -1.0624641552567482E-002
   9.5600000000000018E-002    -6.0399281792342663E-003
   9.6700000000000008E-002    -1.3002239866182208E-003
   9.7800000000000026E-002     3.5397042520344257E-003
   9.8900000000000016E-002     8.4186764433979988E-003
  0.10000000000000001          1.3270306400954723E-002
  0.10110000000000002          1.8025174736976624E-002
  0.10220000000000001          2.2615522146224976E-002
  0.10330000000000003          2.6982193812727928E-002
  0.10440000000000002          3.1075820326805115E-002
  0.10550000000000001          3.4849572926759720E-002
  0.10660000000000003          3.8250003010034561E-002
  0.10770000000000002          4.1221570223569870E-002
  0.10880000000000001          4.3721642345190048E-002
  0.10990000000000003          4.5728459954261780E-002
  0.11100000000000002          4.7233957797288895E-002
  0.11210000000000001          4.8228736966848373E-002
  0.11320000000000002          4.8697493970394135E-002
  0.11430000000000001          4.8633173108100891E-002
  0.11540000000000003          4.8048004508018494E-002
  0.11650000000000002          4.6969428658485413E-002
  0.11760000000000001          4.5428246259689331E-002
  0.11870000000000003          4.3453428894281387E-002
  0.11980000000000002          4.1079327464103699E-002
  0.12090000000000001          3.8349099457263947E-002
  0.12200000000000003          3.5309456288814545E-002
  0.12310000000000001          3.2007370144128799E-002
  0.12420000000000003          2.8494132682681084E-002
  0.12530000000000002          2.4830089882016182E-002
  0.12640000000000001          2.1076083183288574E-002
  0.12750000000000003          1.7278915271162987E-002
  0.12860000000000002          1.3476197607815266E-002
  0.12970000000000001          9.7139989957213402E-003
  0.13080000000000003          6.0504334978759289E-003
  0.13190000000000002          2.5372921954840422E-003
  0.13300000000000001         -7.9536385601386428E-004
  0.13410000000000000         -3.9291600696742535E-003
  0.13520000000000004         -6.8379379808902740E-003
  0.13630000000000003         -9.4883181154727936E-003
  0.13740000000000002         -1.1857105419039726E-002
  0.13850000000000001         -1.3939724303781986E-002
  0.13960000000000000         -1.5738638117909431E-002
  0.14070000000000005         -1.7248651012778282E-002
  0.14180000000000004         -1.8461456522345543E-002
  0.14290000000000003         -1.9382793456315994E-002
  0.14400000000000002         -2.0034121349453926E-002
  0.14510000000000001         -2.0435249432921410E-002
  0.14620000000000000         -2.0594647154211998E-002
  0.14730000000000004         -2.0521515980362892E-002
  0.14840000000000003         -2.0239781588315964E-002
  0.14950000000000002         -1.9781263545155525E-002
  0.15060000000000001         -1.9168572500348091E-002
  0.15170000000000000         -1.8414041027426720E-002
  0.15280000000000005         -1.7536194995045662E-002
  0.15390000000000004         -1.6566928476095200E-002
  0.15500000000000003         -1.5536184422671795E-002
  0.15610000000000002         -1.4456600882112980E-002
  0.15720000000000001         -1.3333386741578579E-002
  0.15830000000000000         -1.2185804545879364E-002
  0.15940000000000004         -1.1045549064874649E-002
  0.16050000000000003         -9.9336411803960800E-003
  0.16160000000000002         -8.8498489931225777E-003
  0.16270000000000001         -7.7905557118356228E-003
  0.16380000000000000         -6.7685339599847794E-003
  0.16490000000000005         -5.8056893758475780E-003
  0.16600000000000004         -4.9116141162812710E-003
  0.16710000000000003         -4.0793525986373425E-003
  0.16820000000000002         -3.3035450614988804E-003
  0.16930000000000001         -2.5930285919457674E-003
  0.17040000000000000         -1.9580936059355736E-003
  0.17150000000000004         -1.3931619469076395E-003
  0.17260000000000003         -8.8378123473376036E-004
  0.17370000000000002         -4.2753023444674909E-004
  0.17480000000000001         -3.5714827390620485E-005
  0.17590000000000000          2.8775027021765709E-004
  0.17700000000000005          5.5793521460145712E-004
  0.17810000000000004          7.9240440391004086E-004
  0.17920000000000003          9.9077087361365557E-004
  0.18030000000000002          1.1411303421482444E-003
  0.18140000000000001          1.2439142446964979E-003
  0.18250000000000000          1.3165794080123305E-003
  0.18360000000000004          1.3725095195695758E-003
  0.18470000000000003          1.4070175820961595E-003
  0.18580000000000002          1.4113421784713864E-003
  0.18690000000000001          1.3924617087468505E-003
  0.18800000000000000          1.3672395143657923E-003
  0.18910000000000005          1.3398530427366495E-003
  0.19020000000000004          1.2985087232664227E-003
  0.19130000000000003          1.2371191987767816E-003
  0.19240000000000002          1.1686014477163553E-003
  0.19350000000000001          1.1095913359895349E-003
  0.19460000000000005          1.0588564909994602E-003
  0.19570000000000004          1.0017061140388250E-003
  0.19680000000000003          9.3375064898282290E-004
  0.19790000000000002          8.6796696996316314E-004
  0.19900000000000001          8.1568601308390498E-004
  0.20010000000000000          7.7101122587919235E-004
  0.20120000000000005          7.2220392758026719E-004
  0.20230000000000004          6.7135528661310673E-004
  0.20340000000000003          6.3143152510747313E-004
  0.20450000000000002          6.0598546406254172E-004
  0.20560000000000000          5.8358703972771764E-004
  0.20670000000000005          5.5564031936228275E-004
  0.20780000000000004          5.2975310245528817E-004
  0.20890000000000003          5.1811349112540483E-004
