 -0.12000000000000000          0.0000000000000000     
 -0.11889999999999999          0.0000000000000000     
 -0.11780000000000000          0.0000000000000000     
 -0.11670000000000000          0.0000000000000000     
 -0.11559999999999999          0.0000000000000000     
 -0.11449999999999999          0.0000000000000000     
 -0.11340000000000000          0.0000000000000000     
 -0.11230000000000000          0.0000000000000000     
 -0.11119999999999999          0.0000000000000000     
 -0.11009999999999999          0.0000000000000000     
 -0.10900000000000000          8.9070157697128113E-028
 -0.10790000000000000         -2.0270081404725223E-027
 -0.10679999999999999         -1.4855797752242984E-026
 -0.10569999999999999          3.1235551513856522E-026
 -0.10460000000000000          1.4590657904212709E-025
 -0.10349999999999999         -2.4132093255422548E-025
 -0.10239999999999999         -1.0752430517956588E-024
 -0.10130000000000000          1.1442747904973522E-024
 -0.10020000000000000          6.2736048865264442E-024
  -9.9099999999999994E-002    -3.0681672057740154E-024
  -9.7999999999999990E-002    -2.9395891891102322E-023
  -9.6899999999999986E-002    -1.9044125306021683E-026
  -9.5799999999999996E-002     1.1322032109964670E-022
  -9.4699999999999993E-002     4.6618678671678337E-023
  -9.3599999999999989E-002    -3.7613541768856090E-022
  -9.2499999999999999E-002    -3.0327370012745154E-022
  -9.1399999999999995E-002     1.1327311545795643E-021
  -9.0299999999999991E-002     1.4758427848045584E-021
  -8.9200000000000002E-002    -2.9997468634617217E-021
  -8.8099999999999984E-002    -6.3281017265765039E-021
  -8.6999999999999994E-002     5.5913499687720651E-021
  -8.5899999999999990E-002     2.2743395565630852E-020
  -8.4799999999999986E-002    -2.1917958777440469E-022
  -8.3699999999999997E-002    -6.2687656540132457E-020
  -8.2599999999999993E-002    -4.5904003583892404E-020
  -8.1499999999999989E-002     1.2108035869534231E-019
  -8.0399999999999999E-002     1.9439579330426946E-019
  -7.9299999999999995E-002    -1.3725843466383686E-019
  -7.8199999999999992E-002    -5.0191990910858806E-019
  -7.7100000000000002E-002    -1.1495543643789842E-021
  -7.5999999999999984E-002     1.0375846513062769E-018
  -7.4899999999999994E-002     4.8259345448174598E-019
  -7.3799999999999991E-002    -2.0785262083334471E-018
  -7.2699999999999987E-002    -2.1767836845761710E-018
  -7.1599999999999997E-002     3.6678255423591441E-018
  -7.0499999999999993E-002     7.7374623390720468E-018
  -6.9399999999999989E-002    -2.5631492021468802E-018
  -6.8300000000000000E-002    -1.9364049985682612E-017
  -6.7199999999999996E-002    -1.0981084020715009E-017
  -6.6099999999999992E-002     2.9396576219481012E-017
  -6.5000000000000002E-002     4.4981545697596711E-017
  -6.3899999999999985E-002    -1.6910293144799185E-017
  -6.2799999999999995E-002    -8.8182872985526198E-017
  -6.1699999999999991E-002    -2.9741232602229807E-017
  -6.0599999999999994E-002     1.2524231805080045E-016
  -5.9499999999999990E-002     1.1031074846470774E-016
  -5.8399999999999994E-002    -1.7424854741472087E-016
  -5.7299999999999990E-002    -3.0451122974389756E-016
  -5.6199999999999986E-002     1.6932191262591424E-016
  -5.5099999999999996E-002     7.5855246791926736E-016
  -5.3999999999999992E-002     2.9013872175532739E-016
  -5.2899999999999989E-002    -1.2040650636976316E-015
  -5.1799999999999985E-002    -1.6138932731389155E-015
  -5.0699999999999995E-002     6.1467656322939518E-016
  -4.9599999999999991E-002     3.1298765255970487E-015
  -4.8499999999999988E-002     1.6469071234119807E-015
  -4.7399999999999998E-002    -3.2456193426746126E-015
  -4.6299999999999994E-002    -4.5195022617199824E-015
  -4.5199999999999990E-002     1.6773253470973035E-015
  -4.4099999999999986E-002     7.1989914639876591E-015
  -4.2999999999999997E-002     1.0316255669000091E-015
  -4.1899999999999993E-002    -1.1110521004739290E-014
  -4.0799999999999989E-002    -8.2797436712789968E-015
  -3.9699999999999985E-002     1.4091140160634764E-014
  -3.8599999999999995E-002     2.5390917124910872E-014
  -3.7499999999999992E-002    -3.5325110959755386E-015
  -3.6399999999999988E-002    -4.5411049053034613E-014
  -3.5299999999999984E-002    -3.3796255453476948E-014
  -3.4199999999999994E-002     4.0724625820047489E-014
  -3.3099999999999991E-002     8.5846382628408657E-014
  -3.1999999999999987E-002     1.6197146976513338E-014
  -3.0899999999999997E-002    -1.0267854004108318E-013
  -2.9799999999999993E-002    -1.0366346995215048E-013
  -2.8699999999999989E-002     4.6598568916294408E-014
  -2.7599999999999986E-002     1.5057784663249918E-013
  -2.6499999999999996E-002     3.2275404408550062E-014
  -2.5399999999999992E-002    -1.6209090818695981E-013
  -2.4299999999999988E-002    -1.0543852574894375E-013
  -2.3199999999999985E-002     2.0885369985106789E-013
  -2.2099999999999995E-002     3.2543247068493597E-013
  -2.0999999999999991E-002    -8.2495262791054680E-014
  -1.9899999999999987E-002    -6.0883644046466623E-013
  -1.8799999999999983E-002    -4.8655220477589189E-013
  -1.7699999999999994E-002     3.3633748455601242E-013
  -1.6599999999999990E-002     9.0505961015605041E-013
  -1.5499999999999986E-002     4.2730131499107982E-013
  -1.4399999999999996E-002    -5.2976319078051892E-013
  -1.3299999999999992E-002    -6.4899523472342069E-013
  -1.2199999999999989E-002     2.6494076572382286E-013
  -1.1099999999999985E-002     7.7845835246698192E-013
  -9.9999999999999950E-003    -2.3355926567769636E-013
  -8.8999999999999913E-003    -1.6862052119176463E-012
  -7.7999999999999875E-003    -1.3721107583464232E-012
  -6.6999999999999837E-003     9.8065251665641062E-013
  -5.5999999999999939E-003     2.8645267581561829E-012
  -4.4999999999999901E-003     1.9655887160963115E-012
  -3.3999999999999864E-003    -7.8088257431455088E-013
  -2.2999999999999826E-003    -2.3176228731297543E-012
  -1.1999999999999927E-003    -1.4119779564308876E-012
  -9.9999999999988987E-005     1.4785889712983424E-015
   1.0000000000000148E-003    -7.8095733005434376E-014
   2.1000000000000185E-003    -7.2168746673151318E-013
   3.2000000000000084E-003     3.6192560450357125E-013
   4.3000000000000121E-003     2.9599849047518001E-012
   5.4000000000000159E-003     3.9724404321539453E-012
   6.5000000000000058E-003     1.2304270016055829E-012
   7.6000000000000234E-003    -3.7617508934217891E-012
   8.7000000000000133E-003    -7.6243256499908263E-012
   9.8000000000000032E-003    -8.1453697953204340E-012
   1.0900000000000021E-002    -4.4627778035544186E-012
   1.2000000000000011E-002     3.8637986039813388E-012
   1.3100000000000001E-002     1.5035535316787474E-011
   1.4200000000000018E-002     2.2652674874779066E-011
   1.5300000000000008E-002     1.9031512477063472E-011
   1.6400000000000026E-002     3.0159887174502353E-012
   1.7500000000000016E-002    -1.7534210194902755E-011
   1.8600000000000005E-002    -3.3127514620368004E-011
   1.9700000000000023E-002    -4.0351947477867967E-011
   2.0800000000000013E-002    -3.8791109213676123E-011
   2.1900000000000003E-002    -2.2908784244601854E-011
   2.3000000000000020E-002     1.4229977439439434E-011
   2.4100000000000010E-002     6.4764374418935233E-011
   2.5200000000000000E-002     9.9719746349258287E-011
   2.6300000000000018E-002     8.8639887096952918E-011
   2.7400000000000008E-002     2.9051273539582034E-011
   2.8500000000000025E-002    -4.8203021435488935E-011
   2.9600000000000015E-002    -1.0411509848706757E-010
   3.0700000000000005E-002    -1.1693919443889200E-010
   3.1800000000000023E-002    -8.4838421010591247E-011
   3.2900000000000013E-002    -1.3640884428955946E-011
   3.4000000000000002E-002     8.1897766346372691E-011
   3.5100000000000020E-002     1.6307705186235921E-010
   3.6200000000000010E-002     1.6986999307189166E-010
   3.7300000000000028E-002     6.1170415954769908E-011
   3.8400000000000017E-002    -1.4675927140217482E-010
   3.9500000000000007E-002    -3.7597036595116151E-010
   4.0600000000000025E-002    -5.2328918975774741E-010
   4.1700000000000015E-002    -5.0342041646445068E-010
   4.2800000000000005E-002    -2.9124466727203924E-010
   4.3900000000000022E-002     7.7703420087171793E-011
   4.5000000000000012E-002     4.9124382339726935E-010
   4.6100000000000002E-002     7.5611128469432742E-010
   4.7200000000000020E-002     7.1021477587862591E-010
   4.8300000000000010E-002     2.9800992229489509E-010
   4.9400000000000027E-002    -4.1561709629434063E-010
   5.0500000000000017E-002    -1.2149969919050818E-009
   5.1600000000000007E-002    -1.7703399857182944E-009
   5.2700000000000025E-002    -1.8466865814303901E-009
   5.3800000000000014E-002    -1.3552082789303199E-009
   5.4900000000000004E-002    -3.5320762981072562E-010
   5.6000000000000022E-002     6.0945137825285656E-010
   5.7100000000000012E-002     1.0950963469369412E-009
   5.8200000000000002E-002     9.8858110586519388E-010
   5.9300000000000019E-002     3.2698965063415741E-011
   6.0400000000000009E-002    -1.7690571230133401E-009
   6.1500000000000027E-002    -3.6878873288515024E-009
   6.2600000000000017E-002    -5.4570081786664559E-009
   6.3700000000000007E-002    -6.6330163583927515E-009
   6.4800000000000024E-002    -5.9165561339113992E-009
   6.5900000000000014E-002    -3.1571596448287664E-009
   6.7000000000000004E-002     6.5709326868557127E-011
   6.8100000000000022E-002     2.3015092054379238E-009
   6.9200000000000012E-002     1.0970622188466450E-009
   7.0300000000000029E-002    -2.9068223383887926E-009
   7.1400000000000019E-002    -6.7837291339856165E-009
   7.2500000000000009E-002    -1.1564083912674050E-008
   7.3600000000000027E-002    -1.6069373387495034E-008
   7.4700000000000016E-002    -1.7716546452106741E-008
   7.5800000000000006E-002    -1.8437669169202309E-008
   7.6900000000000024E-002    -1.5491641747189533E-008
   7.8000000000000014E-002    -6.2420331126133988E-009
   7.9100000000000004E-002     7.7286049782188115E-010
   8.0200000000000021E-002     1.7549550701545513E-009
   8.1300000000000011E-002    -2.1944383810090784E-010
   8.2400000000000029E-002    -1.1642681485568573E-008
   8.3500000000000019E-002    -3.0042688337061918E-008
   8.4600000000000009E-002    -4.5132097170608176E-008
   8.5700000000000026E-002    -4.3178189912396192E-008
   8.6800000000000016E-002    -2.4232186035533232E-008
   8.7900000000000006E-002    -1.4027913053382690E-008
   8.9000000000000024E-002    -2.1563547392133842E-008
   9.0100000000000013E-002    -2.3675804428080482E-008
   9.1200000000000003E-002    -1.6052201345928552E-008
   9.2300000000000021E-002     5.1094315445254779E-009
   9.3400000000000011E-002     1.5353766258385804E-008
   9.4500000000000028E-002     2.8301907484262756E-009
   9.5600000000000018E-002     2.4331634485008635E-009
   9.6700000000000008E-002    -4.2153473600592406E-008
   9.7800000000000026E-002    -8.4919292930862866E-008
   9.8900000000000016E-002    -7.9072428604831657E-008
  0.10000000000000001         -3.3918588826509222E-008
  0.10110000000000002          8.1726154732564282E-009
  0.10220000000000001         -1.2013587347148302E-010
  0.10330000000000003          5.1470623319005426E-009
  0.10440000000000002          3.7807044606097406E-008
  0.10550000000000001          8.3190514033049112E-008
  0.10660000000000003          1.4917947055437253E-007
  0.10770000000000002          1.0092971081121505E-007
  0.10880000000000001         -1.0476695955219384E-008
  0.10990000000000003         -3.3019976086734459E-008
  0.11100000000000002          7.9862218171911081E-008
  0.11210000000000001          1.4228463385279611E-007
  0.11320000000000002          1.1649518683043425E-008
  0.11430000000000001          1.0597845800930372E-007
  0.11540000000000003          2.8637407467613230E-007
  0.11650000000000002          1.4572641759968974E-007
  0.11760000000000001          8.0447556172202894E-008
  0.11870000000000003          2.9862925998713763E-007
  0.11980000000000002          3.2063312005448097E-007
  0.12090000000000001          2.4430360667793138E-007
  0.12200000000000003          1.7106120253629342E-007
  0.12310000000000001         -7.6324681685946416E-008
  0.12420000000000003          7.6590772835061216E-008
  0.12530000000000002          2.2309554026378464E-007
  0.12640000000000001          4.0799730527396605E-007
  0.12750000000000003          5.3787880460731685E-007
  0.12860000000000002          1.4072769261019857E-007
  0.12970000000000001          3.8873313457088443E-009
  0.13080000000000003          6.7181169072227931E-008
  0.13190000000000002          3.0732456934856600E-007
  0.13300000000000001          4.1946034912143659E-007
  0.13410000000000000          4.8224510607042248E-008
  0.13520000000000004         -3.2363021773562650E-007
  0.13630000000000003         -3.4076899169122044E-007
  0.13740000000000002          1.2394661297321363E-008
  0.13850000000000001          2.6999745728062408E-007
  0.13960000000000000          9.5684121959038748E-008
  0.14070000000000005         -3.0691722940900945E-007
  0.14180000000000004         -3.6418788340597530E-007
  0.14290000000000003         -1.6964523297247069E-007
  0.14400000000000002          1.3095993267597805E-007
  0.14510000000000001          1.5838490696751251E-007
  0.14620000000000000         -1.8776115950913663E-007
  0.14730000000000004         -5.9464440482770442E-007
  0.14840000000000003         -9.0991238721471746E-007
  0.14950000000000002         -5.7061271263592062E-007
  0.15060000000000001          4.2372271025215014E-008
  0.15170000000000000          2.1678752659681777E-007
  0.15280000000000005         -7.5458395087935060E-009
  0.15390000000000004         -3.5395879649513518E-007
  0.15500000000000003         -6.3681937945148093E-007
  0.15610000000000002         -4.5210413190943655E-007
  0.15720000000000001          8.0483857800572878E-008
  0.15830000000000000          3.7445317957462976E-007
  0.15940000000000004          1.8420823977294276E-008
  0.16050000000000003         -8.0320728557126131E-007
  0.16160000000000002         -9.5931193300202722E-007
  0.16270000000000001         -2.6834987920665299E-007
  0.16380000000000000          5.1949984936072724E-007
  0.16490000000000005          9.3435545522879693E-007
  0.16600000000000004          8.2627741448959569E-007
  0.16710000000000003          1.1231182384108251E-007
  0.16820000000000002         -6.2773875697530457E-007
  0.16930000000000001         -6.4243573660860420E-007
  0.17040000000000000          7.9772831895752461E-008
  0.17150000000000004          1.0565420325292507E-006
  0.17260000000000003          1.1806905604316853E-006
  0.17370000000000002          4.5433611717271560E-007
  0.17480000000000001         -9.3605649453820661E-008
  0.17590000000000000         -1.3521821529138833E-007
  0.17700000000000005          9.7471986038044633E-009
  0.17810000000000004          3.6618763488149852E-007
  0.17920000000000003          8.9997354280058062E-007
  0.18030000000000002          7.2005201445790590E-007
  0.18140000000000001          2.3812880556306482E-007
  0.18250000000000000          2.1576481401552883E-007
  0.18360000000000004          5.0061623824149137E-007
  0.18470000000000003          5.7746524362300988E-007
  0.18580000000000002          1.1407999522816681E-007
  0.18690000000000001         -6.1375908444460947E-007
  0.18800000000000000         -1.0470448614796624E-006
  0.18910000000000005         -7.9407811881537782E-007
  0.19020000000000004          1.3060585501989408E-007
  0.19130000000000003          1.0101090310854488E-006
  0.19240000000000002          1.0405005923530553E-006
  0.19350000000000001          5.6767686373859760E-007
  0.19460000000000005         -3.9622091208002530E-007
  0.19570000000000004         -1.1884035302500706E-006
  0.19680000000000003         -7.4192951160512166E-007
  0.19790000000000002          2.4683205879227899E-007
  0.19900000000000001          6.3429087049371446E-007
  0.20010000000000000          2.2923825326870428E-007
  0.20120000000000005         -5.7422096233494813E-007
  0.20230000000000004         -9.1667146762119955E-007
  0.20340000000000003         -4.5630724798684241E-007
  0.20450000000000002          2.8833932219640701E-007
  0.20560000000000000          7.3209520223826985E-007
  0.20670000000000005          4.0978230231303314E-007
  0.20780000000000004         -4.2594675164764340E-007
  0.20890000000000003         -1.0425328582641669E-006
