 -0.12000000000000000          0.0000000000000000     
 -0.11889999999999999          0.0000000000000000     
 -0.11780000000000000          0.0000000000000000     
 -0.11670000000000000          0.0000000000000000     
 -0.11559999999999999          0.0000000000000000     
 -0.11449999999999999          0.0000000000000000     
 -0.11340000000000000         -5.0400041778919658E-011
 -0.11230000000000000          6.1749230728658233E-011
 -0.11119999999999999          4.5327128161964936E-010
 -0.11009999999999999         -3.4988217878506589E-010
 -0.10900000000000000         -1.9119192895544757E-009
 -0.10790000000000000          1.7202750335343353E-009
 -0.10679999999999999          4.5018269112517828E-009
 -0.10569999999999999         -1.5300422262498614E-008
 -0.10460000000000000         -2.0413299495203319E-008
 -0.10349999999999999          8.7564664852379792E-008
 -0.10239999999999999          1.8019845526850986E-007
 -0.10130000000000000         -1.8741263829724630E-007
 -0.10020000000000000         -8.7553388539163279E-007
  -9.9099999999999994E-002    -4.2462670535314828E-007
  -9.7999999999999990E-002     1.9266897197667276E-006
  -9.6899999999999986E-002     3.2367904623242794E-006
  -9.5799999999999996E-002    -3.3880974115163554E-007
  -9.4699999999999993E-002    -5.8439982240088284E-006
  -9.3599999999999989E-002    -5.2812638386967592E-006
  -9.2499999999999999E-002    -1.9170643383858987E-007
  -9.1399999999999995E-002    -1.8451584082868067E-006
  -9.0299999999999991E-002    -2.6707300548878266E-006
  -8.9200000000000002E-002     2.8631595341721550E-005
  -8.8099999999999984E-002     7.8958364611025900E-005
  -8.6999999999999994E-002     4.2796586058102548E-005
  -8.5899999999999990E-002    -1.4914677012711763E-004
  -8.4799999999999986E-002    -3.2458433997817338E-004
  -8.3699999999999997E-002    -1.6476234304718673E-004
  -8.2599999999999993E-002     3.3557356800884008E-004
  -8.1499999999999989E-002     6.7431660136207938E-004
  -8.0399999999999999E-002     4.2978354031220078E-004
  -7.9299999999999995E-002    -8.2553939137142152E-005
  -7.8199999999999992E-002    -2.9874112806282938E-004
  -7.7100000000000002E-002    -5.4656784050166607E-004
  -7.5999999999999984E-002    -1.6551497392356396E-003
  -7.4899999999999994E-002    -2.7830703184008598E-003
  -7.3799999999999991E-002    -1.0521232616156340E-003
  -7.2699999999999987E-002     4.4935764744877815E-003
  -7.1599999999999997E-002     9.1465143486857414E-003
  -7.0499999999999993E-002     6.3053136691451073E-003
  -6.9399999999999989E-002    -3.4620615188032389E-003
  -6.8300000000000000E-002    -1.0884708724915981E-002
  -6.7199999999999996E-002    -9.4780456274747849E-003
  -6.6099999999999992E-002    -5.2102589979767799E-003
  -6.5000000000000002E-002    -7.1801538579165936E-003
  -6.3899999999999985E-002    -9.6179414540529251E-003
  -6.2799999999999995E-002     4.5374687761068344E-003
  -6.1699999999999991E-002     3.5034582018852234E-002
  -6.0599999999999994E-002     5.1643263548612595E-002
  -5.9499999999999990E-002     2.7876717969775200E-002
  -5.8399999999999994E-002    -1.7235552892088890E-002
  -5.7299999999999990E-002    -3.6459300667047501E-002
  -5.6199999999999986E-002    -2.1838732063770294E-002
  -5.5099999999999996E-002    -2.5898382067680359E-002
  -5.3999999999999992E-002    -8.5925176739692688E-002
  -5.2899999999999989E-002   -0.14581152796745300     
  -5.1799999999999985E-002   -0.10320702940225601     
  -5.0699999999999995E-002     5.5662408471107483E-002
  -4.9599999999999991E-002    0.21879301965236664     
  -4.8499999999999988E-002    0.28160613775253296     
  -4.7399999999999998E-002    0.27288851141929626     
  -4.6299999999999994E-002    0.27942359447479248     
  -4.5199999999999990E-002    0.26516082882881165     
  -4.4099999999999986E-002     6.9869831204414368E-002
  -4.2999999999999997E-002   -0.36275538802146912     
  -4.1899999999999993E-002   -0.83790081739425659     
  -4.0799999999999989E-002    -1.0858993530273438     
  -3.9699999999999985E-002    -1.0451478958129883     
  -3.8599999999999995E-002   -0.84874612092971802     
  -3.7499999999999992E-002   -0.52859282493591309     
  -3.6399999999999988E-002    0.10935215651988983     
  -3.5299999999999984E-002     1.2088246345520020     
  -3.4199999999999994E-002     2.5600728988647461     
  -3.3099999999999991E-002     3.7126305103302002     
  -3.1999999999999987E-002     4.3307909965515137     
  -3.0899999999999997E-002     4.2512483596801758     
  -2.9799999999999993E-002     3.1980891227722168     
  -2.8699999999999989E-002    0.71900367736816406     
  -2.7599999999999986E-002    -3.4011909961700439     
  -2.6499999999999996E-002    -8.8299036026000977     
  -2.5399999999999992E-002    -15.053004264831543     
  -2.4299999999999988E-002    -21.975772857666016     
  -2.3199999999999985E-002    -29.821804046630859     
  -2.2099999999999995E-002    -38.386447906494141     
  -2.0999999999999991E-002    -46.829433441162109     
  -1.9899999999999987E-002    -54.606571197509766     
  -1.8799999999999983E-002    -62.441623687744141     
  -1.7699999999999994E-002    -71.946281433105469     
  -1.6599999999999990E-002    -84.317146301269531     
  -1.5499999999999986E-002    -99.914062500000000     
  -1.4399999999999996E-002    -119.32918548583984     
  -1.3299999999999992E-002    -144.33175659179688     
  -1.2199999999999989E-002    -177.18080139160156     
  -1.1099999999999985E-002    -219.21177673339844     
  -9.9999999999999950E-003    -270.78616333007812     
  -8.8999999999999913E-003    -332.75036621093750     
  -7.7999999999999875E-003    -407.32601928710938     
  -6.6999999999999837E-003    -497.22195434570312     
  -5.5999999999999939E-003    -604.44671630859375     
  -4.4999999999999901E-003    -730.78344726562500     
  -3.3999999999999864E-003    -879.17132568359375     
  -2.2999999999999826E-003    -1053.8843994140625     
  -1.1999999999999927E-003    -1259.2768554687500     
  -9.9999999999988987E-005    -1499.2443847656250     
   1.0000000000000148E-003    -1778.5803222656250     
   2.1000000000000185E-003    -2103.9953613281250     
   3.2000000000000084E-003    -2482.9123535156250     
   4.3000000000000121E-003    -2921.6247558593750     
   5.4000000000000159E-003    -3425.8366699218750     
   6.5000000000000058E-003    -4003.3298339843750     
   7.6000000000000234E-003    -4665.0249023437500     
   8.7000000000000133E-003    -5421.6738281250000     
   9.8000000000000032E-003    -6281.0463867187500     
   1.0900000000000021E-002    -7249.2475585937500     
   1.2000000000000011E-002    -8334.9160156250000     
   1.3100000000000001E-002    -9550.0703125000000     
   1.4200000000000018E-002    -10906.581054687500     
   1.5300000000000008E-002    -12413.650390625000     
   1.6400000000000026E-002    -14077.885742187500     
   1.7500000000000016E-002    -15906.583984375000     
   1.8600000000000005E-002    -17907.712890625000     
   1.9700000000000023E-002    -20085.957031250000     
   2.0800000000000013E-002    -22442.476562500000     
   2.1900000000000003E-002    -24976.130859375000     
   2.3000000000000020E-002    -27685.361328125000     
   2.4100000000000010E-002    -30563.404296875000     
   2.5200000000000000E-002    -33598.472656250000     
   2.6300000000000018E-002    -36772.640625000000     
   2.7400000000000008E-002    -40065.851562500000     
   2.8500000000000025E-002    -43456.703125000000     
   2.9600000000000015E-002    -46913.042968750000     
   3.0700000000000005E-002    -50396.371093750000     
   3.1800000000000023E-002    -53858.593750000000     
   3.2900000000000013E-002    -57243.816406250000     
   3.4000000000000002E-002    -60494.890625000000     
   3.5100000000000020E-002    -63546.035156250000     
   3.6200000000000010E-002    -66317.093750000000     
   3.7300000000000028E-002    -68730.929687500000     
   3.8400000000000017E-002    -70697.570312500000     
   3.9500000000000007E-002    -72130.296875000000     
   4.0600000000000025E-002    -72934.945312500000     
   4.1700000000000015E-002    -73008.664062500000     
   4.2800000000000005E-002    -72246.445312500000     
   4.3900000000000022E-002    -70550.726562500000     
   4.5000000000000012E-002    -67830.351562500000     
   4.6100000000000002E-002    -63991.574218750000     
   4.7200000000000020E-002    -58937.812500000000     
   4.8300000000000010E-002    -52585.820312500000     
   4.9400000000000027E-002    -44876.976562500000     
   5.0500000000000017E-002    -35758.550781250000     
   5.1600000000000007E-002    -25200.562500000000     
   5.2700000000000025E-002    -13175.054687500000     
   5.3800000000000014E-002     304.27560424804688     
   5.4900000000000004E-002     15202.578125000000     
   5.6000000000000022E-002     31462.144531250000     
   5.7100000000000012E-002     48999.464843750000     
   5.8200000000000002E-002     67702.398437500000     
   5.9300000000000019E-002     87418.421875000000     
   6.0400000000000009E-002     107960.81250000000     
   6.1500000000000027E-002     129130.09375000000     
   6.2600000000000017E-002     150714.21875000000     
   6.3700000000000007E-002     172439.35937500000     
   6.4800000000000024E-002     194003.37500000000     
   6.5900000000000014E-002     215091.67187500000     
   6.7000000000000004E-002     235400.37500000000     
   6.8100000000000022E-002     254597.95312500000     
   6.9200000000000012E-002     272354.00000000000     
   7.0300000000000029E-002     288305.03125000000     
   7.1400000000000019E-002     302082.65625000000     
   7.2500000000000009E-002     313368.34375000000     
   7.3600000000000027E-002     321861.75000000000     
   7.4700000000000016E-002     327327.34375000000     
   7.5800000000000006E-002     329488.28125000000     
   7.6900000000000024E-002     328126.84375000000     
   7.8000000000000014E-002     323058.93750000000     
   7.9100000000000004E-002     314146.46875000000     
   8.0200000000000021E-002     301333.78125000000     
   8.1300000000000011E-002     284680.68750000000     
   8.2400000000000029E-002     264265.81250000000     
   8.3500000000000019E-002     240165.90625000000     
   8.4600000000000009E-002     212512.01562500000     
   8.5700000000000026E-002     181538.14062500000     
   8.6800000000000016E-002     147597.54687500000     
   8.7900000000000006E-002     111099.64062500000     
   8.9000000000000024E-002     72461.500000000000     
   9.0100000000000013E-002     32110.865234375000     
   9.1200000000000003E-002    -9474.5253906250000     
   9.2300000000000021E-002    -51793.164062500000     
   9.3400000000000011E-002    -94308.468750000000     
   9.4500000000000028E-002    -136430.89062500000     
   9.5600000000000018E-002    -177538.54687500000     
   9.6700000000000008E-002    -217050.92187500000     
   9.7800000000000026E-002    -254479.20312500000     
   9.8900000000000016E-002    -289423.93750000000     
  0.10000000000000001         -321448.34375000000     
  0.10110000000000002         -350029.00000000000     
  0.10220000000000001         -374667.71875000000     
  0.10330000000000003         -395082.65625000000     
  0.10440000000000002         -411204.21875000000     
  0.10550000000000001         -422852.46875000000     
  0.10660000000000003         -429870.00000000000     
  0.10770000000000002         -432189.59375000000     
  0.10880000000000001         -429850.93750000000     
  0.10990000000000003         -422965.65625000000     
  0.11100000000000002         -411735.25000000000     
  0.11210000000000001         -396406.81250000000     
  0.11320000000000002         -377294.71875000000     
  0.11430000000000001         -354788.06250000000     
  0.11540000000000003         -329252.31250000000     
  0.11650000000000002         -301023.75000000000     
  0.11760000000000001         -270537.46875000000     
  0.11870000000000003         -238348.79687500000     
  0.11980000000000002         -205029.43750000000     
  0.12090000000000001         -171044.93750000000     
  0.12200000000000003         -136724.87500000000     
  0.12310000000000001         -102464.95312500000     
  0.12420000000000003         -68766.062500000000     
  0.12530000000000002         -36148.937500000000     
  0.12640000000000001         -4977.9448242187500     
  0.12750000000000003          24537.582031250000     
  0.12860000000000002          52172.687500000000     
  0.12970000000000001          77627.281250000000     
  0.13080000000000003          100630.02343750000     
  0.13190000000000002          121090.60937500000     
  0.13300000000000001          138988.43750000000     
  0.13410000000000000          154239.17187500000     
  0.13520000000000004          166751.92187500000     
  0.13630000000000003          176581.70312500000     
  0.13740000000000002          183917.23437500000     
  0.13850000000000001          188901.75000000000     
  0.13960000000000000          191542.46875000000     
  0.14070000000000005          191871.06250000000     
  0.14180000000000004          190131.07812500000     
  0.14290000000000003          186698.37500000000     
  0.14400000000000002          181807.65625000000     
  0.14510000000000001          175503.54687500000     
  0.14620000000000000          167865.71875000000     
  0.14730000000000004          159181.57812500000     
  0.14840000000000003          149797.09375000000     
  0.14950000000000002          139906.17187500000     
  0.15060000000000001          129564.18750000000     
  0.15170000000000000          118904.32812500000     
  0.15280000000000005          108207.97656250000     
  0.15390000000000004          97681.609375000000     
  0.15500000000000003          87310.031250000000     
  0.15610000000000002          77062.523437500000     
  0.15720000000000001          67122.976562500000     
  0.15830000000000000          57797.253906250000     
  0.15940000000000004          49177.179687500000     
  0.16050000000000003          41080.972656250000     
  0.16160000000000002          33356.937500000000     
  0.16270000000000001          26129.753906250000     
  0.16380000000000000          19656.972656250000     
  0.16490000000000005          13970.878906250000     
  0.16600000000000004          8883.6396484375000     
  0.16710000000000003          4269.0810546875000     
  0.16820000000000002          196.46655273437500     
  0.16930000000000001         -3272.9147949218750     
  0.17040000000000000         -6248.5415039062500     
  0.17150000000000004         -8864.9267578125000     
  0.17260000000000003         -11070.953125000000     
  0.17370000000000002         -12713.705078125000     
  0.17480000000000001         -13842.362304687500     
  0.17590000000000000         -14753.817382812500     
  0.17700000000000005         -15650.802734375000     
  0.17810000000000004         -16388.025390625000     
  0.17920000000000003         -16681.919921875000     
  0.18030000000000002         -16539.003906250000     
  0.18140000000000001         -16282.437500000000     
  0.18250000000000000         -16137.867187500000     
  0.18360000000000004         -15990.496093750000     
  0.18470000000000003         -15624.819335937500     
  0.18580000000000002         -15058.432617187500     
  0.18690000000000001         -14482.384765625000     
  0.18800000000000000         -13945.885742187500     
  0.18910000000000005         -13311.096679687500     
  0.19020000000000004         -12536.715820312500     
  0.19130000000000003         -11814.799804687500     
  0.19240000000000002         -11290.889648437500     
  0.19350000000000001         -10802.625976562500     
  0.19460000000000005         -10080.707031250000     
  0.19570000000000004         -9156.0556640625000     
  0.19680000000000003         -8350.2167968750000     
  0.19790000000000002         -7838.6616210937500     
  0.19900000000000001         -7408.1040039062500     
  0.20010000000000000         -6762.2397460937500     
  0.20120000000000005         -5941.6845703125000     
  0.20230000000000004         -5236.2788085937500     
  0.20340000000000003         -4745.7421875000000     
  0.20450000000000002         -4254.1723632812500     
  0.20560000000000000         -3594.8852539062500     
  0.20670000000000005         -2917.1674804687500     
  0.20780000000000004         -2436.6872558593750     
  0.20890000000000003         -2083.5212402343750     
