 -0.12000000000000000          0.0000000000000000     
 -0.11889999999999999          0.0000000000000000     
 -0.11780000000000000          5.7030726807738574E-009
 -0.11670000000000000          6.2262417444003404E-009
 -0.11559999999999999         -2.3212104238723441E-008
 -0.11449999999999999         -3.3697602930260473E-008
 -0.11340000000000000          5.4658176651400936E-008
 -0.11230000000000000          1.2594773579621688E-007
 -0.11119999999999999         -5.2622109336653011E-008
 -0.11009999999999999         -3.1760373531142250E-007
 -0.10900000000000000         -1.0819401552453201E-007
 -0.10790000000000000          5.4488799605678651E-007
 -0.10679999999999999          5.8939764358001412E-007
 -0.10569999999999999         -5.1740300932578975E-007
 -0.10460000000000000         -1.3211156328907236E-006
 -0.10349999999999999         -8.3327350353101792E-008
 -0.10239999999999999          1.9580502339522354E-006
 -0.10130000000000000          1.4124537983661867E-006
 -0.10020000000000000         -1.9452720607660012E-006
  -9.9099999999999994E-002    -3.3329808957205387E-006
  -9.7999999999999990E-002     5.4441932206827914E-007
  -9.6899999999999986E-002     5.1065903790004086E-006
  -9.5799999999999996E-002     2.9420912142086308E-006
  -9.4699999999999993E-002    -4.6294389903778210E-006
  -9.3599999999999989E-002    -7.1327772275253665E-006
  -9.2499999999999999E-002     5.5258504971789080E-007
  -9.1399999999999995E-002     8.8268234321731143E-006
  -9.0299999999999991E-002     5.4045653996581677E-006
  -8.9200000000000002E-002    -6.2548174355470110E-006
  -8.8099999999999984E-002    -1.0009005563915707E-005
  -8.6999999999999994E-002     1.3863201786534773E-007
  -8.5899999999999990E-002     1.0309024219168350E-005
  -8.4799999999999986E-002     6.2048861764196772E-006
  -8.3699999999999997E-002    -5.8799928410735447E-006
  -8.2599999999999993E-002    -8.4262137534096837E-006
  -8.1499999999999989E-002     9.7230145001958590E-007
  -8.0399999999999999E-002     6.6568600232130848E-006
  -7.9299999999999995E-002     2.2702403157381923E-007
  -7.8199999999999992E-002    -5.9926128415099811E-006
  -7.7100000000000002E-002     1.4327805786251702E-007
  -7.5999999999999984E-002     8.6113077486515976E-006
  -7.4899999999999994E-002     2.1684843432012713E-006
  -7.3799999999999991E-002    -1.2870582395407837E-005
  -7.2699999999999987E-002    -1.1678883311105892E-005
  -7.1599999999999997E-002     9.8757491286960430E-006
  -7.0499999999999993E-002     2.2379776055458933E-005
  -6.9399999999999989E-002     3.4233373753522756E-006
  -6.8300000000000000E-002    -2.5092758733080700E-005
  -6.7199999999999996E-002    -2.3285509087145329E-005
  -6.6099999999999992E-002     9.1063648142153397E-006
  -6.5000000000000002E-002     2.8764241505996324E-005
  -6.3899999999999985E-002     8.8684328147792257E-006
  -6.2799999999999995E-002    -2.2660409740637988E-005
  -6.1699999999999991E-002    -2.3612719814991578E-005
  -6.0599999999999994E-002     2.6613602130964864E-006
  -5.9499999999999990E-002     1.6143583707162179E-005
  -5.8399999999999994E-002     1.5838758145036991E-006
  -5.7299999999999990E-002    -1.2541636351670604E-005
  -5.6199999999999986E-002    -4.1029693420568947E-006
  -5.5099999999999996E-002     6.2280764723254833E-006
  -5.3999999999999992E-002    -7.8856319305486977E-006
  -5.2899999999999989E-002    -2.8500619009719230E-005
  -5.1799999999999985E-002    -1.7080341422115453E-005
  -5.0699999999999995E-002     1.9343420717632398E-005
  -4.9599999999999991E-002     2.7514275643625297E-005
  -4.8499999999999988E-002    -1.4185400686983485E-005
  -4.7399999999999998E-002    -5.4597356211161241E-005
  -4.6299999999999994E-002    -3.6851972254225984E-005
  -4.5199999999999990E-002     1.7838077837950550E-005
  -4.4099999999999986E-002     3.5668177588377148E-005
  -4.2999999999999997E-002    -6.6439870352041908E-006
  -4.1899999999999993E-002    -5.0375027058180422E-005
  -4.0799999999999989E-002    -4.0476319554727525E-005
  -3.9699999999999985E-002    -1.0292734486938571E-006
  -3.8599999999999995E-002     8.3659715528483503E-006
  -3.7499999999999992E-002    -1.7048729205271229E-005
  -3.6399999999999988E-002    -2.8502818167908117E-005
  -3.5299999999999984E-002    -7.8046023190836422E-006
  -3.4199999999999994E-002     3.2549078241572715E-006
  -3.3099999999999991E-002    -2.4369401216972619E-005
  -3.1999999999999987E-002    -5.0630875193746760E-005
  -3.0899999999999997E-002    -2.4606861188658513E-005
  -2.9799999999999993E-002     2.8080034098820761E-005
  -2.8699999999999989E-002     3.2670930522726849E-005
  -2.7599999999999986E-002    -2.3469534426112659E-005
  -2.6499999999999996E-002    -6.3741121266502887E-005
  -2.5399999999999992E-002    -2.8755852326867171E-005
  -2.4299999999999988E-002     3.6374891351442784E-005
  -2.3199999999999985E-002     4.6773042413406074E-005
  -2.2099999999999995E-002    -7.2556480290586478E-007
  -2.0999999999999991E-002    -2.8875741918454878E-005
  -1.9899999999999987E-002     2.3605698515893891E-006
  -1.8799999999999983E-002     4.1888517444022000E-005
  -1.7699999999999994E-002     3.3734177122823894E-005
  -1.6599999999999990E-002     5.3540065891866107E-006
  -1.5499999999999986E-002     1.8633361833053641E-005
  -1.4399999999999996E-002     6.4199710323009640E-005
  -1.3299999999999992E-002     7.3853334470186383E-005
  -1.2199999999999989E-002     3.1005114578874782E-005
  -1.1099999999999985E-002     3.2866007586562773E-006
  -9.9999999999999950E-003     4.3273656046949327E-005
  -8.8999999999999913E-003     1.0416730947326869E-004
  -7.7999999999999875E-003     1.0471745918039232E-004
  -6.6999999999999837E-003     4.8841946409083903E-005
  -5.5999999999999939E-003     2.0175237295916304E-005
  -4.4999999999999901E-003     5.7899964303942397E-005
  -3.3999999999999864E-003     1.0338515130570158E-004
  -2.2999999999999826E-003     9.2848102212883532E-005
  -1.1999999999999927E-003     4.9823356675915420E-005
  -9.9999999999988987E-005     4.2960888094967231E-005
   1.0000000000000148E-003     7.4952615250367671E-005
   2.1000000000000185E-003     8.2889993791468441E-005
   3.2000000000000084E-003     4.3149495468242094E-005
   4.3000000000000121E-003     1.0340289009036496E-005
   5.4000000000000159E-003     3.0615534342359751E-005
   6.5000000000000058E-003     6.5550251747481525E-005
   7.6000000000000234E-003     4.8711535782786086E-005
   8.7000000000000133E-003    -1.0984323125740048E-005
   9.8000000000000032E-003    -4.0776798414299265E-005
   1.0900000000000021E-002    -1.3445429431158118E-005
   1.2000000000000011E-002     1.4514243957819417E-005
   1.3100000000000001E-002    -1.1438507499406114E-005
   1.4200000000000018E-002    -6.4274281612597406E-005
   1.5300000000000008E-002    -7.9087607446126640E-005
   1.6400000000000026E-002    -5.2742612751899287E-005
   1.7500000000000016E-002    -4.3943735363427550E-005
   1.8600000000000005E-002    -7.8586781455669552E-005
   1.9700000000000023E-002    -1.1147856275783852E-004
   2.0800000000000013E-002    -1.0076385660795495E-004
   2.1900000000000003E-002    -7.3078939749393612E-005
   2.3000000000000020E-002    -8.0178506323136389E-005
   2.4100000000000010E-002    -1.1702817573677748E-004
   2.5200000000000000E-002    -1.2928103387821466E-004
   2.6300000000000018E-002    -9.8363190772943199E-005
   2.7400000000000008E-002    -7.0072936068754643E-005
   2.8500000000000025E-002    -8.3080543845426291E-005
   2.9600000000000015E-002    -1.1106405872851610E-004
   3.0700000000000005E-002    -1.0441075573908165E-004
   3.1800000000000023E-002    -6.5527405240572989E-005
   3.2900000000000013E-002    -4.2662759369704872E-005
   3.4000000000000002E-002    -5.5921991588547826E-005
   3.5100000000000020E-002    -6.9506859290413558E-005
   3.6200000000000010E-002    -4.9335365474689752E-005
   3.7300000000000028E-002    -1.4130450836091768E-005
   3.8400000000000017E-002    -2.1635321445501177E-006
   3.9500000000000007E-002    -1.1174828614457510E-005
   4.0600000000000025E-002    -7.8021530498517677E-006
   4.1700000000000015E-002     1.5957535651978105E-005
   4.2800000000000005E-002     3.3979755244217813E-005
   4.3900000000000022E-002     3.0394932764465921E-005
   4.5000000000000012E-002     2.6351553970016539E-005
   4.6100000000000002E-002     4.2029656469821930E-005
   4.7200000000000020E-002     6.2262908613774925E-005
   4.8300000000000010E-002     6.3224724726751447E-005
   4.9400000000000027E-002     5.1464965508785099E-005
   5.0500000000000017E-002     5.2094266720814630E-005
   5.1600000000000007E-002     6.6360909841023386E-005
   5.2700000000000025E-002     7.1719128754921257E-005
   5.3800000000000014E-002     5.9825833886861801E-005
   5.4900000000000004E-002     5.0604612624738365E-005
   5.6000000000000022E-002     5.6909393606474623E-005
   5.7100000000000012E-002     6.1381848354358226E-005
   5.8200000000000002E-002     4.8637179133947939E-005
   5.9300000000000019E-002     3.3483327570138499E-005
   6.0400000000000009E-002     3.7496560253202915E-005
   6.1500000000000027E-002     5.0964688853127882E-005
   6.2600000000000017E-002     4.4303564209258184E-005
   6.3700000000000007E-002     1.6389796655857936E-005
   6.4800000000000024E-002    -1.1268053157209579E-007
   6.5900000000000014E-002     1.2602091373992153E-005
   6.7000000000000004E-002     2.7532900276128203E-005
   6.8100000000000022E-002     1.3706920071854256E-005
   6.9200000000000012E-002    -1.3261046660772990E-005
   7.0300000000000029E-002    -1.4919591194484383E-005
   7.1400000000000019E-002     7.1609738370170817E-006
   7.2500000000000009E-002     1.1145806638523936E-005
   7.3600000000000027E-002    -1.7774489606381394E-005
   7.4700000000000016E-002    -3.9593793189851567E-005
   7.5800000000000006E-002    -2.0344594304333441E-005
   7.6900000000000024E-002     1.1062373232562095E-005
   7.8000000000000014E-002     4.3540176193346269E-006
   7.9100000000000004E-002    -3.3369567972840741E-005
   8.0200000000000021E-002    -4.5105538447387516E-005
   8.1300000000000011E-002    -1.2563843483803794E-005
   8.2400000000000029E-002     1.2821105883631390E-005
   8.3500000000000019E-002    -8.7531607277924195E-006
   8.4600000000000009E-002    -4.0872968384064734E-005
   8.5700000000000026E-002    -2.7583937480812892E-005
   8.6800000000000016E-002     1.5064265426190104E-005
   8.7900000000000006E-002     1.9321030777064152E-005
   8.9000000000000024E-002    -2.6776269805850461E-005
   9.0100000000000013E-002    -5.3436480811797082E-005
   9.1200000000000003E-002    -1.3263290384202264E-005
   9.2300000000000021E-002     4.0896749851526693E-005
   9.3400000000000011E-002     3.0279936254373752E-005
   9.4500000000000028E-002    -3.0195049475878477E-005
   9.5600000000000018E-002    -5.1243816415080801E-005
   9.6700000000000008E-002    -2.7931919248658232E-006
   9.7800000000000026E-002     4.1664767195470631E-005
   9.8900000000000016E-002     1.8768239897326566E-005
  0.10000000000000001         -2.9150693080737256E-005
  0.10110000000000002         -2.3666485503781587E-005
  0.10220000000000001          2.4601024051662534E-005
  0.10330000000000003          3.3609307138249278E-005
  0.10440000000000002         -1.6208761735470034E-005
  0.10550000000000001         -4.5169013901613653E-005
  0.10660000000000003          8.2546603152877651E-007
  0.10770000000000002          5.7574601669330150E-005
  0.10880000000000001          3.5514338378561661E-005
  0.10990000000000003         -3.9412356272805482E-005
  0.11100000000000002         -5.7928031310439110E-005
  0.11210000000000001          9.2336476882337593E-006
  0.11320000000000002          6.4031512010842562E-005
  0.11430000000000001          2.6840878490475006E-005
  0.11540000000000003         -4.3842366721946746E-005
  0.11650000000000002         -4.1427647374803200E-005
  0.11760000000000001          2.6060395612148568E-005
  0.11870000000000003          5.1034319767495617E-005
  0.11980000000000002         -5.2093682825216092E-006
  0.12090000000000001         -5.2670384320663288E-005
  0.12200000000000003         -1.4244285011955071E-005
  0.12310000000000001          5.1947201427537948E-005
  0.12420000000000003          4.1468480048933998E-005
  0.12530000000000002         -3.3067590266000479E-005
  0.12640000000000001         -5.8719033404486254E-005
  0.12750000000000003          4.1034245441551320E-006
  0.12860000000000002          5.9662179410224780E-005
  0.12970000000000001          2.4010563720366918E-005
  0.13080000000000003         -4.5970296923769638E-005
  0.13190000000000002         -4.1454386519035324E-005
  0.13300000000000001          2.9113174605299719E-005
  0.13410000000000000          5.3350027883425355E-005
  0.13520000000000004         -9.0449630079092458E-006
  0.13630000000000003         -6.1191865825094283E-005
  0.13740000000000002         -1.8627630197443068E-005
  0.13850000000000001          5.7070301409112290E-005
  0.13960000000000000          4.9830923671834171E-005
  0.14070000000000005         -3.2749616366345435E-005
  0.14180000000000004         -6.8407585786189884E-005
  0.14290000000000003         -4.6062004912528209E-006
  0.14400000000000002          6.2739563873037696E-005
  0.14510000000000001          3.5432887671049684E-005
  0.14620000000000000         -4.0496888686902821E-005
  0.14730000000000004         -4.9702201067702845E-005
  0.14840000000000003          1.5878500562394038E-005
  0.14950000000000002          5.0241153076058254E-005
  0.15060000000000001          1.4131701391306706E-006
  0.15170000000000000         -4.9339534598402679E-005
  0.15280000000000005         -1.8277854906045832E-005
  0.15390000000000004          4.7247416659956798E-005
  0.15500000000000003          4.2035699152620509E-005
  0.15610000000000002         -3.1062216294230893E-005
  0.15720000000000001         -6.1873688537161797E-005
  0.15830000000000000         -1.3168988743927912E-006
  0.15940000000000004          6.1747181462123990E-005
  0.16050000000000003          3.4264452551724389E-005
  0.16160000000000002         -4.0943803469417617E-005
  0.16270000000000001         -5.1922186685260385E-005
  0.16380000000000000          1.3291530194692314E-005
  0.16490000000000005          5.3060652135172859E-005
  0.16600000000000004          9.7770662250695750E-006
  0.16710000000000003         -4.5333072193898261E-005
  0.16820000000000002         -2.6472440367797390E-005
  0.16930000000000001          3.4466251236153767E-005
  0.17040000000000000          4.0754941437626258E-005
  0.17150000000000004         -1.7729196770233102E-005
  0.17260000000000003         -4.9979644245468080E-005
  0.17370000000000002         -5.8322648328612559E-006
  0.17480000000000001          4.6996348828542978E-005
  0.17590000000000000          2.8155607651569881E-005
  0.17700000000000005         -3.2547286537010223E-005
  0.17810000000000004         -4.2774907342391089E-005
  0.17920000000000003          1.0895248124143109E-005
  0.18030000000000002          4.5374228648142889E-005
  0.18140000000000001          1.0166651918552816E-005
  0.18250000000000000         -3.7814552342751995E-005
  0.18360000000000004         -2.5152350644930266E-005
  0.18470000000000003          2.5768365958356299E-005
  0.18580000000000002          3.4818924177670851E-005
  0.18690000000000001         -1.1099965377070475E-005
  0.18800000000000000         -4.0033610275713727E-005
  0.18910000000000005         -7.5284729064151179E-006
  0.19020000000000004          3.6166125937597826E-005
  0.19130000000000003          2.5164386897813529E-005
  0.19240000000000002         -2.1973410184727982E-005
  0.19350000000000001         -3.3544489269843325E-005
  0.19460000000000005          5.3241165005601943E-006
  0.19570000000000004          3.3389354939572513E-005
  0.19680000000000003          9.3850912890047766E-006
  0.19790000000000002         -2.7148884328198619E-005
  0.19900000000000001         -2.0195406250422820E-005
  0.20010000000000000          1.7189377103932202E-005
  0.20120000000000005          2.6560341211734340E-005
  0.20230000000000004         -4.8828806029632688E-006
  0.20340000000000003         -2.7382622647564858E-005
  0.20450000000000002         -7.4309841693320777E-006
  0.20560000000000000          2.2352858650265262E-005
  0.20670000000000005          1.6226895240833983E-005
  0.20780000000000004         -1.4676342289021704E-005
  0.20890000000000003         -2.2187570721143857E-005
