 -0.12000000000000000          0.0000000000000000     
 -0.11889999999999999          0.0000000000000000     
 -0.11780000000000000          0.0000000000000000     
 -0.11670000000000000          0.0000000000000000     
 -0.11559999999999999          0.0000000000000000     
 -0.11449999999999999          0.0000000000000000     
 -0.11340000000000000          0.0000000000000000     
 -0.11230000000000000          0.0000000000000000     
 -0.11119999999999999          0.0000000000000000     
 -0.11009999999999999          0.0000000000000000     
 -0.10900000000000000          1.6194572854936465E-024
 -0.10790000000000000         -6.9243985672547693E-024
 -0.10679999999999999         -1.6400593346665794E-023
 -0.10569999999999999          1.0020318215218822E-022
 -0.10460000000000000          1.0828934721861465E-022
 -0.10349999999999999         -8.1234109131853831E-022
 -0.10239999999999999         -7.0387900249434199E-022
 -0.10130000000000000          4.7393684781266516E-021
 -0.10020000000000000          4.5866963017673648E-021
  -9.9099999999999994E-002    -2.1571776622893316E-020
  -9.7999999999999990E-002    -2.6296824536665144E-020
  -9.6899999999999986E-002     7.9709340411157447E-020
  -9.5799999999999996E-002     1.2618067680416186E-019
  -9.4699999999999993E-002    -2.4727455473264058E-019
  -9.3599999999999989E-002    -5.2137090611640765E-019
  -9.2499999999999999E-002     6.5384543218042357E-019
  -9.1399999999999995E-002     1.9570739673292768E-018
  -9.0299999999999991E-002    -1.3332264468582420E-018
  -8.9200000000000002E-002    -6.8042111158004256E-018
  -8.8099999999999984E-002     7.5266110024025596E-019
  -8.6999999999999994E-002     2.0919053584331248E-017
  -8.5899999999999990E-002     1.0266479380807998E-017
  -8.4799999999999986E-002    -5.2016567914849951E-017
  -8.3699999999999997E-002    -6.1562361223887449E-017
  -8.2599999999999993E-002     9.2078106194707807E-017
  -8.1499999999999989E-002     2.1152951144803682E-016
  -8.0399999999999999E-002    -7.8228627816177366E-017
  -7.9299999999999995E-002    -5.2477926247140178E-016
  -7.8199999999999992E-002    -1.3823997245196868E-016
  -7.7100000000000002E-002     1.0487355265554276E-015
  -7.5999999999999984E-002     8.3986186044372703E-016
  -7.4899999999999994E-002    -1.8489291400133412E-015
  -7.3799999999999991E-002    -2.8076541810331986E-015
  -7.2699999999999987E-002     2.6289924860841644E-015
  -7.1599999999999997E-002     7.9976410422618466E-015
  -7.0499999999999993E-002    -5.9837022608268424E-016
  -6.9399999999999989E-002    -1.8130137148519854E-014
  -6.8300000000000000E-002    -1.2416821145225503E-014
  -6.7199999999999996E-002     2.7658671658331233E-014
  -6.6099999999999992E-002     4.5755069790496053E-014
  -6.5000000000000002E-002    -1.7418871724249156E-014
  -6.3899999999999985E-002    -9.5111032493832431E-014
  -6.2799999999999995E-002    -3.4475535219593428E-014
  -6.1699999999999991E-002     1.4073167815559923E-013
  -6.0599999999999994E-002     1.4105897168641829E-013
  -5.9499999999999990E-002    -1.6820815302697606E-013
  -5.8399999999999994E-002    -3.4917229697895014E-013
  -5.7299999999999990E-002     1.1233465465341000E-013
  -5.6199999999999986E-002     7.4917914753835912E-013
  -5.5099999999999996E-002     3.2214717547197902E-013
  -5.3999999999999992E-002    -1.1738089883764347E-012
  -5.2899999999999989E-002    -1.5429219317117382E-012
  -5.1799999999999985E-002     7.9779352612011079E-013
  -5.0699999999999995E-002     3.2541387119666698E-012
  -4.9599999999999991E-002     1.3189131861310321E-012
  -4.8499999999999988E-002    -4.0152017995176426E-012
  -4.7399999999999998E-002    -4.8801999767700277E-012
  -4.6299999999999994E-002     2.5640182251679411E-012
  -4.5199999999999990E-002     8.7027668058126118E-012
  -4.4099999999999986E-002     1.3366386990287804E-012
  -4.2999999999999997E-002    -1.2549882140444613E-011
  -4.1899999999999993E-002    -9.5268870917153414E-012
  -4.0799999999999989E-002     1.4673226175765386E-011
  -3.9699999999999985E-002     2.6001839570355401E-011
  -3.8599999999999995E-002    -5.4563597563783706E-012
  -3.7499999999999992E-002    -4.7132783786985044E-011
  -3.6399999999999988E-002    -2.9009348742614627E-011
  -3.5299999999999984E-002     5.0127367534624767E-011
  -3.4199999999999994E-002     8.5364222635053721E-011
  -3.3099999999999991E-002    -3.3242067952465870E-012
  -3.1999999999999987E-002    -1.2330939047622280E-010
  -3.0899999999999997E-002    -9.2830333697779821E-011
  -2.9799999999999993E-002     9.1035359806035387E-011
  -2.8699999999999989E-002     1.8217577446577593E-010
  -2.7599999999999986E-002     6.8747390592760471E-012
  -2.6499999999999996E-002    -2.2197339799578941E-010
  -2.5399999999999992E-002    -1.3141755739187744E-010
  -2.4299999999999988E-002     2.3440430152454894E-010
  -2.3199999999999985E-002     3.3705768731628893E-010
  -2.2099999999999995E-002    -1.2508259705779068E-010
  -2.0999999999999991E-002    -6.1661048489369819E-010
  -1.9899999999999987E-002    -3.4040784080424658E-010
  -1.8799999999999983E-002     5.6269350290349962E-010
  -1.7699999999999994E-002     9.3354624031150024E-010
  -1.6599999999999990E-002     1.0056930982438317E-010
  -1.5499999999999986E-002    -9.6916963343574025E-010
  -1.4399999999999996E-002    -7.7107792373354300E-010
  -1.3299999999999992E-002     5.5421045530579249E-010
  -1.2199999999999989E-002     1.1076248807029287E-009
  -1.1099999999999985E-002    -1.7402843055513983E-010
  -9.9999999999999950E-003    -1.6662871082928632E-009
  -8.8999999999999913E-003    -9.7503993767844577E-010
  -7.7999999999999875E-003     1.5465660974101070E-009
  -6.6999999999999837E-003     2.7315822936913037E-009
  -5.5999999999999939E-003     6.9375100109070331E-010
  -4.4999999999999901E-003    -2.3280968264316471E-009
  -3.3999999999999864E-003    -2.6662121399567695E-009
  -2.2999999999999826E-003    -1.2780329572414928E-010
  -1.1999999999999927E-003     1.7741415003769134E-009
  -9.9999999999988987E-005     7.9470829916772345E-010
   1.0000000000000148E-003    -9.3760998964853570E-010
   2.1000000000000185E-003    -2.3186313979906004E-010
   3.2000000000000084E-003     2.2027157875470493E-009
   4.3000000000000121E-003     2.5237250067533523E-009
   5.4000000000000159E-003    -6.9004535419026070E-010
   6.5000000000000058E-003    -4.2947978506902018E-009
   7.6000000000000234E-003    -4.7781600898133547E-009
   8.7000000000000133E-003    -2.2470600935520224E-009
   9.8000000000000032E-003     1.2961802742239570E-009
   1.0900000000000021E-002     5.3961182189254941E-009
   1.2000000000000011E-002     9.7601731141594428E-009
   1.3100000000000001E-002     1.0560430752093453E-008
   1.4200000000000018E-002     3.2765337110163273E-009
   1.5300000000000008E-002    -9.8654640012796335E-009
   1.6400000000000026E-002    -1.9241886306531342E-008
   1.7500000000000016E-002    -1.8115018818321005E-008
   1.8600000000000005E-002    -1.0271693717811559E-008
   1.9700000000000023E-002    -2.8924571626731677E-009
   2.0800000000000013E-002     5.7458722224623671E-009
   2.1900000000000003E-002     2.3208299282373446E-008
   2.3000000000000020E-002     4.4351281758281402E-008
   2.4100000000000010E-002     4.7388684976112927E-008
   2.5200000000000000E-002     1.5890073257196491E-008
   2.6300000000000018E-002    -3.5947032017702440E-008
   2.7400000000000008E-002    -7.2175794230133761E-008
   2.8500000000000025E-002    -6.8381027062969224E-008
   2.9600000000000015E-002    -3.3164308632649409E-008
   3.0700000000000005E-002     9.5119014886790865E-009
   3.1800000000000023E-002     4.8286871390246233E-008
   3.2900000000000013E-002     8.2883779839448835E-008
   3.4000000000000002E-002     9.1533394197540474E-008
   3.5100000000000020E-002     5.3399855204361302E-008
   3.6200000000000010E-002    -4.0320646377267622E-008
   3.7300000000000028E-002    -1.5498501682031929E-007
   3.8400000000000017E-002    -2.2455250814346073E-007
   3.9500000000000007E-002    -1.9396566131035797E-007
   4.0600000000000025E-002    -7.3416252632796386E-008
   4.1700000000000015E-002     1.0700684072162403E-007
   4.2800000000000005E-002     2.8655784944930929E-007
   4.3900000000000022E-002     3.8402072277676780E-007
   4.5000000000000012E-002     3.4429697848281648E-007
   4.6100000000000002E-002     1.5120581053906790E-007
   4.7200000000000020E-002    -2.1601545086014085E-007
   4.8300000000000010E-002    -5.4391222192862188E-007
   4.9400000000000027E-002    -7.4996233934143675E-007
   5.0500000000000017E-002    -7.0034741384006338E-007
   5.1600000000000007E-002    -3.6856195606560505E-007
   5.2700000000000025E-002     2.4723294700379483E-007
   5.3800000000000014E-002     7.6175962249180884E-007
   5.4900000000000004E-002     9.8042016816179967E-007
   5.6000000000000022E-002     7.1794994482843322E-007
   5.7100000000000012E-002     2.8536530294331897E-007
   5.8200000000000002E-002    -3.0105073278718919E-007
   5.9300000000000019E-002    -1.4369163636729354E-006
   6.0400000000000009E-002    -2.0333145585027523E-006
   6.1500000000000027E-002    -2.1160474261705531E-006
   6.2600000000000017E-002    -1.3755629879597109E-006
   6.3700000000000007E-002    -6.9172621408597479E-008
   6.4800000000000024E-002     2.0605532426998252E-006
   6.5900000000000014E-002     2.2667534267384326E-006
   6.7000000000000004E-002     3.4438655802659923E-006
   6.8100000000000022E-002     1.3208571090217447E-006
   6.9200000000000012E-002    -1.8489179183234228E-006
   7.0300000000000029E-002    -5.0606636250449810E-006
   7.1400000000000019E-002    -4.5521501306211576E-006
   7.2500000000000009E-002    -5.2468071771727409E-006
   7.3600000000000027E-002    -1.7535318193040439E-006
   7.4700000000000016E-002    -3.6030828596267384E-006
   7.5800000000000006E-002     6.6152133513242006E-006
   7.6900000000000024E-002     3.3563196666364092E-006
   7.8000000000000014E-002     4.3959330469078850E-006
   7.9100000000000004E-002     6.2769222495262511E-006
   8.0200000000000021E-002     2.0391132693475811E-006
   8.1300000000000011E-002    -1.0523320270294789E-005
   8.2400000000000029E-002    -9.8505206551635638E-006
   8.3500000000000019E-002    -1.0343188478145748E-005
   8.4600000000000009E-002    -3.3432561394874938E-006
   8.5700000000000026E-002    -8.9334826043341309E-006
   8.6800000000000016E-002    -7.8852144724805839E-006
   8.7900000000000006E-002     1.1404097676859237E-005
   8.9000000000000024E-002     2.0593392036971636E-005
   9.0100000000000013E-002     2.9631362849613652E-005
   9.1200000000000003E-002    -1.1883251318067778E-005
   9.2300000000000021E-002    -3.5749548260355368E-005
   9.3400000000000011E-002     3.3877262467285618E-005
   9.4500000000000028E-002     7.0189057623792905E-006
   9.5600000000000018E-002    -2.4937738999142312E-005
   9.6700000000000008E-002    -1.4209031178324949E-005
   9.7800000000000026E-002    -3.9522867155028507E-005
   9.8900000000000016E-002     4.0726314182393253E-005
  0.10000000000000001          6.5648018789943308E-005
  0.10110000000000002         -1.4521477169182617E-005
  0.10220000000000001          1.7638842109590769E-005
  0.10330000000000003         -1.6505381381648476E-006
  0.10440000000000002          4.6983732318039984E-006
  0.10550000000000001          9.4137226369639393E-007
  0.10660000000000003          8.2950595242436975E-005
  0.10770000000000002         -4.3949952669208869E-005
  0.10880000000000001         -5.1311766583239660E-005
  0.10990000000000003         -3.4447079087840393E-005
  0.11100000000000002         -2.8445014322642237E-005
  0.11210000000000001          1.4258749433793128E-004
  0.11320000000000002         -2.0207146008033305E-005
  0.11430000000000001          2.4242102517746389E-004
  0.11540000000000003         -1.3346051855478436E-004
  0.11650000000000002         -2.6991963386535645E-004
  0.11760000000000001         -8.9651526650413871E-005
  0.11870000000000003          3.0549411894753575E-004
  0.11980000000000002         -1.7276028302148916E-005
  0.12090000000000001          1.6897816385608166E-004
  0.12200000000000003         -4.6462571481242776E-004
  0.12310000000000001         -2.7730859073926695E-005
  0.12420000000000003          1.8897332483902574E-004
  0.12530000000000002          2.5771980290301144E-004
  0.12640000000000001         -5.9177659750275780E-006
  0.12750000000000003          6.4880288846325129E-005
  0.12860000000000002          1.3634645438287407E-004
  0.12970000000000001         -4.8110357602126896E-004
  0.13080000000000003         -1.6133180179167539E-004
  0.13190000000000002          1.3416211004368961E-004
  0.13300000000000001         -1.0420176113257185E-004
  0.13410000000000000          4.6099637984298170E-004
  0.13520000000000004         -4.4049386633560061E-004
  0.13630000000000003         -6.5251188061665744E-005
  0.13740000000000002         -7.8821300121489912E-005
  0.13850000000000001          4.2891912744380534E-004
  0.13960000000000000          2.6897469069808722E-004
  0.14070000000000005         -1.0903451766353101E-004
  0.14180000000000004         -6.6389993298798800E-004
  0.14290000000000003         -2.3361688363365829E-004
  0.14400000000000002         -2.4531438248232007E-004
  0.14510000000000001          5.0588458543643355E-004
  0.14620000000000000          2.1758850198239088E-004
  0.14730000000000004         -1.8765890854410827E-004
  0.14840000000000003          1.8064021787722595E-005
  0.14950000000000002         -1.9622125546447933E-004
  0.15060000000000001          8.0925987276714295E-005
  0.15170000000000000         -3.6468951293500140E-005
  0.15280000000000005         -2.5023831403814256E-004
  0.15390000000000004         -1.1915120012417901E-005
  0.15500000000000003          1.5290997907868586E-005
  0.15610000000000002          6.0069811297580600E-004
  0.15720000000000001          4.4673372758552432E-004
  0.15830000000000000         -6.2778388382866979E-005
  0.15940000000000004         -4.0767644532024860E-004
  0.16050000000000003         -7.2522601112723351E-004
  0.16160000000000002         -1.6246861196123064E-004
  0.16270000000000001          4.6826689504086971E-004
  0.16380000000000000          7.8366743400692940E-004
  0.16490000000000005          2.0970913465134799E-004
  0.16600000000000004          7.9449091572314501E-006
  0.16710000000000003         -7.5848947744816542E-004
  0.16820000000000002         -3.1463225604966283E-004
  0.16930000000000001          4.0479082963429391E-004
  0.17040000000000000          1.0624064598232508E-003
  0.17150000000000004          2.3754306312184781E-004
  0.17260000000000003         -5.5813969811424613E-004
  0.17370000000000002         -1.1338941985741258E-003
  0.17480000000000001         -6.4651737920939922E-004
  0.17590000000000000          1.4739651232957840E-003
  0.17700000000000005          9.0499932412058115E-004
  0.17810000000000004          1.0174828348681331E-003
  0.17920000000000003         -1.2250993167981505E-003
  0.18030000000000002         -2.4486144538968801E-003
  0.18140000000000001         -5.3563853725790977E-005
  0.18250000000000000          1.1838318314403296E-003
  0.18360000000000004          1.6636053333058953E-003
  0.18470000000000003          9.7164587350562215E-004
  0.18580000000000002         -7.2136975359171629E-004
  0.18690000000000001         -2.3572633508592844E-003
  0.18800000000000000         -1.2291300809010863E-003
  0.18910000000000005          8.9401192963123322E-004
  0.19020000000000004          1.4020414091646671E-003
  0.19130000000000003          1.4168738853186369E-003
  0.19240000000000002         -3.0242008506320417E-004
  0.19350000000000001         -1.9889830145984888E-003
  0.19460000000000005         -8.1459496868774295E-004
  0.19570000000000004          4.4054788304492831E-004
  0.19680000000000003          1.2195340823382139E-003
  0.19790000000000002          7.9868308966979384E-004
  0.19900000000000001         -4.1309240623377264E-004
  0.20010000000000000         -1.2468440691009164E-003
  0.20120000000000005         -8.9635100448504090E-004
  0.20230000000000004          3.9894986548461020E-004
  0.20340000000000003          1.3181192334741354E-003
  0.20450000000000002          1.0902491630986333E-003
  0.20560000000000000         -3.4182079252786934E-004
  0.20670000000000005         -1.2637742329388857E-003
  0.20780000000000004         -1.0150680318474770E-003
  0.20890000000000003          2.7565204072743654E-004
