 -0.12000000000000000          0.0000000000000000     
 -0.11889999999999999          0.0000000000000000     
 -0.11780000000000000          0.0000000000000000     
 -0.11670000000000000          0.0000000000000000     
 -0.11559999999999999          0.0000000000000000     
 -0.11449999999999999          0.0000000000000000     
 -0.11340000000000000          0.0000000000000000     
 -0.11230000000000000         -6.2610290111258174E-021
 -0.11119999999999999          3.3993614120674623E-020
 -0.11009999999999999          6.6132631146868537E-020
 -0.10900000000000000         -5.4153090030676176E-019
 -0.10790000000000000         -6.1443575606382997E-019
 -0.10679999999999999          4.7189404903425274E-018
 -0.10569999999999999          6.3246390936023944E-018
 -0.10460000000000000         -2.7583646125309767E-017
 -0.10349999999999999         -5.4655631410918733E-017
 -0.10239999999999999          1.0399265691924401E-016
 -0.10130000000000000          3.4698297049666547E-016
 -0.10020000000000000         -1.4753897807961221E-016
  -9.9099999999999994E-002    -1.5457930947290906E-015
  -9.7999999999999990E-002    -9.7597063182595489E-016
  -9.6899999999999986E-002     4.4037467391482097E-015
  -9.5799999999999996E-002     7.8493416668236164E-015
  -9.4699999999999993E-002    -4.8829141244429147E-015
  -9.3599999999999989E-002    -2.7708590698044717E-014
  -9.2499999999999999E-002    -1.8216568390457683E-014
  -9.1399999999999995E-002     4.7607666371412768E-014
  -9.0299999999999991E-002     9.6576772187079163E-014
  -8.9200000000000002E-002     1.2177678333227197E-014
  -8.8099999999999984E-002    -1.7227957613014794E-013
  -8.6999999999999994E-002    -2.3096265568470220E-013
  -8.5899999999999990E-002    -2.4176124494815383E-014
  -8.4799999999999986E-002     2.9305060439931141E-013
  -8.3699999999999997E-002     5.2690984171308020E-013
  -8.2599999999999993E-002     6.3044258398828323E-013
  -8.1499999999999989E-002     1.6605485974978407E-013
  -8.0399999999999999E-002    -1.7508346118397244E-012
  -7.9299999999999995E-002    -4.2292202726001982E-012
  -7.8199999999999992E-002    -2.6307656140339697E-012
  -7.7100000000000002E-002     6.7765216181514543E-012
  -7.5999999999999984E-002     1.6768990709903342E-011
  -7.4899999999999994E-002     9.4722424348603340E-012
  -7.3799999999999991E-002    -2.1455786800017584E-011
  -7.2699999999999987E-002    -4.7976907169289262E-011
  -7.1599999999999997E-002    -2.5492252406222882E-011
  -7.0499999999999993E-002     4.8791495149691499E-011
  -6.9399999999999989E-002     1.0636792141527351E-010
  -6.8300000000000000E-002     6.7245403689852878E-011
  -6.7199999999999996E-002    -6.2492747088249700E-011
  -6.6099999999999992E-002    -1.7933682316950694E-010
  -6.5000000000000002E-002    -1.8214106611846859E-010
  -6.3899999999999985E-002    -5.3834325886015222E-011
  -6.2799999999999995E-002     1.6733635310739459E-010
  -6.1699999999999991E-002     4.2062869853864981E-010
  -6.0599999999999994E-002     5.4233056934194224E-010
  -5.9499999999999990E-002     2.4110710650226963E-010
  -5.8399999999999994E-002    -5.9657079276576042E-010
  -5.7299999999999990E-002    -1.4758213540133625E-009
  -5.6199999999999986E-002    -1.4452196106518045E-009
  -5.5099999999999996E-002    -6.1620313018817541E-011
  -5.3999999999999992E-002     1.8243648813864866E-009
  -5.2899999999999989E-002     2.6890834003978625E-009
  -5.1799999999999985E-002     1.9513319848840638E-009
  -5.0699999999999995E-002     5.6001953074868993E-010
  -4.9599999999999991E-002    -4.4650499964049573E-010
  -4.8499999999999988E-002    -1.5387080498641126E-009
  -4.7399999999999998E-002    -3.8974730109941902E-009
  -4.6299999999999994E-002    -6.8687491250329913E-009
  -4.5199999999999990E-002    -7.3372889985989787E-009
  -4.4099999999999986E-002    -2.7023965287753526E-009
  -4.2999999999999997E-002     5.8674354264098838E-009
  -4.1899999999999993E-002     1.4143271442890182E-008
  -4.0799999999999989E-002     1.8592949402318482E-008
  -3.9699999999999985E-002     1.8176146809878446E-008
  -3.8599999999999995E-002     1.2447177510921392E-008
  -3.7499999999999992E-002     1.8129368839492344E-010
  -3.6399999999999988E-002    -1.8149941993783614E-008
  -3.5299999999999984E-002    -3.7639985350779170E-008
  -3.4199999999999994E-002    -5.1196579420320631E-008
  -3.3099999999999991E-002    -5.4442121921738362E-008
  -3.1999999999999987E-002    -4.5790756075803074E-008
  -3.0899999999999997E-002    -2.1594622978682310E-008
  -2.9799999999999993E-002     2.3918742542150540E-008
  -2.8699999999999989E-002     8.9254989177334210E-008
  -2.7599999999999986E-002     1.5776095096953213E-007
  -2.6499999999999996E-002     2.0408948842032260E-007
  -2.5399999999999992E-002     2.0895896568617900E-007
  -2.4299999999999988E-002     1.6317598294790514E-007
  -2.3199999999999985E-002     5.7764694361139846E-008
  -2.2099999999999995E-002    -1.1934196209040238E-007
  -2.0999999999999991E-002    -3.6735784192387655E-007
  -1.9899999999999987E-002    -6.5829436834974331E-007
  -1.8799999999999983E-002    -9.5250368303823052E-007
  -1.7699999999999994E-002    -1.2331285006439430E-006
  -1.6599999999999990E-002    -1.5156563222262776E-006
  -1.5499999999999986E-002    -1.8179888456870685E-006
  -1.4399999999999996E-002    -2.1342461877793539E-006
  -1.3299999999999992E-002    -2.4554935862397542E-006
  -1.2199999999999989E-002    -2.8128065423516091E-006
  -1.1099999999999985E-002    -3.2786242627480533E-006
  -9.9999999999999950E-003    -3.9164760892163031E-006
  -8.8999999999999913E-003    -4.7460612222494092E-006
  -7.7999999999999875E-003    -5.7738175200938713E-006
  -6.6999999999999837E-003    -7.0468499870912638E-006
  -5.5999999999999939E-003    -8.6553409346379340E-006
  -4.4999999999999901E-003    -1.0685410416044760E-005
  -3.3999999999999864E-003    -1.3193717677495442E-005
  -2.2999999999999826E-003    -1.6232021152973175E-005
  -1.1999999999999927E-003    -1.9867380615323782E-005
  -9.9999999999988987E-005    -2.4160031898645684E-005
   1.0000000000000148E-003    -2.9158971301512793E-005
   2.1000000000000185E-003    -3.4966196835739538E-005
   3.2000000000000084E-003    -4.1794744902290404E-005
   4.3000000000000121E-003    -4.9909165682038292E-005
   5.4000000000000159E-003    -5.9493297158041969E-005
   6.5000000000000058E-003    -7.0635083829984069E-005
   7.6000000000000234E-003    -8.3490383985918015E-005
   8.7000000000000133E-003    -9.8421332950238138E-005
   9.8000000000000032E-003    -1.1588984489208087E-004
   1.0900000000000021E-002    -1.3620551908388734E-004
   1.2000000000000011E-002    -1.5946262283250690E-004
   1.3100000000000001E-002    -1.8579704919829965E-004
   1.4200000000000018E-002    -2.1563463087659329E-004
   1.5300000000000008E-002    -2.4959407164715230E-004
   1.6400000000000026E-002    -2.8818182181566954E-004
   1.7500000000000016E-002    -3.3165834611281753E-004
   1.8600000000000005E-002    -3.8020499050617218E-004
   1.9700000000000023E-002    -4.3417449342086911E-004
   2.0800000000000013E-002    -4.9409375060349703E-004
   2.1900000000000003E-002    -5.6045688688755035E-004
   2.3000000000000020E-002    -6.3363352091982961E-004
   2.4100000000000010E-002    -7.1390572702512145E-004
   2.5200000000000000E-002    -8.0139021156355739E-004
   2.6300000000000018E-002    -8.9592393487691879E-004
   2.7400000000000008E-002    -9.9727080669254065E-004
   2.8500000000000025E-002    -1.1055046925321221E-003
   2.9600000000000015E-002    -1.2209011474624276E-003
   3.0700000000000005E-002    -1.3433666899800301E-003
   3.1800000000000023E-002    -1.4719479950144887E-003
   3.2900000000000013E-002    -1.6051434213295579E-003
   3.4000000000000002E-002    -1.7418297939002514E-003
   3.5100000000000020E-002    -1.8816285300999880E-003
   3.6200000000000010E-002    -2.0240035373717546E-003
   3.7300000000000028E-002    -2.1668814588338137E-003
   3.8400000000000017E-002    -2.3068357259035110E-003
   3.9500000000000007E-002    -2.4406726006418467E-003
   4.0600000000000025E-002    -2.5663450360298157E-003
   4.1700000000000015E-002    -2.6822681538760662E-003
   4.2800000000000005E-002    -2.7859325055032969E-003
   4.3900000000000022E-002    -2.8736537788063288E-003
   4.5000000000000012E-002    -2.9409322887659073E-003
   4.6100000000000002E-002    -2.9831395950168371E-003
   4.7200000000000020E-002    -2.9963736888021231E-003
   4.8300000000000010E-002    -2.9774820432066917E-003
   4.9400000000000027E-002    -2.9233573004603386E-003
   5.0500000000000017E-002    -2.8306851163506508E-003
   5.1600000000000007E-002    -2.6948344893753529E-003
   5.2700000000000025E-002    -2.5101550854742527E-003
   5.3800000000000014E-002    -2.2730252239853144E-003
   5.4900000000000004E-002    -1.9824248738586903E-003
   5.6000000000000022E-002    -1.6379315638914704E-003
   5.7100000000000012E-002    -1.2386320158839226E-003
   5.8200000000000002E-002    -7.8241684241220355E-004
   5.9300000000000019E-002    -2.6638756389729679E-004
   6.0400000000000009E-002     3.0911137582734227E-004
   6.1500000000000027E-002     9.3976431526243687E-004
   6.2600000000000017E-002     1.6195785719901323E-003
   6.3700000000000007E-002     2.3434660397469997E-003
   6.4800000000000024E-002     3.1089731492102146E-003
   6.5900000000000014E-002     3.9125164039433002E-003
   6.7000000000000004E-002     4.7455755993723869E-003
   6.8100000000000022E-002     5.5967778898775578E-003
   6.9200000000000012E-002     6.4550689421594143E-003
   7.0300000000000029E-002     7.3094698600471020E-003
   7.1400000000000019E-002     8.1487381830811501E-003
   7.2500000000000009E-002     8.9614018797874451E-003
   7.3600000000000027E-002     9.7362808883190155E-003
   7.4700000000000016E-002     1.0461064055562019E-002
   7.5800000000000006E-002     1.1118576861917973E-002
   7.6900000000000024E-002     1.1691271327435970E-002
   7.8000000000000014E-002     1.2168031185865402E-002
   7.9100000000000004E-002     1.2543000280857086E-002
   8.0200000000000021E-002     1.2807599268853664E-002
   8.1300000000000011E-002     1.2947945855557919E-002
   8.2400000000000029E-002     1.2949643656611443E-002
   8.3500000000000019E-002     1.2804439291357994E-002
   8.4600000000000009E-002     1.2511523440480232E-002
   8.5700000000000026E-002     1.2073006480932236E-002
   8.6800000000000016E-002     1.1488911695778370E-002
   8.7900000000000006E-002     1.0756692849099636E-002
   8.9000000000000024E-002     9.8770130425691605E-003
   9.0100000000000013E-002     8.8562620803713799E-003
   9.1200000000000003E-002     7.7047748491168022E-003
   9.2300000000000021E-002     6.4353169873356819E-003
   9.3400000000000011E-002     5.0641987472772598E-003
   9.4500000000000028E-002     3.6091627553105354E-003
   9.5600000000000018E-002     2.0847232080996037E-003
   9.6700000000000008E-002     5.0217116950079799E-004
   9.7800000000000026E-002    -1.1224086629226804E-003
   9.8900000000000016E-002    -2.7619132306426764E-003
  0.10000000000000001         -4.3847905471920967E-003
  0.10110000000000002         -5.9673408977687359E-003
  0.10220000000000001         -7.4975797906517982E-003
  0.10330000000000003         -8.9652612805366516E-003
  0.10440000000000002         -1.0350381024181843E-002
  0.10550000000000001         -1.1625019833445549E-002
  0.10660000000000003         -1.2764610350131989E-002
  0.10770000000000002         -1.3755325227975845E-002
  0.10880000000000001         -1.4592801220715046E-002
  0.10990000000000003         -1.5273795463144779E-002
  0.11100000000000002         -1.5791071578860283E-002
  0.11210000000000001         -1.6134431585669518E-002
  0.11320000000000002         -1.6296822577714920E-002
  0.11430000000000001         -1.6278445720672607E-002
  0.11540000000000003         -1.6083803027868271E-002
  0.11650000000000002         -1.5722380951046944E-002
  0.11760000000000001         -1.5208343975245953E-002
  0.11870000000000003         -1.4555215835571289E-002
  0.11980000000000002         -1.3770951889455318E-002
  0.12090000000000001         -1.2858655303716660E-002
  0.12200000000000003         -1.1830574832856655E-002
  0.12310000000000001         -1.0714653879404068E-002
  0.12420000000000003         -9.5410840585827827E-003
  0.12530000000000002         -8.3260321989655495E-003
  0.12640000000000001         -7.0736347697675228E-003
  0.12750000000000003         -5.7939933612942696E-003
  0.12860000000000002         -4.5091998763382435E-003
  0.12970000000000001         -3.2444461248815060E-003
  0.13080000000000003         -2.0176153630018234E-003
  0.13190000000000002         -8.3983177319169044E-004
  0.13300000000000001          2.7861408307217062E-004
  0.13410000000000000          1.3271920615807176E-003
  0.13520000000000004          2.2987436968833208E-003
  0.13630000000000003          3.1896089203655720E-003
  0.13740000000000002          3.9924532175064087E-003
  0.13850000000000001          4.6948879025876522E-003
  0.13960000000000000          5.2898591384291649E-003
  0.14070000000000005          5.7831760495901108E-003
  0.14180000000000004          6.1863721348345280E-003
  0.14290000000000003          6.5035577863454819E-003
  0.14400000000000002          6.7290253937244415E-003
  0.14510000000000001          6.8588457070291042E-003
  0.14620000000000000          6.9009568542242050E-003
  0.14730000000000004          6.8698758259415627E-003
  0.14840000000000003          6.7751179449260235E-003
  0.14950000000000002          6.6197765991091728E-003
  0.15060000000000001          6.4090699888765812E-003
  0.15170000000000000          6.1535811983048916E-003
  0.15280000000000005          5.8621070347726345E-003
  0.15390000000000004          5.5369450710713863E-003
  0.15500000000000003          5.1808478310704231E-003
  0.15610000000000002          4.8062079586088657E-003
  0.15720000000000001          4.4292616657912731E-003
  0.15830000000000000          4.0556802414357662E-003
  0.15940000000000004          3.6793956533074379E-003
  0.16050000000000003          3.2971231266856194E-003
  0.16160000000000002          2.9188597109168768E-003
  0.16270000000000001          2.5596076156944036E-003
  0.16380000000000000          2.2240697871893644E-003
  0.16490000000000005          1.9062831997871399E-003
  0.16600000000000004          1.6022854251787066E-003
  0.16710000000000003          1.3171726604923606E-003
  0.16820000000000002          1.0570466984063387E-003
  0.16930000000000001          8.2006887532770634E-004
  0.17040000000000000          6.0150376521050930E-004
  0.17150000000000004          4.0369611815549433E-004
  0.17260000000000003          2.3314490681514144E-004
  0.17370000000000002          8.7778651504777372E-005
  0.17480000000000001         -4.3487823859322816E-005
  0.17590000000000000         -1.6600170056335628E-004
  0.17700000000000005         -2.7128541842103004E-004
  0.17810000000000004         -3.4969468833878636E-004
  0.17920000000000003         -4.0590012213215232E-004
  0.18030000000000002         -4.5499074622057378E-004
  0.18140000000000001         -5.0361966714262962E-004
  0.18250000000000000         -5.4276140872389078E-004
  0.18360000000000004         -5.6327646598219872E-004
  0.18470000000000003         -5.7025766000151634E-004
  0.18580000000000002         -5.7549634948372841E-004
  0.18690000000000001         -5.8075040578842163E-004
  0.18800000000000000         -5.7778233895078301E-004
  0.18910000000000005         -5.6403968483209610E-004
  0.19020000000000004         -5.4798816563561559E-004
  0.19130000000000003         -5.3586845751851797E-004
  0.19240000000000002         -5.2186421817168593E-004
  0.19350000000000001         -4.9800443230196834E-004
  0.19460000000000005         -4.6841576113365591E-004
  0.19570000000000004         -4.4472963782027364E-004
  0.19680000000000003         -4.2859042878262699E-004
  0.19790000000000002         -4.0848329081200063E-004
  0.19900000000000001         -3.7708785384893417E-004
  0.20010000000000000         -3.4280295949429274E-004
  0.20120000000000005         -3.1766915344633162E-004
  0.20230000000000004         -2.9965274734422565E-004
  0.20340000000000003         -2.7617841260507703E-004
  0.20450000000000002         -2.4351483443751931E-004
  0.20560000000000000         -2.1200424816925079E-004
  0.20670000000000005         -1.8977621220983565E-004
  0.20780000000000004         -1.7048760491888970E-004
  0.20890000000000003         -1.4378750347532332E-004
