 -0.12000000000000000          0.0000000000000000     
 -0.11889999999999999          0.0000000000000000     
 -0.11780000000000000          0.0000000000000000     
 -0.11670000000000000          0.0000000000000000     
 -0.11559999999999999          0.0000000000000000     
 -0.11449999999999999          0.0000000000000000     
 -0.11340000000000000          0.0000000000000000     
 -0.11230000000000000          0.0000000000000000     
 -0.11119999999999999         -2.6777132282871687E-014
 -0.11009999999999999          1.9617273571640587E-013
 -0.10900000000000000         -3.7010403286996327E-014
 -0.10790000000000000         -2.7932779787104289E-012
 -0.10679999999999999          2.5751989516514806E-012
 -0.10569999999999999          2.5121276586714814E-011
 -0.10460000000000000         -2.0350025484172640E-011
 -0.10349999999999999         -1.7970860910487829E-010
 -0.10239999999999999          5.5531110959572416E-011
 -0.10130000000000000          1.0452206877786807E-009
 -0.10020000000000000          3.7640432437591187E-010
  -9.9099999999999994E-002    -4.7305772632455501E-009
  -9.7999999999999990E-002    -5.4335238530711649E-009
  -9.6899999999999986E-002     1.5033746691983652E-008
  -9.5799999999999996E-002     3.4846198815330354E-008
  -9.4699999999999993E-002    -2.2175216329856084E-008
  -9.3599999999999989E-002    -1.4292481864686124E-007
  -9.2499999999999999E-002    -7.2909600135062647E-008
  -9.1399999999999995E-002     3.6878452647215454E-007
  -9.0299999999999991E-002     6.1070028323229053E-007
  -8.9200000000000002E-002    -3.6724398455589835E-007
  -8.8099999999999984E-002    -2.0336224224593025E-006
  -8.6999999999999994E-002    -1.3627985708808410E-006
  -8.5899999999999990E-002     3.3085946142819012E-006
  -8.4799999999999986E-002     6.8887197812728118E-006
  -8.3699999999999997E-002     9.8712962426361628E-007
  -8.2599999999999993E-002    -1.2522355063993018E-005
  -8.1499999999999989E-002    -1.6696900274837390E-005
  -8.0399999999999999E-002     9.5406880973314401E-007
  -7.9299999999999995E-002     2.6504241759539582E-005
  -7.8199999999999992E-002     3.3414944482501596E-005
  -7.7100000000000002E-002     1.7693566405796446E-005
  -7.5999999999999984E-002    -9.5660816441522911E-006
  -7.4899999999999994E-002    -6.6803208028431982E-005
  -7.3799999999999991E-002    -1.6743688320275396E-004
  -7.2699999999999987E-002    -1.8568140512797982E-004
  -7.1599999999999997E-002     1.2195168528705835E-004
  -7.0499999999999993E-002     7.2555179940536618E-004
  -6.9399999999999989E-002     9.5996720483526587E-004
  -6.8300000000000000E-002    -6.9755014919792302E-006
  -6.7199999999999996E-002    -1.9248606404289603E-003
  -6.6099999999999992E-002    -2.9522865079343319E-003
  -6.5000000000000002E-002    -1.2258978094905615E-003
  -6.3899999999999985E-002     2.7227965183556080E-003
  -6.2799999999999995E-002     5.7906429283320904E-003
  -6.1699999999999991E-002     5.2134385332465172E-003
  -6.0599999999999994E-002     1.1773211881518364E-003
  -5.9499999999999990E-002    -4.2292848229408264E-003
  -5.8399999999999994E-002    -9.6834590658545494E-003
  -5.7299999999999990E-002    -1.3988066464662552E-002
  -5.6199999999999986E-002    -1.2867437675595284E-002
  -5.5099999999999996E-002    -5.7604821631684899E-004
  -5.3999999999999992E-002     2.1435433998703957E-002
  -5.2899999999999989E-002     3.9649073034524918E-002
  -5.1799999999999985E-002     3.8514278829097748E-002
  -5.0699999999999995E-002     1.6838666051626205E-002
  -4.9599999999999991E-002    -1.1875719763338566E-002
  -4.8499999999999988E-002    -3.8985621184110641E-002
  -4.7399999999999998E-002    -7.2033114731311798E-002
  -4.6299999999999994E-002   -0.11400286853313446     
  -4.5199999999999990E-002   -0.13360401988029480     
  -4.4099999999999986E-002    -7.6242066919803619E-002
  -4.2999999999999997E-002     7.9044438898563385E-002
  -4.1899999999999993E-002    0.27841025590896606     
  -4.0799999999999989E-002    0.42237994074821472     
  -3.9699999999999985E-002    0.43517386913299561     
  -3.8599999999999995E-002    0.29540511965751648     
  -3.7499999999999992E-002     1.0496438480913639E-002
  -3.6399999999999988E-002   -0.39940351247787476     
  -3.5299999999999984E-002   -0.86624228954315186     
  -3.4199999999999994E-002    -1.2450432777404785     
  -3.3099999999999991E-002    -1.3610714673995972     
  -3.1999999999999987E-002    -1.0934368371963501     
  -3.0899999999999997E-002   -0.39615342020988464     
  -2.9799999999999993E-002    0.73438042402267456     
  -2.8699999999999989E-002     2.2233705520629883     
  -2.7599999999999986E-002     3.7906901836395264     
  -2.6499999999999996E-002     4.9136719703674316     
  -2.5399999999999992E-002     5.0254135131835938     
  -2.4299999999999988E-002     3.7887771129608154     
  -2.3199999999999985E-002     1.1366649866104126     
  -2.2099999999999995E-002    -2.9356858730316162     
  -2.0999999999999991E-002    -8.4750881195068359     
  -1.9899999999999987E-002    -15.363327980041504     
  -1.8799999999999983E-002    -23.105731964111328     
  -1.7699999999999994E-002    -31.038068771362305     
  -1.6599999999999990E-002    -38.810085296630859     
  -1.5499999999999986E-002    -46.548099517822266     
  -1.4399999999999996E-002    -54.508865356445312     
  -1.3299999999999992E-002    -62.811317443847656     
  -1.2199999999999989E-002    -71.779571533203125     
  -1.1099999999999985E-002    -82.496330261230469     
  -9.9999999999999950E-003    -96.710273742675781     
  -8.8999999999999913E-003    -116.06091308593750     
  -7.7999999999999875E-003    -141.59239196777344     
  -6.6999999999999837E-003    -174.18156433105469     
  -5.5999999999999939E-003    -215.20477294921875     
  -4.4999999999999901E-003    -266.44128417968750     
  -3.3999999999999864E-003    -329.40728759765625     
  -2.2999999999999826E-003    -405.20959472656250     
  -1.1999999999999927E-003    -495.14163208007812     
  -9.9999999999988987E-005    -601.13433837890625     
   1.0000000000000148E-003    -725.43859863281250     
   2.1000000000000185E-003    -870.56555175781250     
   3.2000000000000084E-003    -1040.1501464843750     
   4.3000000000000121E-003    -1239.8073730468750     
   5.4000000000000159E-003    -1476.0566406250000     
   6.5000000000000058E-003    -1754.0931396484375     
   7.6000000000000234E-003    -2077.4555664062500     
   8.7000000000000133E-003    -2450.6098632812500     
   9.8000000000000032E-003    -2881.4055175781250     
   1.0900000000000021E-002    -3379.7885742187500     
   1.2000000000000011E-002    -3953.9191894531250     
   1.3100000000000001E-002    -4608.9184570312500     
   1.4200000000000018E-002    -5350.5625000000000     
   1.5300000000000008E-002    -6188.5742187500000     
   1.6400000000000026E-002    -7136.0141601562500     
   1.7500000000000016E-002    -8205.0878906250000     
   1.8600000000000005E-002    -9404.8564453125000     
   1.9700000000000023E-002    -10742.819335937500     
   2.0800000000000013E-002    -12226.322265625000     
   2.1900000000000003E-002    -13862.702148437500     
   2.3000000000000020E-002    -15659.253906250000     
   2.4100000000000010E-002    -17621.867187500000     
   2.5200000000000000E-002    -19757.433593750000     
   2.6300000000000018E-002    -22069.021484375000     
   2.7400000000000008E-002    -24553.947265625000     
   2.8500000000000025E-002    -27204.279296875000     
   2.9600000000000015E-002    -30014.013671875000     
   3.0700000000000005E-002    -32980.023437500000     
   3.1800000000000023E-002    -36092.417968750000     
   3.2900000000000013E-002    -39329.222656250000     
   3.4000000000000002E-002    -42651.742187500000     
   3.5100000000000020E-002    -46021.433593750000     
   3.6200000000000010E-002    -49408.562500000000     
   3.7300000000000028E-002    -52779.300781250000     
   3.8400000000000017E-002    -56080.093750000000     
   3.9500000000000007E-002    -59241.804687500000     
   4.0600000000000025E-002    -62189.230468750000     
   4.1700000000000015E-002    -64857.468750000000     
   4.2800000000000005E-002    -67173.539062500000     
   4.3900000000000022E-002    -69059.078125000000     
   4.5000000000000012E-002    -70421.304687500000     
   4.6100000000000002E-002    -71162.250000000000     
   4.7200000000000020E-002    -71180.890625000000     
   4.8300000000000010E-002    -70374.515625000000     
   4.9400000000000027E-002    -68644.929687500000     
   5.0500000000000017E-002    -65894.453125000000     
   5.1600000000000007E-002    -62059.835937500000     
   5.2700000000000025E-002    -57052.187500000000     
   5.3800000000000014E-002    -50782.003906250000     
   5.4900000000000004E-002    -43154.406250000000     
   5.6000000000000022E-002    -34118.812500000000     
   5.7100000000000012E-002    -23680.880859375000     
   5.8200000000000002E-002    -11864.373046875000     
   5.9300000000000019E-002     1329.3529052734375     
   6.0400000000000009E-002     15933.337890625000     
   6.1500000000000027E-002     31910.126953125000     
   6.2600000000000017E-002     49154.203125000000     
   6.3700000000000007E-002     67477.218750000000     
   6.4800000000000024E-002     86733.375000000000     
   6.5900000000000014E-002     106775.56250000000     
   6.7000000000000004E-002     127453.80468750000     
   6.8100000000000022E-002     148526.18750000000     
   6.9200000000000012E-002     169727.89062500000     
   7.0300000000000029E-002     190743.18750000000     
   7.1400000000000019E-002     211267.48437500000     
   7.2500000000000009E-002     230962.78125000000     
   7.3600000000000027E-002     249518.39062500000     
   7.4700000000000016E-002     266658.18750000000     
   7.5800000000000006E-002     282081.53125000000     
   7.6900000000000024E-002     295401.31250000000     
   7.8000000000000014E-002     306239.21875000000     
   7.9100000000000004E-002     314254.09375000000     
   8.0200000000000021E-002     319248.78125000000     
   8.1300000000000011E-002     321065.93750000000     
   8.2400000000000029E-002     319510.84375000000     
   8.3500000000000019E-002     314344.31250000000     
   8.4600000000000009E-002     305382.96875000000     
   8.5700000000000026E-002     292570.21875000000     
   8.6800000000000016E-002     275998.90625000000     
   8.7900000000000006E-002     255782.75000000000     
   8.9000000000000024E-002     232010.56250000000     
   9.0100000000000013E-002     204833.84375000000     
   9.1200000000000003E-002     174481.18750000000     
   9.2300000000000021E-002     141235.03125000000     
   9.3400000000000011E-002     105449.09375000000     
   9.4500000000000028E-002     67572.046875000000     
   9.5600000000000018E-002     28113.302734375000     
   9.6700000000000008E-002    -12424.493164062500     
   9.7800000000000026E-002    -53605.917968750000     
   9.8900000000000016E-002    -94984.687500000000     
  0.10000000000000001         -136012.67187500000     
  0.10110000000000002         -176029.50000000000     
  0.10220000000000001         -214396.96875000000     
  0.10330000000000003         -250645.03125000000     
  0.10440000000000002         -284427.21875000000     
  0.10550000000000001         -315348.81250000000     
  0.10660000000000003         -342890.43750000000     
  0.10770000000000002         -366636.84375000000     
  0.10880000000000001         -386248.65625000000     
  0.10990000000000003         -401592.56250000000     
  0.11100000000000002         -412532.68750000000     
  0.11210000000000001         -418994.84375000000     
  0.11320000000000002         -420884.68750000000     
  0.11430000000000001         -418248.62500000000     
  0.11540000000000003         -411258.06250000000     
  0.11650000000000002         -400045.81250000000     
  0.11760000000000001         -384781.31250000000     
  0.11870000000000003         -365818.90625000000     
  0.11980000000000002         -343605.12500000000     
  0.12090000000000001         -318586.75000000000     
  0.12200000000000003         -291028.37500000000     
  0.12310000000000001         -261196.12500000000     
  0.12420000000000003         -229651.14062500000     
  0.12530000000000002         -197053.37500000000     
  0.12640000000000001         -163928.06250000000     
  0.12750000000000003         -130583.68750000000     
  0.12860000000000002         -97305.281250000000     
  0.12970000000000001         -64551.242187500000     
  0.13080000000000003         -32843.660156250000     
  0.13190000000000002         -2577.2336425781250     
  0.13300000000000001          26032.595703125000     
  0.13410000000000000          52784.406250000000     
  0.13520000000000004          77352.312500000000     
  0.13630000000000003          99496.882812500000     
  0.13740000000000002          119193.43750000000     
  0.13850000000000001          136461.21875000000     
  0.13960000000000000          151200.87500000000     
  0.14070000000000005          163221.64062500000     
  0.14180000000000004          172525.85937500000     
  0.14290000000000003          179367.48437500000     
  0.14400000000000002          184007.76562500000     
  0.14510000000000001          186484.75000000000     
  0.14620000000000000          186749.87500000000     
  0.14730000000000004          184946.84375000000     
  0.14840000000000003          181423.62500000000     
  0.14950000000000002          176474.48437500000     
  0.15060000000000001          170208.71875000000     
  0.15170000000000000          162706.57812500000     
  0.15280000000000005          154227.17187500000     
  0.15390000000000004          145099.75000000000     
  0.15500000000000003          135483.95312500000     
  0.15610000000000002          125394.34375000000     
  0.15720000000000001          114941.39062500000     
  0.15830000000000000          104444.23437500000     
  0.15940000000000004          94199.234375000000     
  0.16050000000000003          84233.070312500000     
  0.16160000000000002          74418.601562500000     
  0.16270000000000001          64807.593750000000     
  0.16380000000000000          55668.164062500000     
  0.16490000000000005          47203.500000000000     
  0.16600000000000004          39352.539062500000     
  0.16710000000000003          31963.162109375000     
  0.16820000000000002          25078.261718750000     
  0.16930000000000001          18875.384765625000     
  0.17040000000000000          13370.956054687500     
  0.17150000000000004          8396.0380859375000     
  0.17260000000000003          3858.8916015625000     
  0.17370000000000002         -118.04965972900391     
  0.17480000000000001         -3403.1003417968750     
  0.17590000000000000         -6124.1547851562500     
  0.17700000000000005         -8535.8134765625000     
  0.17810000000000004         -10698.699218750000     
  0.17920000000000003         -12437.958984375000     
  0.18030000000000002         -13648.031250000000     
  0.18140000000000001         -14492.399414062500     
  0.18250000000000000         -15200.541992187500     
  0.18360000000000004         -15783.979492187500     
  0.18470000000000003         -16088.601562500000     
  0.18580000000000002         -16083.078125000000     
  0.18690000000000001         -15950.778320312500     
  0.18800000000000000         -15832.120117187500     
  0.18910000000000005         -15631.990234375000     
  0.19020000000000004         -15201.447265625000     
  0.19130000000000003         -14605.102539062500     
  0.19240000000000002         -14055.858398437500     
  0.19350000000000001         -13618.186523437500     
  0.19460000000000005         -13133.010742187500     
  0.19570000000000004         -12468.333984375000     
  0.19680000000000003         -11720.608398437500     
  0.19790000000000002         -11074.266601562500     
  0.19900000000000001         -10527.102539062500     
  0.20010000000000000         -9919.2265625000000     
  0.20120000000000005         -9197.1660156250000     
  0.20230000000000004         -8505.1728515625000     
  0.20340000000000003         -7953.7407226562500     
  0.20450000000000002         -7438.1752929687500     
  0.20560000000000000         -6789.7509765625000     
  0.20670000000000005         -6039.1821289062500     
  0.20780000000000004         -5386.9458007812500     
  0.20890000000000003         -4911.4018554687500     
