 -0.12000000000000000          0.0000000000000000
 -0.11889999999999999          0.0000000000000000
 -0.11780000000000000          0.0000000000000000
 -0.11670000000000000          0.0000000000000000
 -0.11559999999999999          0.0000000000000000
 -0.11449999999999999          0.0000000000000000
 -0.11340000000000000          0.0000000000000000
 -0.11230000000000000          0.0000000000000000
 -0.11119999999999999          0.0000000000000000
 -0.11009999999999999          0.0000000000000000
 -0.10900000000000000          0.0000000000000000
 -0.10790000000000000          0.0000000000000000
 -0.10679999999999999          0.0000000000000000
 -0.10569999999999999          0.0000000000000000
 -0.10460000000000000          0.0000000000000000
 -0.10349999999999999          0.0000000000000000
 -0.10239999999999999          0.0000000000000000
 -0.10130000000000000          0.0000000000000000
 -0.10020000000000000          0.0000000000000000
  -9.9099999999999994E-002     0.0000000000000000
  -9.7999999999999990E-002     1.5257051814681886E-038
  -9.6899999999999986E-002    -1.7992616229992078E-037
  -9.5799999999999996E-002     1.0898454192284746E-037
  -9.4699999999999993E-002     2.6624925522180400E-036
  -9.3599999999999989E-002    -3.9959730137570286E-036
  -9.2499999999999999E-002    -2.9494987102195098E-035
  -9.1399999999999995E-002     5.4106811106899840E-035
  -9.0299999999999991E-002     2.8228073384806786E-034
  -8.9200000000000002E-002    -4.9113526918022734E-034
  -8.8099999999999984E-002    -2.4500343862769224E-033
  -8.6999999999999994E-002     3.2310534041143896E-033
  -8.5899999999999990E-002     1.9282466968159127E-032
  -8.4799999999999986E-002    -1.3873767667476233E-032
  -8.3699999999999997E-002    -1.3467852717342798E-031
  -8.2599999999999993E-002     7.0790576714181642E-033
  -8.1499999999999989E-002     8.1077588150226188E-031
  -8.0399999999999999E-002     5.3403644051359776E-031
  -7.9299999999999995E-002    -4.0412611809518426E-030
  -7.8199999999999992E-002    -6.0495137218740572E-030
  -7.7100000000000002E-002     1.5387375277122571E-029
  -7.5999999999999984E-002     4.3040140729369088E-029
  -7.4899999999999994E-002    -3.3347534163110213E-029
  -7.3799999999999991E-002    -2.2751763953137159E-028
  -7.2699999999999987E-002    -7.3391833687939731E-029
  -7.1599999999999997E-002     8.9952830649940227E-028
  -7.0499999999999993E-002     1.2210285106443273E-027
  -6.9399999999999989E-002    -2.3506849343440965E-027
  -6.8300000000000000E-002    -7.2754014320089775E-027
  -6.7199999999999996E-002     1.0803604171397308E-027
  -6.6099999999999992E-002     2.8146794372854850E-026
  -6.5000000000000002E-002     2.7526278233700748E-026
  -6.3899999999999985E-002    -6.7843757319261364E-026
  -6.2799999999999995E-002    -1.7226674829458816E-025
  -6.1699999999999991E-002     2.6997183677890776E-026
  -6.0599999999999994E-002     5.9450352476014827E-025
  -5.9499999999999990E-002     6.1972449258380870E-025
  -5.8399999999999994E-002    -1.1094573297616782E-024
  -5.7299999999999990E-002    -3.2302055465936530E-024
  -5.6199999999999986E-002    -6.4326050281772362E-025
  -5.5099999999999996E-002     8.6069986461850212E-024
  -5.3999999999999992E-002     1.2517666932152362E-023
  -5.2899999999999989E-002    -8.2880093285235163E-024
  -5.1799999999999985E-002    -4.4519658642404543E-023
  -5.0699999999999995E-002    -3.4456933158187212E-023
  -4.9599999999999991E-002     7.1907498788379538E-023
  -4.8499999999999988E-002     1.8037389163767475E-022
  -4.7399999999999998E-002     5.4532490252088456E-023
  -4.6299999999999994E-002    -3.6871638913423626E-022
  -4.5199999999999990E-002    -6.1462084257265011E-022
  -4.4099999999999986E-002     4.6967954726073992E-023
  -4.2999999999999997E-002     1.4654903043989661E-021
  -4.1899999999999993E-002     1.8647005725192892E-021
  -4.0799999999999989E-002    -6.7264601763804821E-022
  -3.9699999999999985E-002    -4.9037124637347457E-021
  -3.8599999999999995E-002    -5.3731184782097657E-021
  -3.7499999999999992E-002     2.5210086118561627E-021
  -3.6399999999999988E-002     1.4352147467704759E-020
  -3.5299999999999984E-002     1.5697128603431777E-020
  -3.4199999999999994E-002    -4.8019292626091595E-021
  -3.3099999999999991E-002    -3.7193820814277433E-020
  -3.1999999999999987E-002    -4.7783290080953260E-020
  -3.0899999999999997E-002    -4.6137420381822944E-021
  -2.9799999999999993E-002     8.3212321058348808E-020
  -2.8699999999999989E-002     1.4621912714325895E-019
  -2.7599999999999986E-002     8.5385499010936072E-020
  -2.6499999999999996E-002    -1.4169952859854285E-019
  -2.5399999999999992E-002    -4.1784118744442385E-019
  -2.4299999999999988E-002    -4.4558358441853357E-019
  -2.3199999999999985E-002     6.7234965635369087E-020
  -2.2099999999999995E-002     1.0197736949592085E-018
  -2.0999999999999991E-002     1.6366832380424549E-018
  -1.9899999999999987E-002     8.0437798310071978E-019
  -1.8799999999999983E-002    -1.8127938161653275E-018
  -1.7699999999999994E-002    -4.6456928199203442E-018
  -1.6599999999999990E-002    -4.5247685269421359E-018
  -1.5499999999999986E-002     8.5958856667587789E-019
  -1.4399999999999996E-002     9.7221382894664525E-018
  -1.3299999999999992E-002     1.5263409632430609E-017
  -1.2199999999999989E-002     9.3279147628716427E-018
  -1.1099999999999985E-002    -1.0540272854840600E-017
  -9.9999999999999950E-003    -3.5327967446021103E-017
  -8.8999999999999913E-003    -4.5425089868214995E-017
  -7.7999999999999875E-003    -2.0663636754787124E-017
  -6.6999999999999837E-003     4.2963079419179514E-017
  -5.5999999999999939E-003     1.1818894235011588E-016
  -4.4999999999999901E-003     1.4611547303730236E-016
  -3.3999999999999864E-003     6.2949873983383898E-017
  -2.2999999999999826E-003    -1.4690793853390776E-016
  -1.1999999999999927E-003    -3.9762736158057571E-016
  -9.9999999999988987E-005    -4.9734169478790765E-016
   1.0000000000000148E-003    -2.3487342183701012E-016
   2.1000000000000185E-003     4.4985125735287840E-016
   3.2000000000000084E-003     1.2979846062847805E-015
   4.3000000000000121E-003     1.7106238004406461E-015
   5.4000000000000159E-003     9.9630164602154464E-016
   6.5000000000000058E-003    -1.1249281518642016E-015
   7.6000000000000234E-003    -3.9870967381079765E-015
   8.7000000000000133E-003    -5.8213690317602661E-015
   9.8000000000000032E-003    -4.3668567602293904E-015
   1.0900000000000021E-002     1.6991568801589542E-015
   1.2000000000000011E-002     1.1063659753965394E-014
   1.3100000000000001E-002     1.8930396936426772E-014
   1.4200000000000018E-002     1.8214286483697779E-014
   1.5300000000000008E-002     3.2195879026231198E-015
   1.6400000000000026E-002    -2.5259501657210262E-014
   1.7500000000000016E-002    -5.6121513008653909E-014
   1.8600000000000005E-002    -6.8897565061974697E-014
   1.9700000000000023E-002    -4.1805677029969207E-014
   2.0800000000000013E-002     3.4091527750758008E-014
   2.1900000000000003E-002     1.4036005430845266E-013
   2.3000000000000020E-002     2.2576035550551932E-013
   2.4100000000000010E-002     2.1904792433039000E-013
   2.5200000000000000E-002     6.2692323663134097E-014
   2.6300000000000018E-002    -2.4159710690363490E-013
   2.7400000000000008E-002    -5.9720896847595406E-013
   2.8500000000000025E-002    -8.1451810357222043E-013
   2.9600000000000015E-002    -6.7051637679671483E-013
   3.0700000000000005E-002    -2.2924536753491168E-014
   3.1800000000000023E-002     1.0582420356675115E-012
   3.2900000000000013E-002     2.2083192479510627E-012
   3.4000000000000002E-002     2.8079949389997472E-012
   3.5100000000000020E-002     2.1872766185065950E-012
   3.6200000000000010E-002    -3.4516829769837970E-014
   3.7300000000000028E-002    -3.5873426625088189E-012
   3.8400000000000017E-002    -7.3472530143225967E-012
   3.9500000000000007E-002    -9.4718313053965275E-012
   4.0600000000000025E-002    -7.9644450756699570E-012
   4.1700000000000015E-002    -1.5850328861921614E-012
   4.2800000000000005E-002     9.1780099145677418E-012
   4.3900000000000022E-002     2.1508208408738128E-011
   4.5000000000000012E-002     3.0469477635408637E-011
   4.6100000000000002E-002     3.0261362859995700E-011
   4.7200000000000020E-002     1.6384381698597572E-011
   4.8300000000000010E-002    -1.1866199862986537E-011
   4.9400000000000027E-002    -4.9502981575022531E-011
   5.0500000000000017E-002    -8.5532150806422180E-011
   5.1600000000000007E-002    -1.0488903495753377E-010
   5.2700000000000025E-002    -9.2614284297187766E-011
   5.3800000000000014E-002    -3.9413413505107187E-011
   5.4900000000000004E-002     5.2987021020856062E-011
   5.6000000000000022E-002     1.6859252882639453E-010
   5.7100000000000012E-002     2.7762661614083584E-010
   5.8200000000000002E-002     3.4149696959140385E-010
   5.9300000000000019E-002     3.2173558262016400E-010
   6.0400000000000009E-002     1.9113927107738959E-010
   6.1500000000000027E-002    -5.5550779254343041E-011
   6.2600000000000017E-002    -3.9428926790208152E-010
   6.3700000000000007E-002    -7.6993988962215099E-010
   6.4800000000000024E-002    -1.1010553579993143E-009
   6.5900000000000014E-002    -1.2906441471116636E-009
   6.7000000000000004E-002    -1.2408652994011504E-009
   6.8100000000000022E-002    -8.6860019177237291E-010
   6.9200000000000012E-002    -1.1850338765828639E-010
   7.0300000000000029E-002     1.0295581054364789E-009
   7.1400000000000019E-002     2.5608521969644471E-009
   7.2500000000000009E-002     4.4347605587802263E-009
   7.3600000000000027E-002     6.6016130340074142E-009
   7.4700000000000016E-002     9.0249194784064457E-009
   7.5800000000000006E-002     1.1705036051523621E-008
   7.6900000000000024E-002     1.4699784500749047E-008
   7.8000000000000014E-002     1.8137550128471958E-008
   7.9100000000000004E-002     2.2220215001311772E-008
   8.0200000000000021E-002     2.7216204401270261E-008
   8.1300000000000011E-002     3.3446230673916943E-008
   8.2400000000000029E-002     4.1267544048650961E-008
   8.3500000000000019E-002     5.1063437922493904E-008
   8.4600000000000009E-002     6.3243312808936025E-008
   8.5700000000000026E-002     7.8256292113110248E-008
   8.6800000000000016E-002     9.6618116174340685E-008
   8.7900000000000006E-002     1.1894520213218129E-007
   8.9000000000000024E-002     1.4598660413867037E-007
   9.0100000000000013E-002     1.7865126267224696E-007
   9.1200000000000003E-002     2.1802334515541588E-007
   9.2300000000000021E-002     2.6536739028415468E-007
   9.3400000000000011E-002     3.2213560530180985E-007
   9.4500000000000028E-002     3.8997671936158440E-007
   9.5600000000000018E-002     4.7075911879801424E-007
   9.6700000000000008E-002     5.6660752534298808E-007
   9.7800000000000026E-002     6.7995262043041294E-007
   9.8900000000000016E-002     8.1357580938856700E-007
  0.10000000000000001          9.7065094450954348E-007
  0.10110000000000002          1.1547738267836394E-006
  0.10220000000000001          1.3699691407964565E-006
  0.10330000000000003          1.6206978443733533E-006
  0.10440000000000002          1.9118638192594517E-006
  0.10550000000000001          2.2488034119305667E-006
  0.10660000000000003          2.6373400032753125E-006
  0.10770000000000002          3.0837677513773087E-006
  0.10880000000000001          3.5949267385149142E-006
  0.10990000000000003          4.1781722757150419E-006
  0.11100000000000002          4.8413744480058085E-006
  0.11210000000000001          5.5928508118086029E-006
  0.11320000000000002          6.4413015934405848E-006
  0.11430000000000001          7.3957248787337448E-006
  0.11540000000000003          8.4652992882183753E-006
  0.11650000000000002          9.6593066700734198E-006
  0.11760000000000001          1.0986961569869891E-005
  0.11870000000000003          1.2457341654226184E-005
  0.11980000000000002          1.4079120774113107E-005
  0.12090000000000001          1.5860428902669810E-005
  0.12200000000000003          1.7808555639931001E-005
  0.12310000000000001          1.9929730115109123E-005
  0.12420000000000003          2.2228727175388485E-005
  0.12530000000000002          2.4708480850677006E-005
  0.12640000000000001          2.7369958843337372E-005
  0.12750000000000003          3.0211782359401695E-005
  0.12860000000000002          3.3229825930902734E-005
  0.12970000000000001          3.6416924558579922E-005
  0.13080000000000003          3.9762446249369532E-005
  0.13190000000000002          4.3251988245174289E-005
  0.13300000000000001          4.6866905904607847E-005
  0.13410000000000000          5.0584178097778931E-005
  0.13520000000000004          5.4376250773202628E-005
  0.13630000000000003          5.8210291172144935E-005
  0.13740000000000002          6.2048944528214633E-005
  0.13850000000000001          6.5849373640958220E-005
  0.13960000000000000          6.9564055593218654E-005
  0.14070000000000005          7.3140334279742092E-005
  0.14180000000000004          7.6521624578163028E-005
  0.14290000000000003          7.9646459198556840E-005
  0.14400000000000002          8.2449565525166690E-005
  0.14510000000000001          8.4862476796843112E-005
  0.14620000000000000          8.6814237874932587E-005
  0.14730000000000004          8.8232598500326276E-005
  0.14840000000000003          8.9044428023044020E-005
  0.14950000000000002          8.9178327471017838E-005
  0.15060000000000001          8.8564207544550300E-005
  0.15170000000000000          8.7134954810608178E-005
  0.15280000000000005          8.4827297541778535E-005
  0.15390000000000004          8.1585742009337991E-005
  0.15500000000000003          7.7360193245112896E-005
  0.15610000000000002          7.2110837209038436E-005
  0.15720000000000001          6.5808104409370571E-005
  0.15830000000000000          5.8433870435692370E-005
  0.15940000000000004          4.9983413191512227E-005
  0.16050000000000003          4.0465751226292923E-005
  0.16160000000000002          2.9906217605457641E-005
  0.16270000000000001          1.8346123397350311E-005
  0.16380000000000000          5.8420591813046485E-006
  0.16490000000000005         -7.5338925853429828E-006
  0.16600000000000004         -2.1691228539566509E-005
  0.16710000000000003         -3.6522964364849031E-005
  0.16820000000000002         -5.1906863518524915E-005
  0.16930000000000001         -6.7707347625400871E-005
  0.17040000000000000         -8.3774044469464570E-005
  0.17150000000000004         -9.9945253168698400E-005
  0.17260000000000003         -1.1605014151427895E-004
  0.17370000000000002         -1.3191023026593029E-004
  0.17480000000000001         -1.4734282740391791E-004
  0.17590000000000000         -1.6216118820011616E-004
  0.17700000000000005         -1.7618059064261615E-004
  0.17810000000000004         -1.8921915034297854E-004
  0.17920000000000003         -2.0110231707803905E-004
  0.18030000000000002         -2.1166368969716132E-004
  0.18140000000000001         -2.2074968728702515E-004
  0.18250000000000000         -2.2822209575679153E-004
  0.18360000000000004         -2.3396064352709800E-004
  0.18470000000000003         -2.3786566453054547E-004
  0.18580000000000002         -2.3985856387298554E-004
  0.18690000000000001         -2.3988477187231183E-004
  0.18800000000000000         -2.3791420971974730E-004
  0.18910000000000005         -2.3394281743094325E-004
  0.19020000000000004         -2.2799411090090871E-004
  0.19130000000000003         -2.2011656255926937E-004
  0.19240000000000002         -2.1038419799879193E-004
  0.19350000000000001         -1.9889745453838259E-004
  0.19460000000000005         -1.8577578885015100E-004
  0.19570000000000004         -1.7116389062721282E-004
  0.19680000000000003         -1.5522398462053388E-004
  0.19790000000000002         -1.3813722762279212E-004
  0.19900000000000001         -1.2009453348582610E-004
  0.20010000000000000         -1.0129837755812332E-004
  0.20120000000000005         -8.1960228271782398E-005
  0.20230000000000004         -6.2294187955558300E-005
  0.20340000000000003         -4.2515228415140882E-005
  0.20450000000000002         -2.2836167772766203E-005
  0.20560000000000000         -3.4627116747287801E-006
  0.20670000000000005          1.5408006220241077E-005
  0.20780000000000004          3.3591211831662804E-005
  0.20890000000000003          5.0914168241433799E-005
