 -0.12000000000000000          0.0000000000000000     
 -0.11889999999999999          0.0000000000000000     
 -0.11780000000000000          0.0000000000000000     
 -0.11670000000000000          0.0000000000000000     
 -0.11559999999999999          0.0000000000000000     
 -0.11449999999999999          0.0000000000000000     
 -0.11340000000000000          2.0533333888023789E-018
 -0.11230000000000000          1.2251536454669638E-018
 -0.11119999999999999         -2.0092491702876410E-017
 -0.11009999999999999         -2.0840848620498034E-017
 -0.10900000000000000          7.5648082385363036E-017
 -0.10790000000000000          7.0868771772374551E-017
 -0.10679999999999999         -1.9141100987797929E-016
 -0.10569999999999999          2.9956355148030758E-016
 -0.10460000000000000          1.6836027082694051E-015
 -0.10349999999999999         -1.5620697857226477E-015
 -0.10239999999999999         -1.2462664262396801E-014
 -0.10130000000000000         -9.2464318807942286E-015
 -0.10020000000000000          3.8092155840198372E-014
  -9.9099999999999994E-002     8.5302133466611668E-014
  -9.7999999999999990E-002     2.5351700346485945E-015
  -9.6899999999999986E-002    -2.2073820906982206E-013
  -9.5799999999999996E-002    -3.0220305966867367E-013
  -9.4699999999999993E-002     2.5191169815289363E-014
  -9.3599999999999989E-002     5.1166091762783195E-013
  -9.2499999999999999E-002     6.7821480853255678E-013
  -9.1399999999999995E-002     6.5971344056017789E-013
  -9.0299999999999991E-002     6.6506446617237147E-013
  -8.9200000000000002E-002    -8.1036766923572867E-013
  -8.8099999999999984E-002    -5.5713272537061265E-012
  -8.6999999999999994E-002    -9.6427709567192821E-012
  -8.5899999999999990E-002    -2.2771185978487374E-012
  -8.4799999999999986E-002     2.0021808863623924E-011
  -8.3699999999999997E-002     3.7833257360286865E-011
  -8.2599999999999993E-002     2.1393305529859852E-011
  -8.1499999999999989E-002    -3.0387983795954199E-011
  -8.0399999999999999E-002    -7.6609739385613551E-011
  -7.9299999999999995E-002    -7.8853389096078530E-011
  -7.8199999999999992E-002    -4.3702094026931704E-011
  -7.7100000000000002E-002     1.4185433210023302E-011
  -7.5999999999999984E-002     1.3021587974559878E-010
  -7.4899999999999994E-002     3.1957378410218951E-010
  -7.3799999999999991E-002     4.1642722603540960E-010
  -7.2699999999999987E-002     1.2392875614608556E-010
  -7.1599999999999997E-002    -5.9405447228044750E-010
  -7.0499999999999993E-002    -1.2226473167231688E-009
  -6.9399999999999989E-002    -1.0753075097014175E-009
  -6.8300000000000000E-002    -8.2699916359452175E-011
  -6.7199999999999996E-002     1.0535946559642184E-009
  -6.6099999999999992E-002     1.7162944399018443E-009
  -6.5000000000000002E-002     2.0552695101372365E-009
  -6.3899999999999985E-002     2.2871222693510163E-009
  -6.2799999999999995E-002     1.5559249444407897E-009
  -6.1699999999999991E-002    -1.4017542682154271E-009
  -6.0599999999999994E-002    -5.8784350720486600E-009
  -5.9499999999999990E-002    -8.5155447138163254E-009
  -5.8399999999999994E-002    -6.4707692537524508E-009
  -5.7299999999999990E-002    -9.9477182047280621E-010
  -5.6199999999999986E-002     3.9836316467756205E-009
  -5.5099999999999996E-002     7.2912769155664137E-009
  -5.3999999999999992E-002     1.2107817859430270E-008
  -5.2899999999999989E-002     1.9839525577936001E-008
  -5.1799999999999985E-002     2.4082027039185050E-008
  -5.0699999999999995E-002     1.5000747310978113E-008
  -4.9599999999999991E-002    -8.9683673820672993E-009
  -4.8499999999999988E-002    -3.7253371942824742E-008
  -4.7399999999999998E-002    -5.7518139584544770E-008
  -4.6299999999999994E-002    -6.6478158089466888E-008
  -4.5199999999999990E-002    -6.5362542045477312E-008
  -4.4099999999999986E-002    -4.6994578895009909E-008
  -4.2999999999999997E-002     2.8168225529867641E-009
  -4.1899999999999993E-002     8.5035772201536020E-008
  -4.0799999999999989E-002     1.7364028792599129E-007
  -3.9699999999999985E-002     2.3028049156437191E-007
  -3.8599999999999995E-002     2.3204418653222092E-007
  -3.7499999999999992E-002     1.7786872774649964E-007
  -3.6399999999999988E-002     6.9101190547371516E-008
  -3.5299999999999984E-002    -1.0199775601904548E-007
  -3.4199999999999994E-002    -3.3289694556515315E-007
  -3.3099999999999991E-002    -5.8454054396861466E-007
  -3.1999999999999987E-002    -7.8551431670348393E-007
  -3.0899999999999997E-002    -8.6215487726803985E-007
  -2.9799999999999993E-002    -7.5639599117494072E-007
  -2.8699999999999989E-002    -4.2018751855721348E-007
  -2.7599999999999986E-002     1.8087914099851332E-007
  -2.6499999999999996E-002     1.0371306871093111E-006
  -2.5399999999999992E-002     2.0757738639076706E-006
  -2.4299999999999988E-002     3.1938573101797374E-006
  -2.3199999999999985E-002     4.3135319174325559E-006
  -2.2099999999999995E-002     5.3915860007691663E-006
  -2.0999999999999991E-002     6.3824118115007877E-006
  -1.9899999999999987E-002     7.2358184297627304E-006
  -1.8799999999999983E-002     7.9719184213900007E-006
  -1.7699999999999994E-002     8.7518965301569551E-006
  -1.6599999999999990E-002     9.8392538347980008E-006
  -1.5499999999999986E-002     1.1480581633804832E-005
  -1.4399999999999996E-002     1.3847306036041118E-005
  -1.3299999999999992E-002     1.7095828297897242E-005
  -1.2199999999999989E-002     2.1431491404655389E-005
  -1.1099999999999985E-002     2.7055930331698619E-005
  -9.9999999999999950E-003     3.4060500183841214E-005
  -8.8999999999999913E-003     4.2434465285623446E-005
  -7.7999999999999875E-003     5.2215131290722638E-005
  -6.6999999999999837E-003     6.3611390942241997E-005
  -5.5999999999999939E-003     7.6968266512267292E-005
  -4.4999999999999901E-003     9.2659218353219330E-005
  -3.3999999999999864E-003     1.1107505270047113E-004
  -2.2999999999999826E-003     1.3271477655507624E-004
  -1.1999999999999927E-003     1.5822544810362160E-004
  -9.9999999999988987E-005     1.8832838395610452E-004
   1.0000000000000148E-003     2.2375144180841744E-004
   2.1000000000000185E-003     2.6526342844590545E-004
   3.2000000000000084E-003     3.1372034572996199E-004
   4.3000000000000121E-003     3.7000112934038043E-004
   5.4000000000000159E-003     4.3492001714184880E-004
   6.5000000000000058E-003     5.0930364523082972E-004
   7.6000000000000234E-003     5.9418840100988746E-004
   8.7000000000000133E-003     6.9086102303117514E-004
   9.8000000000000032E-003     8.0064701614901423E-004
   1.0900000000000021E-002     9.2469487572088838E-004
   1.2000000000000011E-002     1.0640586260706186E-003
   1.3100000000000001E-002     1.2200149940326810E-003
   1.4200000000000018E-002     1.3941553188487887E-003
   1.5300000000000008E-002     1.5880714636296034E-003
   1.6400000000000026E-002     1.8030180362984538E-003
   1.7500000000000016E-002     2.0399040076881647E-003
   1.8600000000000005E-002     2.2994831670075655E-003
   1.9700000000000023E-002     2.5823991745710373E-003
   2.0800000000000013E-002     2.8890175744891167E-003
   2.1900000000000003E-002     3.2192654907703400E-003
   2.3000000000000020E-002     3.5726269707083702E-003
   2.4100000000000010E-002     3.9483141154050827E-003
   2.5200000000000000E-002     4.3452670797705650E-003
   2.6300000000000018E-002     4.7618225216865540E-003
   2.7400000000000008E-002     5.1955655217170715E-003
   2.8500000000000025E-002     5.6434725411236286E-003
   2.9600000000000015E-002     6.1018182896077633E-003
   3.0700000000000005E-002     6.5658413805067539E-003
   3.1800000000000023E-002     7.0296572521328926E-003
   3.2900000000000013E-002     7.4863126501441002E-003
   3.4000000000000002E-002     7.9280035570263863E-003
   3.5100000000000020E-002     8.3461953327059746E-003
   3.6200000000000010E-002     8.7314303964376450E-003
   3.7300000000000028E-002     9.0736364945769310E-003
   3.8400000000000017E-002     9.3618743121623993E-003
   3.9500000000000007E-002     9.5841707661747932E-003
   4.0600000000000025E-002     9.7283516079187393E-003
   4.1700000000000015E-002     9.7821671515703201E-003
   4.2800000000000005E-002     9.7328247502446175E-003
   4.3900000000000022E-002     9.5670511946082115E-003
   4.5000000000000012E-002     9.2715090140700340E-003
   4.6100000000000002E-002     8.8334493339061737E-003
   4.7200000000000020E-002     8.2415621727705002E-003
   4.8300000000000010E-002     7.4857221916317940E-003
   4.9400000000000027E-002     6.5567195415496826E-003
   5.0500000000000017E-002     5.4466272704303265E-003
   5.1600000000000007E-002     4.1504711844027042E-003
   5.2700000000000025E-002     2.6666484773159027E-003
   5.3800000000000014E-002     9.9502177909016609E-004
   5.4900000000000004E-002    -8.6180289508774877E-004
   5.6000000000000022E-002    -2.8976041357964277E-003
   5.7100000000000012E-002    -5.1022176630795002E-003
   5.8200000000000002E-002    -7.4609415605664253E-003
   5.9300000000000019E-002    -9.9555486813187599E-003
   6.0400000000000009E-002    -1.2565497308969498E-002
   6.1500000000000027E-002    -1.5266956761479378E-002
   6.2600000000000017E-002    -1.8030833452939987E-002
   6.3700000000000007E-002    -2.0823372527956963E-002
   6.4800000000000024E-002    -2.3608047515153885E-002
   6.5900000000000014E-002    -2.6346677914261818E-002
   6.7000000000000004E-002    -2.8999933972954750E-002
   6.8100000000000022E-002    -3.1526476144790649E-002
   6.9200000000000012E-002    -3.3883009105920792E-002
   7.0300000000000029E-002    -3.6024328321218491E-002
   7.1400000000000019E-002    -3.7904910743236542E-002
   7.2500000000000009E-002    -3.9483837783336639E-002
   7.3600000000000027E-002    -4.0724199265241623E-002
   7.4700000000000016E-002    -4.1590519249439240E-002
   7.5800000000000006E-002    -4.2049914598464966E-002
   7.6900000000000024E-002    -4.2073041200637817E-002
   7.8000000000000014E-002    -4.1635669767856598E-002
   7.9100000000000004E-002    -4.0720641613006592E-002
   8.0200000000000021E-002    -3.9319448173046112E-002
   8.1300000000000011E-002    -3.7431858479976654E-002
   8.2400000000000029E-002    -3.5065408796072006E-002
   8.3500000000000019E-002    -3.2232474535703659E-002
   8.4600000000000009E-002    -2.8949301689863205E-002
   8.5700000000000026E-002    -2.5241700932383537E-002
   8.6800000000000016E-002    -2.1148353815078735E-002
   8.7900000000000006E-002    -1.6718279570341110E-002
   8.9000000000000024E-002    -1.2004112824797630E-002
   9.0100000000000013E-002    -7.0578693412244320E-003
   9.1200000000000003E-002    -1.9336247351020575E-003
   9.2300000000000021E-002     3.3059616107493639E-003
   9.3400000000000011E-002     8.5898470133543015E-003
   9.4500000000000028E-002     1.3844488188624382E-002
   9.5600000000000018E-002     1.8999079242348671E-002
   9.6700000000000008E-002     2.3987364023923874E-002
   9.7800000000000026E-002     2.8746709227561951E-002
   9.8900000000000016E-002     3.3216286450624466E-002
  0.10000000000000001          3.7335686385631561E-002
  0.10110000000000002          4.1047848761081696E-002
  0.10220000000000001          4.4301837682723999E-002
  0.10330000000000003          4.7057390213012695E-002
  0.10440000000000002          4.9288742244243622E-002
  0.10550000000000001          5.0978373736143112E-002
  0.10660000000000003          5.2107069641351700E-002
  0.10770000000000002          5.2660379558801651E-002
  0.10880000000000001          5.2639100700616837E-002
  0.10990000000000003          5.2059087902307510E-002
  0.11100000000000002          5.0946131348609924E-002
  0.11210000000000001          4.9329198896884918E-002
  0.11320000000000002          4.7239255160093307E-002
  0.11430000000000001          4.4711600989103317E-002
  0.11540000000000003          4.1788995265960693E-002
  0.11650000000000002          3.8524329662322998E-002
  0.11760000000000001          3.4977097064256668E-002
  0.11870000000000003          3.1207604333758354E-002
  0.11980000000000002          2.7271024882793427E-002
  0.12090000000000001          2.3219130933284760E-002
  0.12200000000000003          1.9106140360236168E-002
  0.12310000000000001          1.4987171627581120E-002
  0.12420000000000003          1.0919028893113136E-002
  0.12530000000000002          6.9570741616189480E-003
  0.12640000000000001          3.1468977686017752E-003
  0.12750000000000003         -4.7871272545307875E-004
  0.12860000000000002         -3.8921020459383726E-003
  0.12970000000000001         -7.0620118640363216E-003
  0.13080000000000003         -9.9548529833555222E-003
  0.13190000000000002         -1.2545411475002766E-002
  0.13300000000000001         -1.4823704957962036E-002
  0.13410000000000000         -1.6790151596069336E-002
  0.13520000000000004         -1.8446680158376694E-002
  0.13630000000000003         -1.9792925566434860E-002
  0.13740000000000002         -2.0830959081649780E-002
  0.13850000000000001         -2.1569656208157539E-002
  0.13960000000000000         -2.2024454548954964E-002
  0.14070000000000005         -2.2214068099856377E-002
  0.14180000000000004         -2.2159205749630928E-002
  0.14290000000000003         -2.1883754059672356E-002
  0.14400000000000002         -2.1412611007690430E-002
  0.14510000000000001         -2.0767252892255783E-002
  0.14620000000000000         -1.9966617226600647E-002
  0.14730000000000004         -1.9033582881093025E-002
  0.14840000000000003         -1.7997598275542259E-002
  0.14950000000000002         -1.6888033598661423E-002
  0.15060000000000001         -1.5725642442703247E-002
  0.15170000000000000         -1.4523740857839584E-002
  0.15280000000000005         -1.3297716155648232E-002
  0.15390000000000004         -1.2069345451891422E-002
  0.15500000000000003         -1.0858785361051559E-002
  0.15610000000000002         -9.6769733354449272E-003
  0.15720000000000001         -8.5302591323852539E-003
  0.15830000000000000         -7.4299019761383533E-003
  0.15940000000000004         -6.3909315504133701E-003
  0.16050000000000003         -5.4206489585340023E-003
  0.16160000000000002         -4.5153312385082245E-003
  0.16270000000000001         -3.6711446009576321E-003
  0.16380000000000000         -2.8942339122295380E-003
  0.16490000000000005         -2.1954798139631748E-003
  0.16600000000000004         -1.5761887189000845E-003
  0.16710000000000003         -1.0258776601403952E-003
  0.16820000000000002         -5.3543789545074105E-004
  0.16930000000000001         -1.0608918091747910E-004
  0.17040000000000000          2.5859204470179975E-004
  0.17150000000000004          5.6396186118945479E-004
  0.17260000000000003          8.2075962563976645E-004
  0.17370000000000002          1.0329859796911478E-003
  0.17480000000000001          1.1969789629802108E-003
  0.17590000000000000          1.3151016319170594E-003
  0.17700000000000005          1.4016432687640190E-003
  0.17810000000000004          1.4690286479890347E-003
  0.17920000000000003          1.5142513439059258E-003
  0.18030000000000002          1.5266259433701634E-003
  0.18140000000000001          1.5081140445545316E-003
  0.18250000000000000          1.4762246282771230E-003
  0.18360000000000004          1.4443078543990850E-003
  0.18470000000000003          1.4079769607633352E-003
  0.18580000000000002          1.3564820401370525E-003
  0.18690000000000001          1.2917580315843225E-003
  0.18800000000000000          1.2267469428479671E-003
  0.18910000000000005          1.1672524269670248E-003
  0.19020000000000004          1.1062901467084885E-003
  0.19130000000000003          1.0389003437012434E-003
  0.19240000000000002          9.7354647004976869E-004
  0.19350000000000001          9.2086859513074160E-004
  0.19460000000000005          8.7686354527249932E-004
  0.19570000000000004          8.2833564374595881E-004
  0.19680000000000003          7.7373959356918931E-004
  0.19790000000000002          7.2734337300062180E-004
  0.19900000000000001          6.9918076042085886E-004
  0.20010000000000000          6.8012136034667492E-004
  0.20120000000000005          6.5526907565072179E-004
  0.20230000000000004          6.2612141482532024E-004
  0.20340000000000003          6.0777924954891205E-004
  0.20450000000000002          6.0560688143596053E-004
  0.20560000000000000          6.0681696049869061E-004
  0.20670000000000005          5.9964990941807628E-004
  0.20780000000000004          5.9076125035062432E-004
  0.20890000000000003          5.9440237237140536E-004
