 -0.12000000000000000          0.0000000000000000
 -0.11889999999999999          0.0000000000000000
 -0.11780000000000000          0.0000000000000000
 -0.11670000000000000          0.0000000000000000
 -0.11559999999999999          0.0000000000000000
 -0.11449999999999999          0.0000000000000000
 -0.11340000000000000          0.0000000000000000
 -0.11230000000000000          0.0000000000000000
 -0.11119999999999999          0.0000000000000000
 -0.11009999999999999          0.0000000000000000
 -0.10900000000000000          0.0000000000000000
 -0.10790000000000000          1.9595432523687732E-030
 -0.10679999999999999         -4.4594351148161897E-030
 -0.10569999999999999         -3.0723135631735565E-029
 -0.10460000000000000          6.4259031761937925E-029
 -0.10349999999999999          2.9027103342956726E-028
 -0.10239999999999999         -4.6664931070287874E-028
 -0.10130000000000000         -2.0752615448571667E-027
 -0.10020000000000000          2.0507700715333776E-027
  -9.9099999999999994E-002     1.1726668497375089E-026
  -9.7999999999999990E-002    -4.6992447975875562E-027
  -9.6899999999999986E-002    -5.2944301046295055E-026
  -9.5799999999999996E-002    -4.7410979515810130E-027
  -9.4699999999999993E-002     1.9614088403400344E-025
  -9.3599999999999989E-002     9.7820527184442211E-026
  -9.2499999999999999E-002    -6.3135930346730025E-025
  -9.1399999999999995E-002    -5.6938629214552441E-025
  -9.0299999999999991E-002     1.8606556487847232E-024
  -8.9200000000000002E-002     2.6774852229698934E-024
  -8.8099999999999984E-002    -4.7387994759111593E-024
  -8.6999999999999994E-002    -1.1244378377948705E-023
  -8.5899999999999990E-002     7.5621342334189710E-024
  -8.4799999999999986E-002     3.8791133764419567E-023
  -8.3699999999999997E-002     7.0802609160474316E-024
  -8.2599999999999993E-002    -9.9121231021685014E-023
  -8.1499999999999989E-002    -9.3908842056768041E-023
  -8.0399999999999999E-002     1.6725517264917277E-022
  -7.9299999999999995E-002     3.3376179834082494E-022
  -7.8199999999999992E-002    -1.3471329715716181E-022
  -7.7100000000000002E-002    -7.7046073091761895E-022
  -7.5999999999999984E-002    -1.3724030262651059E-022
  -7.4899999999999994E-002     1.5122244943952741E-021
  -7.3799999999999991E-002     9.2447813600136103E-022
  -7.2699999999999987E-002    -3.0605309059937311E-021
  -7.1599999999999997E-002    -3.8644294943086238E-021
  -7.0499999999999993E-002     5.0087187611924478E-021
  -6.9399999999999989E-002     1.3157973312990948E-020
  -6.8300000000000000E-002    -6.3033984905315228E-022
  -6.7199999999999996E-002    -2.9443002765336317E-020
  -6.6099999999999992E-002    -2.4788581858709740E-020
  -6.5000000000000002E-002     3.5229415493480310E-020
  -6.3899999999999985E-002     7.4170455018971412E-020
  -6.2799999999999995E-002    -1.9732011829992093E-021
  -6.1699999999999991E-002    -1.1983145814205503E-019
  -6.0599999999999994E-002    -6.7405028799431161E-020
  -5.9499999999999990E-002     1.5570261069451163E-019
  -5.8399999999999994E-002     1.7528076087211711E-019
  -5.7299999999999990E-002    -2.2764424047765598E-019
  -5.6199999999999986E-002    -4.9464283936844108E-019
  -5.5099999999999996E-002     1.4487082274479752E-019
  -5.3999999999999992E-002     1.1741653019310060E-018
  -5.2899999999999989E-002     7.8315035723350114E-019
  -5.1799999999999985E-002    -1.4747789699522976E-018
  -5.0699999999999995E-002    -2.7673848516747449E-018
  -4.9599999999999991E-002    -1.2247683343978789E-019
  -4.8499999999999988E-002     4.1183287834708367E-018
  -4.7399999999999998E-002     3.5007061073019931E-018
  -4.6299999999999994E-002    -3.0219449288994170E-018
  -4.5199999999999990E-002    -6.4421959343068993E-018
  -4.4099999999999986E-002     6.6814464493568634E-019
  -4.2999999999999997E-002     9.3955673836305172E-018
  -4.1899999999999993E-002     2.9375400395799655E-018
  -4.0799999999999989E-002    -1.5047900958719719E-017
  -3.9699999999999985E-002    -1.5278123521166702E-017
  -3.8599999999999995E-002     1.5953579357042804E-017
  -3.7499999999999992E-002     4.0582314649908991E-017
  -3.6399999999999988E-002     8.1816558464711850E-018
  -3.5299999999999984E-002    -5.9321178219901575E-017
  -3.4199999999999994E-002    -6.6169605034575103E-017
  -3.3099999999999991E-002     3.0272408286941959E-017
  -3.1999999999999987E-002     1.2269166361860134E-016
  -3.0899999999999997E-002     6.5905125614239849E-017
  -2.9799999999999993E-002    -1.0320202445487602E-016
  -2.8699999999999989E-002    -1.6215049494309590E-016
  -2.7599999999999986E-002    -6.7820005925703408E-019
  -2.6499999999999996E-002     1.6911438955383694E-016
  -2.5399999999999992E-002     7.0323156822889673E-017
  -2.4299999999999988E-002    -1.8748468129521059E-016
  -2.3199999999999985E-002    -1.6165492772939294E-016
  -2.2099999999999995E-002     2.7199019382745675E-016
  -2.0999999999999991E-002     5.5429550194701716E-016
  -1.9899999999999987E-002     9.0512491523161341E-017
  -1.8799999999999983E-002    -7.8511875633739204E-016
  -1.7699999999999994E-002    -9.7995200431540532E-016
  -1.6599999999999990E-002    -4.5190011755572325E-017
  -1.5499999999999986E-002     1.0112075200690890E-015
  -1.4399999999999996E-002     8.9494854228929204E-016
  -1.3299999999999992E-002    -1.5433243377949792E-016
  -1.2199999999999989E-002    -5.3303619258079590E-016
  -1.1099999999999985E-002     4.2862998505994478E-016
  -9.9999999999999950E-003     1.1796884083877185E-015
  -8.8999999999999913E-003    -8.5348197818200876E-017
  -7.7999999999999875E-003    -2.5304891188238305E-015
  -6.6999999999999837E-003    -3.1041955454274824E-015
  -5.5999999999999939E-003    -3.7219538262772255E-016
  -4.4999999999999901E-003     3.1981283229044321E-015
  -3.3999999999999864E-003     3.9522654727674588E-015
  -2.2999999999999826E-003     1.4796205515489797E-015
  -1.1999999999999927E-003    -1.1483349544495086E-015
  -9.9999999999988987E-005    -1.6265311105910681E-015
   1.0000000000000148E-003    -1.1435719823079792E-015
   2.1000000000000185E-003    -1.7977217631870825E-015
   3.2000000000000084E-003    -2.7306065818432897E-015
   4.3000000000000121E-003    -1.0015374743058787E-015
   5.4000000000000159E-003     3.7818166092750023E-015
   6.5000000000000058E-003     7.7356232584899903E-015
   7.6000000000000234E-003     6.4890939979267773E-015
   8.7000000000000133E-003    -5.3700004207615001E-016
   9.8000000000000032E-003    -1.0278034154288188E-014
   1.0900000000000021E-002    -1.8447051137603261E-014
   1.2000000000000011E-002    -2.0100417098996293E-014
   1.3100000000000001E-002    -9.9714531201283360E-015
   1.4200000000000018E-002     1.2966392215030091E-014
   1.5300000000000008E-002     3.9871450189859700E-014
   1.6400000000000026E-002     5.4856093219301030E-014
   1.7500000000000016E-002     4.6528526067820056E-014
   1.8600000000000005E-002     1.6285334964783772E-014
   1.9700000000000023E-002    -2.6416611343597733E-014
   2.0800000000000013E-002    -7.2567284483977118E-014
   2.1900000000000003E-002    -1.1169927829901560E-013
   2.3000000000000020E-002    -1.2286905434061302E-013
   2.4100000000000010E-002    -8.0375017351332761E-014
   2.5200000000000000E-002     1.9464137807480124E-014
   2.6300000000000018E-002     1.3887732652241580E-013
   2.7400000000000008E-002     2.1462744233778641E-013
   2.8500000000000025E-002     2.0285857683325498E-013
   2.9600000000000015E-002     1.0806776345106614E-013
   3.0700000000000005E-002    -2.6779698792701867E-014
   3.1800000000000023E-002    -1.4951147958575106E-013
   3.2900000000000013E-002    -2.1331143774082351E-013
   3.4000000000000002E-002    -1.7861297022577632E-013
   3.5100000000000020E-002    -3.1796820628956016E-014
   3.6200000000000010E-002     1.7973457737321258E-013
   3.7300000000000028E-002     3.4200417563072516E-013
   3.8400000000000017E-002     3.1587921297746013E-013
   3.9500000000000007E-002     1.8807763506323294E-014
   4.0600000000000025E-002    -5.1455150903989555E-013
   4.1700000000000015E-002    -1.1341960357014180E-012
   4.2800000000000005E-002    -1.6206499033402655E-012
   4.3900000000000022E-002    -1.7709217339095806E-012
   4.5000000000000012E-002    -1.4436839310821847E-012
   4.6100000000000002E-002    -7.0358763303371430E-013
   4.7200000000000020E-002     2.1376002638968938E-013
   4.8300000000000010E-002     8.6630355666805769E-013
   4.9400000000000027E-002     8.5173469839550098E-013
   5.0500000000000017E-002    -5.0067304360572329E-014
   5.1600000000000007E-002    -1.8055834605235077E-012
   5.2700000000000025E-002    -3.9834342421829483E-012
   5.3800000000000014E-002    -5.9222540066405926E-012
   5.4900000000000004E-002    -6.9522877038652453E-012
   5.6000000000000022E-002    -6.7570272294092959E-012
   5.7100000000000012E-002    -5.5471308969823330E-012
   5.8200000000000002E-002    -3.9490168947386994E-012
   5.9300000000000019E-002    -3.1707473018699472E-012
   6.0400000000000009E-002    -4.0016072053172813E-012
   6.1500000000000027E-002    -7.3493459581963627E-012
   6.2600000000000017E-002    -1.3143676251547998E-011
   6.3700000000000007E-002    -2.0167484002242553E-011
   6.4800000000000024E-002    -2.6682265771849067E-011
   6.5900000000000014E-002    -3.1755167939628848E-011
   6.7000000000000004E-002    -3.3385773312577527E-011
   6.8100000000000022E-002    -3.1622749557813634E-011
   6.9200000000000012E-002    -2.9346403779273444E-011
   7.0300000000000029E-002    -2.9491888098309715E-011
   7.1400000000000019E-002    -3.3261126491934689E-011
   7.2500000000000009E-002    -4.2515619497196511E-011
   7.3600000000000027E-002    -5.8867397068063099E-011
   7.4700000000000016E-002    -7.8802270264688445E-011
   7.5800000000000006E-002    -1.0110180748146291E-010
   7.6900000000000024E-002    -1.2074169442044536E-010
   7.8000000000000014E-002    -1.2999293308446624E-010
   7.9100000000000004E-002    -1.3461709524875687E-010
   8.0200000000000021E-002    -1.3517229002779629E-010
   8.1300000000000011E-002    -1.3179372870819606E-010
   8.2400000000000029E-002    -1.3694102796169005E-010
   8.3500000000000019E-002    -1.5645769402272691E-010
   8.4600000000000009E-002    -1.8847827465418021E-010
   8.5700000000000026E-002    -2.2585044945344634E-010
   8.6800000000000016E-002    -2.6875685010807615E-010
   8.7900000000000006E-002    -3.1160937719043602E-010
   8.9000000000000024E-002    -3.4987457375734721E-010
   9.0100000000000013E-002    -3.4383360048018119E-010
   9.1200000000000003E-002    -3.4537467330508775E-010
   9.2300000000000021E-002    -3.5124780861650606E-010
   9.3400000000000011E-002    -3.3177283143004388E-010
   9.4500000000000028E-002    -3.5251390695378859E-010
   9.5600000000000018E-002    -3.8537328883592181E-010
   9.6700000000000008E-002    -3.9510325566816107E-010
   9.7800000000000026E-002    -4.6648146456718109E-010
   9.8900000000000016E-002    -5.9536403584914410E-010
  0.10000000000000001         -6.2886479357260328E-010
  0.10110000000000002         -5.9768412441485452E-010
  0.10220000000000001         -4.6931059038968215E-010
  0.10330000000000003         -3.4042582641724550E-010
  0.10440000000000002         -2.8329422141482041E-010
  0.10550000000000001         -4.8831727550435744E-010
  0.10660000000000003         -4.7980069917130663E-010
  0.10770000000000002         -3.2620475765021695E-010
  0.10880000000000001         -2.5577684414912483E-010
  0.10990000000000003         -1.9754994862175579E-010
  0.11100000000000002         -1.0276621220661752E-010
  0.11210000000000001         -3.7597991386917329E-010
  0.11320000000000002         -2.0136334266673828E-010
  0.11430000000000001         -2.2152897571903196E-010
  0.11540000000000003          2.8509963834189023E-010
  0.11650000000000002          4.3584830189402624E-010
  0.11760000000000001          8.6345330885251315E-010
  0.11870000000000003          1.2338031707415098E-009
  0.11980000000000002          1.1197012206309864E-009
  0.12090000000000001          6.4279404021760911E-010
  0.12200000000000003          9.3944485524133370E-010
  0.12310000000000001          1.0604105371569972E-009
  0.12420000000000003          1.3113151675625545E-009
  0.12530000000000002          2.1937127669957590E-009
  0.12640000000000001          1.4311862805982400E-009
  0.12750000000000003          1.8110358768197443E-009
  0.12860000000000002          2.0449049120685459E-009
  0.12970000000000001          2.1492014834478823E-009
  0.13080000000000003          1.8213552888113327E-009
  0.13190000000000002          2.0244137477476443E-009
  0.13300000000000001          2.3974837670692750E-009
  0.13410000000000000          2.5461333041931766E-009
  0.13520000000000004          2.8111437622158064E-009
  0.13630000000000003          2.0129560240889077E-009
  0.13740000000000002          1.7409933494860752E-009
  0.13850000000000001          1.3108168994691027E-009
  0.13960000000000000          1.5745492687457840E-009
  0.14070000000000005          1.9255614880364647E-009
  0.14180000000000004          2.2011799050147829E-009
  0.14290000000000003          1.5755846627385495E-009
  0.14400000000000002          6.0954641334376447E-010
  0.14510000000000001          2.7525778878434437E-010
  0.14620000000000000          4.1195089006684782E-010
  0.14730000000000004          1.1107515601738172E-010
  0.14840000000000003         -2.0644461140584269E-010
  0.14950000000000002         -1.2329361975815800E-009
  0.15060000000000001         -2.1319148668652588E-009
  0.15170000000000000         -2.2950448208547414E-009
  0.15280000000000005         -1.6435125482772150E-009
  0.15390000000000004         -1.1105245611986447E-009
  0.15500000000000003         -1.5065466651975612E-009
  0.15610000000000002         -2.5092155020445261E-009
  0.15720000000000001         -3.4753990796332346E-009
  0.15830000000000000         -3.7254954676768648E-009
  0.15940000000000004         -3.0337550249726064E-009
  0.16050000000000003         -2.4846091850605490E-009
  0.16160000000000002         -2.8904352245007203E-009
  0.16270000000000001         -3.9354959291415526E-009
  0.16380000000000000         -4.4672239241094758E-009
  0.16490000000000005         -4.2380055020885266E-009
  0.16600000000000004         -3.0893636537854263E-009
  0.16710000000000003         -2.4412645238669484E-009
  0.16820000000000002         -2.9207318785751113E-009
  0.16930000000000001         -3.8452707684655252E-009
  0.17040000000000000         -4.6017167854017771E-009
  0.17150000000000004         -2.8761975023883224E-009
  0.17260000000000003         -1.8690183081759848E-011
  0.17370000000000002          1.0697065455644861E-009
  0.17480000000000001          8.0706658023288469E-010
  0.17590000000000000         -1.9737933509844652E-009
  0.17700000000000005         -2.9980684601582652E-009
  0.17810000000000004         -1.5847326784168558E-009
  0.17920000000000003          7.8942458126007864E-010
  0.18030000000000002          2.1026527186052135E-009
  0.18140000000000001          1.8805930146470473E-009
  0.18250000000000000         -1.4556292282641436E-010
  0.18360000000000004          1.5458911928334373E-010
  0.18470000000000003          1.2611851563093524E-009
  0.18580000000000002          3.1669464828354421E-009
  0.18690000000000001          4.3398493687618611E-009
  0.18800000000000000          3.3881510930200420E-009
  0.18910000000000005          1.5411946163723655E-009
  0.19020000000000004          7.7863310243841966E-010
  0.19130000000000003          1.5714048950954407E-009
  0.19240000000000002          2.2730370918822018E-009
  0.19350000000000001          2.6482334103405947E-009
  0.19460000000000005          2.1372363878668921E-009
  0.19570000000000004          1.6309772421507773E-009
  0.19680000000000003          1.3257470676819594E-009
  0.19790000000000002          1.8270562840427829E-009
  0.19900000000000001          2.5227202549160666E-009
  0.20010000000000000          2.8314270927864982E-009
  0.20120000000000005          2.1558612672833988E-009
  0.20230000000000004          9.6520491599250136E-010
  0.20340000000000003          1.6190937479620970E-010
  0.20450000000000002          4.5772105550234699E-010
  0.20560000000000000          1.3396824760647519E-009
  0.20670000000000005          1.8690937686471898E-009
  0.20780000000000004          1.0616563184129291E-009
  0.20890000000000003         -5.1990317606609437E-010
