 -0.12000000000000000          0.0000000000000000     
 -0.11889999999999999          0.0000000000000000     
 -0.11780000000000000          1.0369226401962806E-005
 -0.11670000000000000         -9.4180286396294832E-006
 -0.11559999999999999         -4.4106240238761529E-005
 -0.11449999999999999          2.5041716071427800E-005
 -0.11340000000000000          1.3560523802880198E-004
 -0.11230000000000000         -5.9878002502955496E-006
 -0.11119999999999999         -3.1868490623310208E-004
 -0.11009999999999999         -1.6310013597831130E-004
 -0.10900000000000000          5.4384581744670868E-004
 -0.10790000000000000          6.4357620431110263E-004
 -0.10679999999999999         -5.6265050079673529E-004
 -0.10569999999999999         -1.4497147640213370E-003
 -0.10460000000000000         -1.1580582395254169E-005
 -0.10349999999999999          2.2621063981205225E-003
 -0.10239999999999999          1.4494912466034293E-003
 -0.10130000000000000         -2.4414877407252789E-003
 -0.10020000000000000         -3.6634735297411680E-003
  -9.9099999999999994E-002     1.1403686366975307E-003
  -9.7999999999999990E-002     5.9094573371112347E-003
  -9.6899999999999986E-002     2.3853997699916363E-003
  -9.5799999999999996E-002    -6.3208569772541523E-003
  -9.4699999999999993E-002    -7.4455719441175461E-003
  -9.3599999999999989E-002     2.8940483462065458E-003
  -9.2499999999999999E-002     1.1079371906816959E-002
  -9.1399999999999995E-002     3.9646951481699944E-003
  -9.0299999999999991E-002    -1.0187047533690929E-002
  -8.9200000000000002E-002    -1.1011828668415546E-002
  -8.8099999999999984E-002     4.1861045174300671E-003
  -8.6999999999999994E-002     1.4264184050261974E-002
  -8.5899999999999990E-002     4.2274123989045620E-003
  -8.4799999999999986E-002    -1.1689485050737858E-002
  -8.3699999999999997E-002    -1.0283012874424458E-002
  -8.2599999999999993E-002     5.6533892638981342E-003
  -8.1499999999999989E-002     1.1434739455580711E-002
  -8.0399999999999999E-002    -1.0989530710503459E-003
  -7.9299999999999995E-002    -1.0591566562652588E-002
  -7.8199999999999992E-002    -7.1707688039168715E-004
  -7.7100000000000002E-002     1.1873112060129642E-002
  -7.5999999999999984E-002     3.5238617565482855E-003
  -7.4899999999999994E-002    -1.5237579122185707E-002
  -7.3799999999999991E-002    -1.2107432819902897E-002
  -7.2699999999999987E-002     1.4273064211010933E-002
  -7.1599999999999997E-002     2.4918217211961746E-002
  -7.0499999999999993E-002    -2.1823178976774216E-003
  -6.9399999999999989E-002    -3.2284110784530640E-002
  -6.8300000000000000E-002    -1.9564498215913773E-002
  -6.7199999999999996E-002     2.2849859669804573E-002
  -6.6099999999999992E-002     3.6045461893081665E-002
  -6.5000000000000002E-002    -3.0553247779607773E-004
  -6.3899999999999985E-002    -3.5869523882865906E-002
  -6.2799999999999995E-002    -2.1453369408845901E-002
  -6.1699999999999991E-002     1.9723044708371162E-002
  -6.0599999999999994E-002     2.8043420985341072E-002
  -5.9499999999999990E-002    -3.5340876784175634E-003
  -5.8399999999999994E-002    -2.2932553663849831E-002
  -5.7299999999999990E-002    -2.7417971286922693E-003
  -5.6199999999999986E-002     1.8080346286296844E-002
  -5.5099999999999996E-002     6.8569672293961048E-004
  -5.3999999999999992E-002    -2.6331147179007530E-002
  -5.2899999999999989E-002    -1.1135281994938850E-002
  -5.1799999999999985E-002     3.1872138381004333E-002
  -5.0699999999999995E-002     3.4353271126747131E-002
  -4.9599999999999991E-002    -1.9480384886264801E-002
  -4.8499999999999988E-002    -5.6318856775760651E-002
  -4.7399999999999998E-002    -1.7168967053294182E-002
  -4.6299999999999994E-002     4.9364563077688217E-002
  -4.5199999999999990E-002     5.0059851258993149E-002
  -4.4099999999999986E-002    -1.7563605681061745E-002
  -4.2999999999999997E-002    -5.9257496148347855E-002
  -4.1899999999999993E-002    -2.0264506340026855E-002
  -4.0799999999999989E-002     3.8134794682264328E-002
  -3.9699999999999985E-002     3.3645454794168472E-002
  -3.8599999999999995E-002    -1.6522563993930817E-002
  -3.7499999999999992E-002    -2.9752442613244057E-002
  -3.6399999999999988E-002     8.9728180319070816E-003
  -3.5299999999999984E-002     2.8712663799524307E-002
  -3.4199999999999994E-002    -8.9019332081079483E-003
  -3.3099999999999991E-002    -4.1408963501453400E-002
  -3.1999999999999987E-002    -5.7476037181913853E-003
  -3.0899999999999997E-002     5.3142387419939041E-002
  -2.9799999999999993E-002     4.2013674974441528E-002
  -2.8699999999999989E-002    -3.4139275550842285E-002
  -2.7599999999999986E-002    -6.7663356661796570E-002
  -2.6499999999999996E-002    -4.6738991513848305E-003
  -2.5399999999999992E-002     6.8277686834335327E-002
  -2.4299999999999988E-002     4.9255907535552979E-002
  -2.3199999999999985E-002    -3.0436133965849876E-002
  -2.2099999999999995E-002    -5.5197898298501968E-002
  -2.0999999999999991E-002     4.2966310866177082E-003
  -1.9899999999999987E-002     5.1517609506845474E-002
  -1.8799999999999983E-002     1.8946606665849686E-002
  -1.7699999999999994E-002    -3.1750824302434921E-002
  -1.6599999999999990E-002    -1.6165716573596001E-002
  -1.5499999999999986E-002     3.8876947015523911E-002
  -1.4399999999999996E-002     3.9825122803449631E-002
  -1.3299999999999992E-002    -2.3427067324519157E-002
  -1.2199999999999989E-002    -5.3235843777656555E-002
  -1.1099999999999985E-002     5.4499376565217972E-003
  -9.9999999999999950E-003     6.9448351860046387E-002
  -8.8999999999999913E-003     4.1076600551605225E-002
  -7.7999999999999875E-003    -4.2326778173446655E-002
  -6.6999999999999837E-003    -6.2473975121974945E-002
  -5.5999999999999939E-003     9.3355979770421982E-003
  -4.4999999999999901E-003     6.2991373240947723E-002
  -3.3999999999999864E-003     2.4626705795526505E-002
  -2.2999999999999826E-003    -4.3244820088148117E-002
  -1.1999999999999927E-003    -4.0556453168392181E-002
  -9.9999999999988987E-005     2.1419998258352280E-002
   1.0000000000000148E-003     3.9455778896808624E-002
   2.1000000000000185E-003    -1.5405707992613316E-002
   3.2000000000000084E-003    -5.5109165608882904E-002
   4.3000000000000121E-003    -1.2301740236580372E-002
   5.4000000000000159E-003     4.3234266340732574E-002
   6.5000000000000058E-003     2.2853842005133629E-002
   7.6000000000000234E-003    -4.7852605581283569E-002
   8.7000000000000133E-003    -6.2549583613872528E-002
   9.8000000000000032E-003     4.0444922633469105E-003
   1.0900000000000021E-002     5.0389025360345840E-002
   1.2000000000000011E-002     9.5602655783295631E-003
   1.3100000000000001E-002    -5.6824501603841782E-002
   1.4200000000000018E-002    -5.1453351974487305E-002
   1.5300000000000008E-002     1.4282627031207085E-002
   1.6400000000000026E-002     3.8958478718996048E-002
   1.7500000000000016E-002    -9.0928012505173683E-003
   1.8600000000000005E-002    -4.9156777560710907E-002
   1.9700000000000023E-002    -1.9599445164203644E-002
   2.0800000000000013E-002     3.0727667734026909E-002
   2.1900000000000003E-002     2.2377923130989075E-002
   2.3000000000000020E-002    -2.9377145692706108E-002
   2.4100000000000010E-002    -3.9359062910079956E-002
   2.5200000000000000E-002     1.2080924585461617E-002
   2.6300000000000018E-002     4.7660138458013535E-002
   2.7400000000000008E-002     1.0268230922520161E-002
   2.8500000000000025E-002    -3.6469623446464539E-002
   2.9600000000000015E-002    -2.2895444184541702E-002
   3.0700000000000005E-002     3.1391669064760208E-002
   3.1800000000000023E-002     4.7908212989568710E-002
   3.2900000000000013E-002     5.3758602589368820E-003
   3.4000000000000002E-002    -3.0978562310338020E-002
   3.5100000000000020E-002    -4.2538102716207504E-003
   3.6200000000000010E-002     3.6592662334442139E-002
   3.7300000000000028E-002     2.9631529003381729E-002
   3.8400000000000017E-002    -6.4990976825356483E-003
   3.9500000000000007E-002    -1.1264521628618240E-002
   4.0600000000000025E-002     1.7382040619850159E-002
   4.1700000000000015E-002     3.1153824180364609E-002
   4.2800000000000005E-002     8.5424771532416344E-003
   4.3900000000000022E-002    -1.9000485539436340E-002
   4.5000000000000012E-002    -6.4373342320322990E-003
   4.6100000000000002E-002     2.6918193325400352E-002
   4.7200000000000020E-002     3.0915062874555588E-002
   4.8300000000000010E-002    -2.3686555214226246E-003
   4.9400000000000027E-002    -2.3947171866893768E-002
   5.0500000000000017E-002    -8.9969336986541748E-003
   5.1600000000000007E-002     1.4211490750312805E-002
   5.2700000000000025E-002     1.3876098208129406E-002
   5.3800000000000014E-002    -1.9744066521525383E-003
   5.4900000000000004E-002    -8.2505820319056511E-003
   5.6000000000000022E-002    -2.9822038486599922E-003
   5.7100000000000012E-002    -5.3394120186567307E-003
   5.8200000000000002E-002    -1.2882651761174202E-002
   5.9300000000000019E-002    -7.7405041083693504E-003
   6.0400000000000009E-002     9.2773279175162315E-003
   6.1500000000000027E-002     1.0804516263306141E-002
   6.2600000000000017E-002    -9.8591893911361694E-003
   6.3700000000000007E-002    -2.3629473522305489E-002
   6.4800000000000024E-002    -1.0663980618119240E-002
   6.5900000000000014E-002     9.0344464406371117E-003
   6.7000000000000004E-002     5.0907912664115429E-003
   6.8100000000000022E-002    -1.2552263215184212E-002
   6.9200000000000012E-002    -1.2218956835567951E-002
   7.0300000000000029E-002     6.4216256141662598E-003
   7.1400000000000019E-002     8.4749339148402214E-003
   7.2500000000000009E-002    -1.2830335646867752E-002
   7.3600000000000027E-002    -2.2611124441027641E-002
   7.4700000000000016E-002     2.0527909509837627E-003
   7.5800000000000006E-002     2.6903476566076279E-002
   7.6900000000000024E-002     1.1753334663808346E-002
   7.8000000000000014E-002    -2.4592844769358635E-002
   7.9100000000000004E-002    -2.6771923527121544E-002
   8.0200000000000021E-002     1.1019209399819374E-002
   8.1300000000000011E-002     3.0151830986142159E-002
   8.2400000000000029E-002     2.2125027317088097E-004
   8.3500000000000019E-002    -2.9325589537620544E-002
   8.4600000000000009E-002    -5.4928911849856377E-003
   8.5700000000000026E-002     3.5974875092506409E-002
   8.6800000000000016E-002     2.4100290611386299E-002
   8.7900000000000006E-002    -3.2328482717275620E-002
   8.9000000000000024E-002    -4.6683024615049362E-002
   9.0100000000000013E-002     1.2620633468031883E-002
   9.1200000000000003E-002     6.2683410942554474E-002
   9.2300000000000021E-002     2.6034452021121979E-002
   9.3400000000000011E-002    -4.8445802181959152E-002
   9.4500000000000028E-002    -5.2755005657672882E-002
   9.5600000000000018E-002     1.8334833905100822E-002
   9.6700000000000008E-002     5.9146802872419357E-002
   9.7800000000000026E-002     1.1885260231792927E-002
   9.8900000000000016E-002    -4.5653261244297028E-002
  0.10000000000000001         -2.4135652929544449E-002
  0.10110000000000002          3.6565847694873810E-002
  0.10220000000000001          3.3895548433065414E-002
  0.10330000000000003         -3.1163033097982407E-002
  0.10440000000000002         -5.1195211708545685E-002
  0.10550000000000001          1.6127640381455421E-002
  0.10660000000000003          7.0508703589439392E-002
  0.10770000000000002          1.9031457602977753E-002
  0.10880000000000001         -6.9250717759132385E-002
  0.10990000000000003         -6.1147823929786682E-002
  0.11100000000000002          3.8847103714942932E-002
  0.11210000000000001          8.3799004554748535E-002
  0.11320000000000002          7.1781924925744534E-003
  0.11430000000000001         -7.7042236924171448E-002
  0.11540000000000003         -4.3577522039413452E-002
  0.11650000000000002          5.2395805716514587E-002
  0.11760000000000001          6.2452189624309540E-002
  0.11870000000000003         -2.6747463271021843E-002
  0.11980000000000002         -7.3329538106918335E-002
  0.12090000000000001         -2.2093649022281170E-003
  0.12200000000000003          7.6368823647499084E-002
  0.12310000000000001          3.6850921809673309E-002
  0.12420000000000003         -6.3110359013080597E-002
  0.12530000000000002         -6.8961106240749359E-002
  0.12640000000000001          3.1085720285773277E-002
  0.12750000000000003          8.4571078419685364E-002
  0.12860000000000002          9.0814800933003426E-003
  0.12970000000000001         -7.8991547226905823E-002
  0.13080000000000003         -4.4259171932935715E-002
  0.13190000000000002          5.8222495019435883E-002
  0.13300000000000001          6.7995019257068634E-002
  0.13410000000000000         -3.1021572649478912E-002
  0.13520000000000004         -8.3618611097335815E-002
  0.13630000000000003         -4.2280289344489574E-003
  0.13740000000000002          8.6970515549182892E-002
  0.13850000000000001          4.7102484852075577E-002
  0.13960000000000000         -6.7081786692142487E-002
  0.14070000000000005         -8.2809567451477051E-002
  0.14180000000000004          2.5088047608733177E-002
  0.14290000000000003          9.4245672225952148E-002
  0.14400000000000002          2.2318910807371140E-002
  0.14510000000000001         -7.9227805137634277E-002
  0.14620000000000000         -5.7447921484708786E-002
  0.14730000000000004          4.9031998962163925E-002
  0.14840000000000003          7.3980338871479034E-002
  0.14950000000000002         -1.7592916265130043E-002
  0.15060000000000001         -7.8808642923831940E-002
  0.15170000000000000         -1.2236074544489384E-002
  0.15280000000000005          7.7588111162185669E-002
  0.15390000000000004          4.7104407101869583E-002
  0.15500000000000003         -6.0864914208650589E-002
  0.15610000000000002         -8.0622375011444092E-002
  0.15720000000000001          2.1181881427764893E-002
  0.15830000000000000          9.2513844370841980E-002
  0.15940000000000004          2.7231009677052498E-002
  0.16050000000000003         -7.4811533093452454E-002
  0.16160000000000002         -6.1682164669036865E-002
  0.16270000000000001          4.0841452777385712E-002
  0.16380000000000000          7.4414312839508057E-002
  0.16490000000000005         -7.2380690835416317E-003
  0.16600000000000004         -7.2699770331382751E-002
  0.16710000000000003         -2.0627113059163094E-002
  0.16820000000000002          6.4230367541313171E-002
  0.16930000000000001          4.6526312828063965E-002
  0.17040000000000000         -4.7559972852468491E-002
  0.17150000000000004         -7.1069531142711639E-002
  0.17260000000000003          1.5662906691431999E-002
  0.17370000000000002          8.2101024687290192E-002
  0.17480000000000001          2.7104724198579788E-002
  0.17590000000000000         -6.7223794758319855E-002
  0.17700000000000005         -6.1273444443941116E-002
  0.17810000000000004          3.2179038971662521E-002
  0.17920000000000003          7.2178654372692108E-002
  0.18030000000000002          4.3335068039596081E-003
  0.18140000000000001         -6.2991932034492493E-002
  0.18250000000000000         -3.0061159282922745E-002
  0.18360000000000004          4.5465249568223953E-002
  0.18470000000000003          4.5093864202499390E-002
  0.18580000000000002         -2.6449972763657570E-002
  0.18690000000000001         -5.4054785519838333E-002
  0.18800000000000000          5.4610436782240868E-003
  0.18910000000000005          5.7919729501008987E-002
  0.19020000000000004          2.0396979525685310E-002
  0.19130000000000003         -5.0126492977142334E-002
  0.19240000000000002         -4.5705787837505341E-002
  0.19350000000000001          2.6834236457943916E-002
  0.19460000000000005          5.8153629302978516E-002
  0.19570000000000004          3.3199877943843603E-003
  0.19680000000000003         -5.3103093057870865E-002
  0.19790000000000002         -2.8340978547930717E-002
  0.19900000000000001          3.5845674574375153E-002
  0.20010000000000000          4.2241573333740234E-002
  0.20120000000000005         -1.4144607819616795E-002
  0.20230000000000004         -4.4809561222791672E-002
  0.20340000000000003         -5.8535831049084663E-003
  0.20450000000000002          3.9251066744327545E-002
  0.20560000000000000          2.1834617480635643E-002
  0.20670000000000005         -2.8209557756781578E-002
  0.20780000000000004         -3.3252608031034470E-002
  0.20890000000000003          1.2165260501205921E-002
