 -0.12000000000000000          0.0000000000000000
 -0.11889999999999999          0.0000000000000000
 -0.11780000000000000          0.0000000000000000
 -0.11670000000000000          0.0000000000000000
 -0.11559999999999999          0.0000000000000000
 -0.11449999999999999          0.0000000000000000
 -0.11340000000000000         -1.0370384665327475E-019
 -0.11230000000000000         -4.6409876227256865E-020
 -0.11119999999999999          8.2720842650112477E-019
 -0.11009999999999999          8.0862028226977456E-019
 -0.10900000000000000         -2.4883402283185032E-018
 -0.10790000000000000         -2.5798934056964849E-018
 -0.10679999999999999          4.4458095879805804E-018
 -0.10569999999999999         -8.2915699519060062E-018
 -0.10460000000000000         -4.1711803306570549E-017
 -0.10349999999999999          3.4793552522030194E-017
 -0.10239999999999999          2.8669153588801880E-016
 -0.10130000000000000          2.5638893219999620E-016
 -0.10020000000000000         -6.8406153180152721E-016
  -9.9099999999999994E-002    -1.7783005682559623E-015
  -9.7999999999999990E-002    -6.4952386925635152E-016
  -9.6899999999999986E-002     3.2767259923878163E-015
  -9.5799999999999996E-002     5.7871662648666111E-015
  -9.4699999999999993E-002     2.2170111188909601E-015
  -9.3599999999999989E-002    -5.0691186477872484E-015
  -9.2499999999999999E-002    -9.9055200755140613E-015
  -9.1399999999999995E-002    -1.3656571601111840E-014
  -9.0299999999999991E-002    -1.9275620460673312E-014
  -8.9200000000000002E-002    -7.1703193987231011E-015
  -8.8099999999999984E-002     5.4147827985729508E-014
  -8.6999999999999994E-002     1.3642907604419913E-013
  -8.5899999999999990E-002     1.1752887075014429E-013
  -8.4799999999999986E-002    -9.3426372053170142E-014
  -8.3699999999999997E-002    -3.7053083583142576E-013
  -8.2599999999999993E-002    -4.1808898465674205E-013
  -8.1499999999999989E-002    -1.0171621574531220E-013
  -8.0399999999999999E-002     3.5628268456149026E-013
  -7.9299999999999995E-002     6.6289031555588629E-013
  -7.8199999999999992E-002     8.2279587873893001E-013
  -7.7100000000000002E-002     9.0005504134807457E-013
  -7.5999999999999984E-002     4.4932571660778742E-013
  -7.4899999999999994E-002    -1.1745863613341068E-012
  -7.3799999999999991E-002    -3.4557834024950829E-012
  -7.2699999999999987E-002    -4.2359778879008658E-012
  -7.1599999999999997E-002    -1.7172206582052874E-012
  -7.0499999999999993E-002     2.9525650587641783E-012
  -6.9399999999999989E-002     6.3249388365660408E-012
  -6.8300000000000000E-002     6.5535099048885659E-012
  -6.7199999999999996E-002     5.3395517174426033E-012
  -6.6099999999999992E-002     4.4603648031993348E-012
  -6.5000000000000002E-002     1.5831603606200617E-012
  -6.3899999999999985E-002    -7.2067816124510298E-012
  -6.2799999999999995E-002    -1.9912894250184721E-011
  -6.1699999999999991E-002    -2.7178292602569876E-011
  -6.0599999999999994E-002    -2.1546889272805458E-011
  -5.9499999999999990E-002    -6.1066100093265518E-012
  -5.8399999999999994E-002     1.0584709324301667E-011
  -5.7299999999999990E-002     2.7202143315641081E-011
  -5.6199999999999986E-002     5.0021015107759581E-011
  -5.5099999999999996E-002     7.6653031144680028E-011
  -5.3999999999999992E-002     8.5816131978333487E-011
  -5.2899999999999989E-002     5.3101415625755877E-011
  -5.1799999999999985E-002    -2.2090562018517446E-011
  -5.0699999999999995E-002    -1.1234462665710154E-010
  -4.9599999999999991E-002    -1.8649702615558539E-010
  -4.8499999999999988E-002    -2.2949642186631536E-010
  -4.7399999999999998E-002    -2.3298971085772280E-010
  -4.6299999999999994E-002    -1.7724323397860786E-010
  -4.5199999999999990E-002    -3.9997276324310604E-011
  -4.4099999999999986E-002     1.7328681545247804E-010
  -4.2999999999999997E-002     4.1959866137197821E-010
  -4.1899999999999993E-002     6.4424421353237449E-010
  -4.0799999999999989E-002     8.0668854929299982E-010
  -3.9699999999999985E-002     8.7561802253333099E-010
  -3.8599999999999995E-002     8.1776579952119732E-010
  -3.7499999999999992E-002     6.2022081914747673E-010
  -3.6399999999999988E-002     3.2891583900962473E-010
  -3.5299999999999984E-002     4.5457870107012965E-011
  -3.4199999999999994E-002    -1.2486589540117166E-010
  -3.3099999999999991E-002    -1.0975974296112412E-010
  -3.1999999999999987E-002     1.4636117318111985E-010
  -3.0899999999999997E-002     6.9390487800191636E-010
  -2.9799999999999993E-002     1.5184250523603282E-009
  -2.8699999999999989E-002     2.4584141389283332E-009
  -2.7599999999999986E-002     3.2189622078959701E-009
  -2.6499999999999996E-002     3.4918223867919096E-009
  -2.5399999999999992E-002     3.0425144625922940E-009
  -2.4299999999999988E-002     1.6652109691150940E-009
  -2.3199999999999985E-002    -8.9586416063269780E-010
  -2.2099999999999995E-002    -4.8898272098085727E-009
  -2.0999999999999991E-002    -1.0389062943261251E-008
  -1.9899999999999987E-002    -1.7221786663412786E-008
  -1.8799999999999983E-002    -2.5130816538876388E-008
  -1.7699999999999994E-002    -3.4010241733994917E-008
  -1.6599999999999990E-002    -4.3996287502068299E-008
  -1.5499999999999986E-002    -5.5407792132200484E-008
  -1.4399999999999996E-002    -6.8721291768270021E-008
  -1.3299999999999992E-002    -8.4655937371280743E-008
  -1.2199999999999989E-002    -1.0424356844396243E-007
  -1.1099999999999985E-002    -1.2877180211035011E-007
  -9.9999999999999950E-003    -1.5969094135925843E-007
  -8.8999999999999913E-003    -1.9860898703427665E-007
  -7.7999999999999875E-003    -2.4732585757192282E-007
  -6.6999999999999837E-003    -3.0777545134696993E-007
  -5.5999999999999939E-003    -3.8194298213056754E-007
  -4.4999999999999901E-003    -4.7200052222251543E-007
  -3.3999999999999864E-003    -5.8066461861017160E-007
  -2.2999999999999826E-003    -7.1144188495964045E-007
  -1.1999999999999927E-003    -8.6852043068574858E-007
  -9.9999999999988987E-005    -1.0565531738393474E-006
   1.0000000000000148E-003    -1.2807646498913527E-006
   2.1000000000000185E-003    -1.5473510757146869E-006
   3.2000000000000084E-003    -1.8637230141393957E-006
   4.3000000000000121E-003    -2.2382873794413172E-006
   5.4000000000000159E-003    -2.6801310468727024E-006
   6.5000000000000058E-003    -3.1991294235922396E-006
   7.6000000000000234E-003    -3.8063853935454972E-006
   8.7000000000000133E-003    -4.5144979594624601E-006
   9.8000000000000032E-003    -5.3374424169305712E-006
   1.0900000000000021E-002    -6.2903200159780681E-006
   1.2000000000000011E-002    -7.3894252636819147E-006
   1.3100000000000001E-002    -8.6525260485359468E-006
   1.4200000000000018E-002    -1.0098977327288594E-005
   1.5300000000000008E-002    -1.1749666555260774E-005
   1.6400000000000026E-002    -1.3626882719108835E-005
   1.7500000000000016E-002    -1.5754305422888137E-005
   1.8600000000000005E-002    -1.8156693840865046E-005
   1.9700000000000023E-002    -2.0859375581494533E-005
   2.0800000000000013E-002    -2.3887869247118942E-005
   2.1900000000000003E-002    -2.7267667974228971E-005
   2.3000000000000020E-002    -3.1024454074213281E-005
   2.4100000000000010E-002    -3.5183649742975831E-005
   2.5200000000000000E-002    -3.9768870919942856E-005
   2.6300000000000018E-002    -4.4801352487411350E-005
   2.7400000000000008E-002    -5.0299939175602049E-005
   2.8500000000000025E-002    -5.6281292927451432E-005
   2.9600000000000015E-002    -6.2758757849223912E-005
   3.0700000000000005E-002    -6.9740905018988997E-005
   3.1800000000000023E-002    -7.7229793532751501E-005
   3.2900000000000013E-002    -8.5220424807630479E-005
   3.4000000000000002E-002    -9.3700007710140198E-005
   3.5100000000000020E-002    -1.0264720913255587E-004
   3.6200000000000010E-002    -1.1203016038052738E-004
   3.7300000000000028E-002    -1.2180599151179194E-004
   3.8400000000000017E-002    -1.3192123151384294E-004
   3.9500000000000007E-002    -1.4230977103579789E-004
   4.0600000000000025E-002    -1.5289247676264495E-004
   4.1700000000000015E-002    -1.6357593995053321E-004
   4.2800000000000005E-002    -1.7425406258553267E-004
   4.3900000000000022E-002    -1.8480619473848492E-004
   4.5000000000000012E-002    -1.9509764388203621E-004
   4.6100000000000002E-002    -2.0498066442087293E-004
   4.7200000000000020E-002    -2.1429439948406070E-004
   4.8300000000000010E-002    -2.2286642342805862E-004
   4.9400000000000027E-002    -2.3051159223541617E-004
   5.0500000000000017E-002    -2.3703639453742653E-004
   5.1600000000000007E-002    -2.4224180378951132E-004
   5.2700000000000025E-002    -2.4592503905296326E-004
   5.3800000000000014E-002    -2.4788378505036235E-004
   5.4900000000000004E-002    -2.4791545001789927E-004
   5.6000000000000022E-002    -2.4582067271694541E-004
   5.7100000000000012E-002    -2.4140811001416296E-004
   5.8200000000000002E-002    -2.3450353182852268E-004
   5.9300000000000019E-002    -2.2494950098916888E-004
   6.0400000000000009E-002    -2.1260998619254678E-004
   6.1500000000000027E-002    -1.9737331604119390E-004
   6.2600000000000017E-002    -1.7915393982548267E-004
   6.3700000000000007E-002    -1.5790146426297724E-004
   6.4800000000000024E-002    -1.3360142474994063E-004
   6.5900000000000014E-002    -1.0628107702359557E-004
   6.7000000000000004E-002    -7.6011870987713337E-005
   6.8100000000000022E-002    -4.2911826312774792E-005
   6.9200000000000012E-002    -7.1411127464671154E-006
   7.0300000000000029E-002     3.1097104510990903E-005
   7.1400000000000019E-002     7.1550653956364840E-005
   7.2500000000000009E-002     1.1391352018108591E-004
   7.3600000000000027E-002     1.5783507842570543E-004
   7.4700000000000016E-002     2.0292439148761332E-004
   7.5800000000000006E-002     2.4876126553863287E-004
   7.6900000000000024E-002     2.9489034204743803E-004
   7.8000000000000014E-002     3.4082363708876073E-004
   7.9100000000000004E-002     3.8604880683124065E-004
   8.0200000000000021E-002     4.3003831524401903E-004
   8.1300000000000011E-002     4.7226063907146454E-004
   8.2400000000000029E-002     5.1218678709119558E-004
   8.3500000000000019E-002     5.4929713951423764E-004
   8.4600000000000009E-002     5.8308820007368922E-004
   8.5700000000000026E-002     6.1308016302064061E-004
   8.6800000000000016E-002     6.3882640097290277E-004
   8.7900000000000006E-002     6.5992318559437990E-004
   8.9000000000000024E-002     6.7602004855871201E-004
   9.0100000000000013E-002     6.8682979326695204E-004
   9.1200000000000003E-002     6.9212558446452022E-004
   9.2300000000000021E-002     6.9174013333395123E-004
   9.3400000000000011E-002     6.8557256599888206E-004
   9.4500000000000028E-002     6.7360204411670566E-004
   9.5600000000000018E-002     6.5589474979788065E-004
   9.6700000000000008E-002     6.3259480521082878E-004
   9.7800000000000026E-002     6.0391402803361416E-004
   9.8900000000000016E-002     5.7012488832697272E-004
  0.10000000000000001          5.3156359354034066E-004
  0.10110000000000002          4.8864301061257720E-004
  0.10220000000000001          4.4184256694279611E-004
  0.10330000000000003          3.9168674265965819E-004
  0.10440000000000002          3.3873342908918858E-004
  0.10550000000000001          2.8356266557238996E-004
  0.10660000000000003          2.2678343520965427E-004
  0.10770000000000002          1.6902331844903529E-004
  0.10880000000000001          1.1091498890891671E-004
  0.10990000000000003          5.3083389502717182E-005
  0.11100000000000002         -3.8575535654672422E-006
  0.11210000000000001         -5.9326474001863971E-005
  0.11320000000000002         -1.1278246529400349E-004
  0.11430000000000001         -1.6372588288504630E-004
  0.11540000000000003         -2.1169712999835610E-004
  0.11650000000000002         -2.5627319701015949E-004
  0.11760000000000001         -2.9709111549891531E-004
  0.11870000000000003         -3.3386403811164200E-004
  0.11980000000000002         -3.6638436722569168E-004
  0.12090000000000001         -3.9449569885618985E-004
  0.12200000000000003         -4.1808743844740093E-004
  0.12310000000000001         -4.3711054604500532E-004
  0.12420000000000003         -4.5158935245126486E-004
  0.12530000000000002         -4.6161416685208678E-004
  0.12640000000000001         -4.6732011833228171E-004
  0.12750000000000003         -4.6888308133929968E-004
  0.12860000000000002         -4.6652409946545959E-004
  0.12970000000000001         -4.6050816308706999E-004
  0.13080000000000003         -4.5112671796232462E-004
  0.13190000000000002         -4.3868811917491257E-004
  0.13300000000000001         -4.2352249147370458E-004
  0.13410000000000000         -4.0598199120722711E-004
  0.13520000000000004         -3.8642864092253149E-004
  0.13630000000000003         -3.6521346191875637E-004
  0.13740000000000002         -3.4267143928445876E-004
  0.13850000000000001         -3.1913383281789720E-004
  0.13960000000000000         -2.9493324109353125E-004
  0.14070000000000005         -2.7038468397222459E-004
  0.14180000000000004         -2.4576726718805730E-004
  0.14290000000000003         -2.2132669982966036E-004
  0.14400000000000002         -1.9729649648070335E-004
  0.14510000000000001         -1.7390142602380365E-004
  0.14620000000000000         -1.5133632405195385E-004
  0.14730000000000004         -1.2974825222045183E-004
  0.14840000000000003         -1.0924728121608496E-004
  0.14950000000000002         -8.9932538685388863E-005
  0.15060000000000001         -7.1895570727065206E-005
  0.15170000000000000         -5.5200413044076413E-005
  0.15280000000000005         -3.9868657040642574E-005
  0.15390000000000004         -2.5894765713019297E-005
  0.15500000000000003         -1.3272325304569677E-005
  0.15610000000000002         -1.9886219888576306E-006
  0.15720000000000001          7.9900100899976678E-006
  0.15830000000000000          1.6721784049877897E-005
  0.15940000000000004          2.4270048015750945E-005
  0.16050000000000003          3.0693070584675297E-005
  0.16160000000000002          3.6055593227501959E-005
  0.16270000000000001          4.0443053876515478E-005
  0.16380000000000000          4.3949130485998467E-005
  0.16490000000000005          4.6651457523694262E-005
  0.16600000000000004          4.8612371756462380E-005
  0.16710000000000003          4.9902337195817381E-005
  0.16820000000000002          5.0612201448529959E-005
  0.16930000000000001          5.0830523832701147E-005
  0.17040000000000000          5.0619095418369398E-005
  0.17150000000000004          5.0022314098896459E-005
  0.17260000000000003          4.9096190195996314E-005
  0.17370000000000002          4.7914003516780213E-005
  0.17480000000000001          4.6539469622075558E-005
  0.17590000000000000          4.5006629079580307E-005
  0.17700000000000005          4.3336469389032573E-005
  0.17810000000000004          4.1566159779904410E-005
  0.17920000000000003          3.9746992115397006E-005
  0.18030000000000002          3.7915368011454120E-005
  0.18140000000000001          3.6080378777114674E-005
  0.18250000000000000          3.4245778806507587E-005
  0.18360000000000004          3.2433224987471476E-005
  0.18470000000000003          3.0671988497488201E-005
  0.18580000000000002          2.8973247026442550E-005
  0.18690000000000001          2.7330625016475096E-005
  0.18800000000000000          2.5745595849002711E-005
  0.18910000000000005          2.4236001991084777E-005
  0.19020000000000004          2.2814137992099859E-005
  0.19130000000000003          2.1468535123858601E-005
  0.19240000000000002          2.0180972569505684E-005
  0.19350000000000001          1.8955566702061333E-005
  0.19460000000000005          1.7815011233324185E-005
  0.19570000000000004          1.6766243788879365E-005
  0.19680000000000003          1.5786752555868588E-005
  0.19790000000000002          1.4852224012429360E-005
  0.19900000000000001          1.3966468031867407E-005
  0.20010000000000000          1.3150197446520906E-005
  0.20120000000000005          1.2405683264660183E-005
  0.20230000000000004          1.1710715625667945E-005
  0.20340000000000003          1.1048592568840832E-005
  0.20450000000000002          1.0428057976241689E-005
  0.20560000000000000          9.8634782261797227E-006
  0.20670000000000005          9.3463604571297765E-006
  0.20780000000000004          8.8540891738375649E-006
  0.20890000000000003          8.3815129983122461E-006
