 -0.12000000000000000          0.0000000000000000     
 -0.11889999999999999          0.0000000000000000     
 -0.11780000000000000          0.0000000000000000     
 -0.11670000000000000          0.0000000000000000     
 -0.11559999999999999          0.0000000000000000     
 -0.11449999999999999          0.0000000000000000     
 -0.11340000000000000          3.7333332904071134E-015
 -0.11230000000000000         -5.2391147721693974E-015
 -0.11119999999999999         -3.3520241297284661E-014
 -0.11009999999999999          3.2159591287737876E-014
 -0.10900000000000000          1.4327482342896269E-013
 -0.10790000000000000         -1.5196439213330942E-013
 -0.10679999999999999         -3.2490809630421336E-013
 -0.10569999999999999          1.2175888552609648E-012
 -0.10460000000000000          1.2988453628598462E-012
 -0.10349999999999999         -7.2000664978755236E-012
 -0.10239999999999999         -1.2619196486374218E-011
 -0.10130000000000000          1.8466886006485161E-011
 -0.10020000000000000          6.7603277142946894E-011
  -9.9099999999999994E-002     1.8233083445839959E-011
  -9.7999999999999990E-002    -1.6871849750632606E-010
  -9.6899999999999986E-002    -2.3723323305802069E-010
  -9.5799999999999996E-002     8.9115485824020624E-011
  -9.4699999999999993E-002     5.0614645807911529E-010
  -9.3599999999999989E-002     3.7834449462259556E-010
  -9.2499999999999999E-002    -7.5518181985589905E-011
  -9.1399999999999995E-002     4.1878028822495139E-011
  -9.0299999999999991E-002    -3.2150070800041064E-011
  -8.9200000000000002E-002    -2.6504538563898450E-009
  -8.8099999999999984E-002    -6.0058349404812361E-009
  -8.6999999999999994E-002    -1.3967916823176552E-009
  -8.5899999999999990E-002     1.4788890112527042E-008
  -8.4799999999999986E-002     2.5754626875595932E-008
  -8.3699999999999997E-002     6.6298135870113128E-009
  -8.2599999999999993E-002    -3.6520667379136285E-008
  -8.1499999999999989E-002    -5.7627111971214617E-008
  -8.0399999999999999E-002    -2.6412381615159575E-008
  -7.9299999999999995E-002     2.2332969251692703E-008
  -7.8199999999999992E-002     4.1578402942832327E-008
  -7.7100000000000002E-002     6.3671670602616359E-008
  -7.5999999999999984E-002     1.4729283748238231E-007
  -7.4899999999999994E-002     1.9699423603469768E-007
  -7.3799999999999991E-002    -2.0897164887401232E-008
  -7.2699999999999987E-002    -5.1091791419821675E-007
  -7.1599999999999997E-002    -7.9450609291598084E-007
  -7.0499999999999993E-002    -3.4839044360523985E-007
  -6.9399999999999989E-002     6.1628054481843719E-007
  -6.8300000000000000E-002     1.1884604873557691E-006
  -6.7199999999999996E-002     8.7752982835809235E-007
  -6.6099999999999992E-002     3.2737906963120622E-007
  -6.5000000000000002E-002     2.8894066872453550E-007
  -6.3899999999999985E-002     1.3261073661396949E-007
  -6.2799999999999995E-002    -1.4620609363191761E-006
  -6.1699999999999991E-002    -3.9155393096734770E-006
  -6.0599999999999994E-002    -4.2238830246787984E-006
  -5.9499999999999990E-002    -5.7086322158284020E-007
  -5.8399999999999994E-002     4.2886395021923818E-006
  -5.7299999999999990E-002     5.6677190514164977E-006
  -5.6199999999999986E-002     3.3839205570984632E-006
  -5.5099999999999996E-002     2.6299960609321715E-006
  -5.3999999999999992E-002     6.1273831306607462E-006
  -5.2899999999999989E-002     7.9302690210170113E-006
  -5.1799999999999985E-002    -2.1669487182407465E-007
  -5.0699999999999995E-002    -1.6294794477289543E-005
  -4.9599999999999991E-002    -2.7285403120913543E-005
  -4.8499999999999988E-002    -2.4141812900779769E-005
  -4.7399999999999998E-002    -1.2703095308097545E-005
  -4.6299999999999994E-002    -3.5877660593541805E-006
  -4.5199999999999990E-002     5.6160542953875847E-006
  -4.4099999999999986E-002     2.7779984520748258E-005
  -4.2999999999999997E-002     6.2786137277726084E-005
  -4.1899999999999993E-002     8.6703061242587864E-005
  -4.0799999999999989E-002     7.4396120908204466E-005
  -3.9699999999999985E-002     2.8586127882590517E-005
  -3.8599999999999995E-002    -2.5378887585247867E-005
  -3.7499999999999992E-002    -7.3121402238029987E-005
  -3.6399999999999988E-002    -1.2463839084375650E-004
  -3.5299999999999984E-002    -1.8645235104486346E-004
  -3.4199999999999994E-002    -2.3336606682278216E-004
  -3.3099999999999991E-002    -2.2416707361117005E-004
  -3.1999999999999987E-002    -1.4123659639153630E-004
  -3.0899999999999997E-002     1.8921272157967906E-006
  -2.9799999999999993E-002     1.9039378094021231E-004
  -2.8699999999999989E-002     4.2089092312380672E-004
  -2.7599999999999986E-002     6.7195692099630833E-004
  -2.6499999999999996E-002     8.8486575987190008E-004
  -2.5399999999999992E-002     1.0035806335508823E-003
  -2.4299999999999988E-002     1.0293106315657496E-003
  -2.3199999999999985E-002     1.0064638918265700E-003
  -2.2099999999999995E-002     9.5360371051356196E-004
  -2.0999999999999991E-002     8.4787857485935092E-004
  -1.9899999999999987E-002     7.0380186662077904E-004
  -1.8799999999999983E-002     6.3462113030254841E-004
  -1.7699999999999994E-002     7.8353029675781727E-004
  -1.6599999999999990E-002     1.1933799833059311E-003
  -1.5499999999999986E-002     1.7907576402649283E-003
  -1.4399999999999996E-002     2.5124042294919491E-003
  -1.3299999999999992E-002     3.3940889406949282E-003
  -1.2199999999999989E-002     4.4889887794852257E-003
  -1.1099999999999985E-002     5.7373349554836750E-003
  -9.9999999999999950E-003     6.9983778521418571E-003
  -8.8999999999999913E-003     8.2270829007029533E-003
  -7.7999999999999875E-003     9.5557700842618942E-003
  -6.6999999999999837E-003     1.1164640076458454E-002
  -5.5999999999999939E-003     1.3120475225150585E-002
  -4.4999999999999901E-003     1.5407205559313297E-002
  -3.3999999999999864E-003     1.8075836822390556E-002
  -2.2999999999999826E-003     2.1271560341119766E-002
  -1.1999999999999927E-003     2.5113552808761597E-002
  -9.9999999999988987E-005     2.9617352411150932E-002
   1.0000000000000148E-003     3.4784372895956039E-002
   2.1000000000000185E-003     4.0690835565328598E-002
   3.2000000000000084E-003     4.7416538000106812E-002
   4.3000000000000121E-003     5.4915290325880051E-002
   5.4000000000000159E-003     6.3115485012531281E-002
   6.5000000000000058E-003     7.2121635079383850E-002
   7.6000000000000234E-003     8.2215502858161926E-002
   8.7000000000000133E-003     9.3563228845596313E-002
   9.8000000000000032E-003    0.10604969412088394     
   1.0900000000000021E-002    0.11947519332170486     
   1.2000000000000011E-002    0.13390339910984039     
   1.3100000000000001E-002    0.14966514706611633     
   1.4200000000000018E-002    0.16696949303150177     
   1.5300000000000008E-002    0.18561840057373047     
   1.6400000000000026E-002    0.20519061386585236     
   1.7500000000000016E-002    0.22547484934329987     
   1.8600000000000005E-002    0.24645212292671204     
   1.9700000000000023E-002    0.26795729994773865     
   2.0800000000000013E-002    0.28957799077033997     
   2.1900000000000003E-002    0.31088769435882568     
   2.3000000000000020E-002    0.33155074715614319     
   2.4100000000000010E-002    0.35151907801628113     
   2.5200000000000000E-002    0.37030044198036194     
   2.6300000000000018E-002    0.38708767294883728     
   2.7400000000000008E-002    0.40144920349121094     
   2.8500000000000025E-002    0.41282299160957336     
   2.9600000000000015E-002    0.42053034901618958     
   3.0700000000000005E-002    0.42317932844161987     
   3.1800000000000023E-002    0.42011353373527527     
   3.2900000000000013E-002    0.41015213727951050     
   3.4000000000000002E-002    0.39296776056289673     
   3.5100000000000020E-002    0.36761704087257385     
   3.6200000000000010E-002    0.33307957649230957     
   3.7300000000000028E-002    0.28891718387603760     
   3.8400000000000017E-002    0.23460318148136139     
   3.9500000000000007E-002    0.16944217681884766     
   4.0600000000000025E-002     9.3053400516510010E-002
   4.1700000000000015E-002     5.0815930590033531E-003
   4.2800000000000005E-002    -9.4759792089462280E-002
   4.3900000000000022E-002   -0.20705907046794891     
   4.5000000000000012E-002   -0.33077242970466614     
   4.6100000000000002E-002   -0.46509000658988953     
   4.7200000000000020E-002   -0.61003196239471436     
   4.8300000000000010E-002   -0.76452010869979858     
   4.9400000000000027E-002   -0.92638486623764038     
   5.0500000000000017E-002    -1.0924474000930786     
   5.1600000000000007E-002    -1.2619047164916992     
   5.2700000000000025E-002    -1.4349280595779419     
   5.3800000000000014E-002    -1.6063852310180664     
   5.4900000000000004E-002    -1.7714045047760010     
   5.6000000000000022E-002    -1.9285639524459839     
   5.7100000000000012E-002    -2.0768101215362549     
   5.8200000000000002E-002    -2.2115693092346191     
   5.9300000000000019E-002    -2.3274824619293213     
   6.0400000000000009E-002    -2.4200592041015625     
   6.1500000000000027E-002    -2.4894514083862305     
   6.2600000000000017E-002    -2.5327901840209961     
   6.3700000000000007E-002    -2.5456860065460205     
   6.4800000000000024E-002    -2.5206220149993896     
   6.5900000000000014E-002    -2.4582252502441406     
   6.7000000000000004E-002    -2.3623387813568115     
   6.8100000000000022E-002    -2.2304029464721680     
   6.9200000000000012E-002    -2.0568940639495850     
   7.0300000000000029E-002    -1.8386470079421997     
   7.1400000000000019E-002    -1.5801191329956055     
   7.2500000000000009E-002    -1.2881366014480591     
   7.3600000000000027E-002   -0.96615618467330933     
   7.4700000000000016E-002   -0.61105227470397949     
   7.5800000000000006E-002   -0.22638073563575745     
   7.6900000000000024E-002    0.18433849513530731     
   7.8000000000000014E-002    0.61318141222000122     
   7.9100000000000004E-002     1.0529874563217163     
   8.0200000000000021E-002     1.4949793815612793     
   8.1300000000000011E-002     1.9344030618667603     
   8.2400000000000029E-002     2.3655793666839600     
   8.3500000000000019E-002     2.7847042083740234     
   8.4600000000000009E-002     3.1861324310302734     
   8.5700000000000026E-002     3.5574922561645508     
   8.6800000000000016E-002     3.8869009017944336     
   8.7900000000000006E-002     4.1668710708618164     
   8.9000000000000024E-002     4.4006137847900391     
   9.0100000000000013E-002     4.5902047157287598     
   9.1200000000000003E-002     4.7289113998413086     
   9.2300000000000021E-002     4.8032484054565430     
   9.3400000000000011E-002     4.8057060241699219     
   9.4500000000000028E-002     4.7425084114074707     
   9.5600000000000018E-002     4.6229715347290039     
   9.6700000000000008E-002     4.4464683532714844     
   9.7800000000000026E-002     4.2117333412170410     
   9.8900000000000016E-002     3.9192268848419189     
  0.10000000000000001          3.5723524093627930     
  0.10110000000000002          3.1757481098175049     
  0.10220000000000001          2.7371299266815186     
  0.10330000000000003          2.2702460289001465     
  0.10440000000000002          1.7859911918640137     
  0.10550000000000001          1.2871508598327637     
  0.10660000000000003         0.76805609464645386     
  0.10770000000000002         0.23994545638561249     
  0.10880000000000001        -0.28041887283325195     
  0.10990000000000003        -0.77727615833282471     
  0.11100000000000002         -1.2459233999252319     
  0.11210000000000001         -1.6908934116363525     
  0.11320000000000002         -2.1071081161499023     
  0.11430000000000001         -2.4907281398773193     
  0.11540000000000003         -2.8265733718872070     
  0.11650000000000002         -3.1088752746582031     
  0.11760000000000001         -3.3385231494903564     
  0.11870000000000003         -3.5150661468505859     
  0.11980000000000002         -3.6404364109039307     
  0.12090000000000001         -3.7230753898620605     
  0.12200000000000003         -3.7565531730651855     
  0.12310000000000001         -3.7377319335937500     
  0.12420000000000003         -3.6630475521087646     
  0.12530000000000002         -3.5393018722534180     
  0.12640000000000001         -3.3832538127899170     
  0.12750000000000003         -3.2055265903472900     
  0.12860000000000002         -3.0023748874664307     
  0.12970000000000001         -2.7650318145751953     
  0.13080000000000003         -2.4952330589294434     
  0.13190000000000002         -2.2107670307159424     
  0.13300000000000001         -1.9282171726226807     
  0.13410000000000000         -1.6500089168548584     
  0.13520000000000004         -1.3686553239822388     
  0.13630000000000003         -1.0821841955184937     
  0.13740000000000002        -0.80107730627059937     
  0.13850000000000001        -0.53616905212402344     
  0.13960000000000000        -0.28916910290718079     
  0.14070000000000005         -5.7639252394437790E-002
  0.14180000000000004         0.15553286671638489     
  0.14290000000000003         0.34507727622985840     
  0.14400000000000002         0.51157683134078979     
  0.14510000000000001         0.66178023815155029     
  0.14620000000000000         0.79527419805526733     
  0.14730000000000004         0.90284603834152222     
  0.14840000000000003         0.97860759496688843     
  0.14950000000000002          1.0326359272003174     
  0.15060000000000001          1.0784026384353638     
  0.15170000000000000          1.1137334108352661     
  0.15280000000000005          1.1250511407852173     
  0.15390000000000004          1.1088685989379883     
  0.15500000000000003          1.0813549757003784     
  0.15610000000000002          1.0570819377899170     
  0.15720000000000001          1.0300039052963257     
  0.15830000000000000         0.98324024677276611     
  0.15940000000000004         0.91514575481414795     
  0.16050000000000003         0.84509044885635376     
  0.16160000000000002         0.78947681188583374     
  0.16270000000000001         0.73907476663589478     
  0.16380000000000000         0.67649716138839722     
  0.16490000000000005         0.60096687078475952     
  0.16600000000000004         0.52953183650970459     
  0.16710000000000003         0.47083106637001038     
  0.16820000000000002         0.41695061326026917     
  0.16930000000000001         0.35825985670089722     
  0.17040000000000000         0.30207139253616333     
  0.17150000000000004         0.25779312849044800     
  0.17260000000000003         0.21873122453689575     
  0.17370000000000002         0.17139737308025360     
  0.17480000000000001         0.11926028877496719     
  0.17590000000000000          8.3024308085441589E-002
  0.17700000000000005          7.0621937513351440E-002
  0.17810000000000004          6.1111707240343094E-002
  0.17920000000000003          3.2031323760747910E-002
  0.18030000000000002         -8.9146075770258904E-003
  0.18140000000000001         -3.3154442906379700E-002
  0.18250000000000000         -3.1069936230778694E-002
  0.18360000000000004         -2.4403003975749016E-002
  0.18470000000000003         -3.5464663058519363E-002
  0.18580000000000002         -5.6676425039768219E-002
  0.18690000000000001         -6.4776465296745300E-002
  0.18800000000000000         -5.6585486978292465E-002
  0.18910000000000005         -5.0835177302360535E-002
  0.19020000000000004         -5.7754047214984894E-002
  0.19130000000000003         -6.3554108142852783E-002
  0.19240000000000002         -5.4529480636119843E-002
  0.19350000000000001         -4.0810104459524155E-002
  0.19460000000000005         -4.0744472295045853E-002
  0.19570000000000004         -5.0889436155557632E-002
  0.19680000000000003         -4.9586698412895203E-002
  0.19790000000000002         -3.1214853748679161E-002
  0.19900000000000001         -1.6283337026834488E-002
  0.20010000000000000         -2.0988604053854942E-002
  0.20120000000000005         -3.0834920704364777E-002
  0.20230000000000004         -2.2874364629387856E-002
  0.20340000000000003         -1.4029131270945072E-003
  0.20450000000000002          6.7987320944666862E-003
  0.20560000000000000         -7.1754883974790573E-003
  0.20670000000000005         -1.9099297001957893E-002
  0.20780000000000004         -6.3972473144531250E-003
  0.20890000000000003          1.7695944756269455E-002
