 -0.12000000000000000          0.0000000000000000     
 -0.11889999999999999          0.0000000000000000     
 -0.11780000000000000         -9.0811404819487206E-037
 -0.11670000000000000         -7.4527710391958379E-012
 -0.11559999999999999          9.8540776233280170E-012
 -0.11449999999999999          6.4046011549745430E-011
 -0.11340000000000000         -7.7472271653444835E-011
 -0.11230000000000000         -4.0007444579437390E-010
 -0.11119999999999999          1.5578213719003031E-010
 -0.11009999999999999          1.7873329483109046E-009
 -0.10900000000000000          8.3040180287596854E-010
 -0.10790000000000000         -5.3122688470352841E-009
 -0.10679999999999999         -7.5298256518863127E-009
 -0.10569999999999999          7.6709447682787868E-009
 -0.10460000000000000          2.7691775983385014E-008
 -0.10349999999999999          1.0631939773020349E-008
 -0.10239999999999999         -5.1289745783833496E-008
 -0.10130000000000000         -7.8835334704763227E-008
 -0.10020000000000000          1.2862139797675809E-008
  -9.9099999999999994E-002     1.5656003427011456E-007
  -9.7999999999999990E-002     1.4992554042692063E-007
  -9.6899999999999986E-002    -7.7726149072532280E-008
  -9.5799999999999996E-002    -2.8944458563273656E-007
  -9.4699999999999993E-002    -1.9414143537233031E-007
  -9.3599999999999989E-002     1.3308013535606733E-007
  -9.2499999999999999E-002     2.9348299790399324E-007
  -9.1399999999999995E-002     1.1179573533581788E-007
  -9.0299999999999991E-002    -8.9194998054153984E-008
  -8.9200000000000002E-002     2.4515351526588347E-008
  -8.8099999999999984E-002     2.3214741418087215E-007
  -8.6999999999999994E-002     5.0550227115309099E-008
  -8.5899999999999990E-002    -4.6148966248438228E-007
  -8.4799999999999986E-002    -6.6096185946662445E-007
  -8.3699999999999997E-002    -2.3164592732882738E-007
  -8.2599999999999993E-002     3.4001581639131473E-007
  -8.1499999999999989E-002     5.3870405736233806E-007
  -8.0399999999999999E-002     5.7867043778969673E-007
  -7.9299999999999995E-002     7.3471176165185170E-007
  -7.8199999999999992E-002     2.7108859512736672E-007
  -7.7100000000000002E-002    -1.8896386109190644E-006
  -7.5999999999999984E-002    -5.2562354539986700E-006
  -7.4899999999999994E-002    -7.6994565461063758E-006
  -7.3799999999999991E-002    -8.0821528172236867E-006
  -7.2699999999999987E-002    -8.0001955211628228E-006
  -7.1599999999999997E-002    -9.5752257038839161E-006
  -7.0499999999999993E-002    -1.2097071703465190E-005
  -6.9399999999999989E-002    -1.2811431588488631E-005
  -6.8300000000000000E-002    -1.1398337846912909E-005
  -6.7199999999999996E-002    -1.1584500498429406E-005
  -6.6099999999999992E-002    -1.6781477825134061E-005
  -6.5000000000000002E-002    -2.5559271307429299E-005
  -6.3899999999999985E-002    -3.3659234759397805E-005
  -6.2799999999999995E-002    -3.9838985685491934E-005
  -6.1699999999999991E-002    -4.7043940867297351E-005
  -6.0599999999999994E-002    -5.7539611589163542E-005
  -5.9499999999999990E-002    -6.9987327151466161E-005
  -5.8399999999999994E-002    -8.3068829553667456E-005
  -5.7299999999999990E-002    -9.9179116659797728E-005
  -5.6199999999999986E-002    -1.2119355960749090E-004
  -5.5099999999999996E-002    -1.4727853704243898E-004
  -5.3999999999999992E-002    -1.7354958981741220E-004
  -5.2899999999999989E-002    -2.0208006026223302E-004
  -5.1799999999999985E-002    -2.4094723630696535E-004
  -5.0699999999999995E-002    -2.9340802575461566E-004
  -4.9599999999999991E-002    -3.5163920256309211E-004
  -4.8499999999999988E-002    -4.0695548523217440E-004
  -4.7399999999999998E-002    -4.6416971599683166E-004
  -4.6299999999999994E-002    -5.3863727953284979E-004
  -4.5199999999999990E-002    -6.3775153830647469E-004
  -4.4099999999999986E-002    -7.5227307388558984E-004
  -4.2999999999999997E-002    -8.7037374032661319E-004
  -4.1899999999999993E-002    -9.9476380273699760E-004
  -4.0799999999999989E-002    -1.1388397542759776E-003
  -3.9699999999999985E-002    -1.3089220738038421E-003
  -3.8599999999999995E-002    -1.4994569355621934E-003
  -3.7499999999999992E-002    -1.7064305720850825E-003
  -3.6399999999999988E-002    -1.9353915704414248E-003
  -3.5299999999999984E-002    -2.1908280905336142E-003
  -3.4199999999999994E-002    -2.4665307719260454E-003
  -3.3099999999999991E-002    -2.7567658107727766E-003
  -3.1999999999999987E-002    -3.0720499344170094E-003
  -3.0899999999999997E-002    -3.4297418314963579E-003
  -2.9799999999999993E-002    -3.8271206431090832E-003
  -2.8699999999999989E-002    -4.2383079417049885E-003
  -2.7599999999999986E-002    -4.6462742611765862E-003
  -2.6499999999999996E-002    -5.0672609359025955E-003
  -2.5399999999999992E-002    -5.5291964672505856E-003
  -2.4299999999999988E-002    -6.0307243838906288E-003
  -2.3199999999999985E-002    -6.5385806374251842E-003
  -2.2099999999999995E-002    -7.0279333740472794E-003
  -2.0999999999999991E-002    -7.5076310895383358E-003
  -1.9899999999999987E-002    -7.9953130334615707E-003
  -1.8799999999999983E-002    -8.4826992824673653E-003
  -1.7699999999999994E-002    -8.9421533048152924E-003
  -1.6599999999999990E-002    -9.3605872243642807E-003
  -1.5499999999999986E-002    -9.7437631338834763E-003
  -1.4399999999999996E-002    -1.0083746165037155E-002
  -1.3299999999999992E-002    -1.0345932096242905E-002
  -1.2199999999999989E-002    -1.0504186153411865E-002
  -1.1099999999999985E-002    -1.0569999925792217E-002
  -9.9999999999999950E-003    -1.0562969371676445E-002
  -8.8999999999999913E-003    -1.0459707118570805E-002
  -7.7999999999999875E-003    -1.0200325399637222E-002
  -6.6999999999999837E-003    -9.7526749595999718E-003
  -5.5999999999999939E-003    -9.1412262991070747E-003
  -4.4999999999999901E-003    -8.3968648687005043E-003
  -3.3999999999999864E-003    -7.4978978373110294E-003
  -2.2999999999999826E-003    -6.3894423656165600E-003
  -1.1999999999999927E-003    -5.0545171834528446E-003
  -9.9999999999988987E-005    -3.5273896064609289E-003
   1.0000000000000148E-003    -1.8307231366634369E-003
   2.1000000000000185E-003     6.1858947447035462E-005
   3.2000000000000084E-003     2.1773648913949728E-003
   4.3000000000000121E-003     4.4855610467493534E-003
   5.4000000000000159E-003     6.9264662452042103E-003
   6.5000000000000058E-003     9.4869406893849373E-003
   7.6000000000000234E-003     1.2203861027956009E-002
   8.7000000000000133E-003     1.5077726915478706E-002
   9.8000000000000032E-003     1.8029300495982170E-002
   1.0900000000000021E-002     2.0969429984688759E-002
   1.2000000000000011E-002     2.3882327601313591E-002
   1.3100000000000001E-002     2.6796657592058182E-002
   1.4200000000000018E-002     2.9684586450457573E-002
   1.5300000000000008E-002     3.2445058226585388E-002
   1.6400000000000026E-002     3.4995637834072113E-002
   1.7500000000000016E-002     3.7330273538827896E-002
   1.8600000000000005E-002     3.9452500641345978E-002
   1.9700000000000023E-002     4.1292745620012283E-002
   2.0800000000000013E-002     4.2748015373945236E-002
   2.1900000000000003E-002     4.3785259127616882E-002
   2.3000000000000020E-002     4.4442560523748398E-002
   2.4100000000000010E-002     4.4717852026224136E-002
   2.5200000000000000E-002     4.4515348970890045E-002
   2.6300000000000018E-002     4.3742377310991287E-002
   2.7400000000000008E-002     4.2421780526638031E-002
   2.8500000000000025E-002     4.0646269917488098E-002
   2.9600000000000015E-002     3.8436651229858398E-002
   3.0700000000000005E-002     3.5716503858566284E-002
   3.1800000000000023E-002     3.2441977411508560E-002
   3.2900000000000013E-002     2.8691861778497696E-002
   3.4000000000000002E-002     2.4582356214523315E-002
   3.5100000000000020E-002     2.0141579210758209E-002
   3.6200000000000010E-002     1.5335951000452042E-002
   3.7300000000000028E-002     1.0203908197581768E-002
   3.8400000000000017E-002     4.8865145072340965E-003
   3.9500000000000007E-002    -5.0118431681767106E-004
   4.0600000000000025E-002    -5.9572919271886349E-003
   4.1700000000000015E-002    -1.1494681239128113E-002
   4.2800000000000005E-002    -1.7008107155561447E-002
   4.3900000000000022E-002    -2.2318189963698387E-002
   4.5000000000000012E-002    -2.7334289625287056E-002
   4.6100000000000002E-002    -3.2091349363327026E-002
   4.7200000000000020E-002    -3.6598160862922668E-002
   4.8300000000000010E-002    -4.0728371590375900E-002
   4.9400000000000027E-002    -4.4328738003969193E-002
   5.0500000000000017E-002    -4.7374170273542404E-002
   5.1600000000000007E-002    -4.9937501549720764E-002
   5.2700000000000025E-002    -5.2020143717527390E-002
   5.3800000000000014E-002    -5.3502932190895081E-002
   5.4900000000000004E-002    -5.4300520569086075E-002
   5.6000000000000022E-002    -5.4482035338878632E-002
   5.7100000000000012E-002    -5.4171845316886902E-002
   5.8200000000000002E-002    -5.3368374705314636E-002
   5.9300000000000019E-002    -5.1963891834020615E-002
   6.0400000000000009E-002    -4.9946606159210205E-002
   6.1500000000000027E-002    -4.7467827796936035E-002
   6.2600000000000017E-002    -4.4672288000583649E-002
   6.3700000000000007E-002    -4.1550118476152420E-002
   6.4800000000000024E-002    -3.8031302392482758E-002
   6.5900000000000014E-002    -3.4176982939243317E-002
   6.7000000000000004E-002    -3.0169064179062843E-002
   6.8100000000000022E-002    -2.6112630963325500E-002
   6.9200000000000012E-002    -2.1962570026516914E-002
   7.0300000000000029E-002    -1.7688209190964699E-002
   7.1400000000000019E-002    -1.3415688648819923E-002
   7.2500000000000009E-002    -9.3243997544050217E-003
   7.3600000000000027E-002    -5.4456493817269802E-003
   7.4700000000000016E-002    -1.6776478150859475E-003
   7.5800000000000006E-002     1.9976822659373283E-003
   7.6900000000000024E-002     5.4255137220025063E-003
   7.8000000000000014E-002     8.4563214331865311E-003
   7.9100000000000004E-002     1.1128128506243229E-002
   8.0200000000000021E-002     1.3575801625847816E-002
   8.1300000000000011E-002     1.5806114301085472E-002
   8.2400000000000029E-002     1.7679402604699135E-002
   8.3500000000000019E-002     1.9121402874588966E-002
   8.4600000000000009E-002     2.0235296338796616E-002
   8.5700000000000026E-002     2.1142764016985893E-002
   8.6800000000000016E-002     2.1805465221405029E-002
   8.7900000000000006E-002     2.2105991840362549E-002
   8.9000000000000024E-002     2.2062372416257858E-002
   9.0100000000000013E-002     2.1838264539837837E-002
   9.1200000000000003E-002     2.1524416282773018E-002
   9.2300000000000021E-002     2.1026976406574249E-002
   9.3400000000000011E-002     2.0241970196366310E-002
   9.4500000000000028E-002     1.9251557067036629E-002
   9.5600000000000018E-002     1.8239639699459076E-002
   9.6700000000000008E-002     1.7253132537007332E-002
   9.7800000000000026E-002     1.6170086339116096E-002
   9.8900000000000016E-002     1.4919950626790524E-002
  0.10000000000000001          1.3619380071759224E-002
  0.10110000000000002          1.2417751364409924E-002
  0.10220000000000001          1.1293420568108559E-002
  0.10330000000000003          1.0116350837051868E-002
  0.10440000000000002          8.8762957602739334E-003
  0.10550000000000001          7.7195861376821995E-003
  0.10660000000000003          6.7368028685450554E-003
  0.10770000000000002          5.8311312459409237E-003
  0.10880000000000001          4.8737861216068268E-003
  0.10990000000000003          3.9101815782487392E-003
  0.11100000000000002          3.0994175467640162E-003
  0.11210000000000001          2.4770468007773161E-003
  0.11320000000000002          1.9029469694942236E-003
  0.11430000000000001          1.2736844364553690E-003
  0.11540000000000003          6.7490700166672468E-004
  0.11650000000000002          2.4302284873556346E-004
  0.11760000000000001         -4.8403460823465139E-005
  0.11870000000000003         -3.4915629657916725E-004
  0.11980000000000002         -7.0414878427982330E-004
  0.12090000000000001         -9.9096447229385376E-004
  0.12200000000000003         -1.1174334213137627E-003
  0.12310000000000001         -1.1720359325408936E-003
  0.12420000000000003         -1.2950191739946604E-003
  0.12530000000000002         -1.4687208458781242E-003
  0.12640000000000001         -1.5501064481213689E-003
  0.12750000000000003         -1.4952754136174917E-003
  0.12860000000000002         -1.4312410494312644E-003
  0.12970000000000001         -1.4659655280411243E-003
  0.13080000000000003         -1.5304007101804018E-003
  0.13190000000000002         -1.4921940164640546E-003
  0.13300000000000001         -1.3625393621623516E-003
  0.13410000000000000         -1.2783454731106758E-003
  0.13520000000000004         -1.2916234554722905E-003
  0.13630000000000003         -1.2932011159136891E-003
  0.13740000000000002         -1.1861718958243728E-003
  0.13850000000000001         -1.0393123375251889E-003
  0.13960000000000000         -9.8347687162458897E-004
  0.14070000000000005         -1.0117366909980774E-003
  0.14180000000000004         -9.9048321135342121E-004
  0.14290000000000003         -8.6333358194679022E-004
  0.14400000000000002         -7.3518045246601105E-004
  0.14510000000000001         -7.1138434577733278E-004
  0.14620000000000000         -7.4110261630266905E-004
  0.14730000000000004         -7.0057320408523083E-004
  0.14840000000000003         -5.8274506591260433E-004
  0.14950000000000002         -5.0252740038558841E-004
  0.15060000000000001         -5.1613512914627790E-004
  0.15170000000000000         -5.3691584616899490E-004
  0.15280000000000005         -4.7339932643808424E-004
  0.15390000000000004         -3.7141598295420408E-004
  0.15500000000000003         -3.4151892759837210E-004
  0.15610000000000002         -3.8655783282592893E-004
  0.15720000000000001         -3.9646454388275743E-004
  0.15830000000000000         -3.1676510116085410E-004
  0.15940000000000004         -2.3119930119719356E-004
  0.16050000000000003         -2.3397299810312688E-004
  0.16160000000000002         -2.8863895568065345E-004
  0.16270000000000001         -2.8650238527916372E-004
  0.16380000000000000         -2.1054357057437301E-004
  0.16490000000000005         -1.5559422899968922E-004
  0.16600000000000004         -1.8071402155328542E-004
  0.16710000000000003         -2.2287054162006825E-004
  0.16820000000000002         -1.9876872829627246E-004
  0.16930000000000001         -1.3198128726799041E-004
  0.17040000000000000         -1.1177761189173907E-004
  0.17150000000000004         -1.5352676564361900E-004
  0.17260000000000003         -1.7724117788020521E-004
  0.17370000000000002         -1.3299484271556139E-004
  0.17480000000000001         -7.7052834967616946E-005
  0.17590000000000000         -8.3909857494290918E-005
  0.17700000000000005         -1.3255898375064135E-004
  0.17810000000000004         -1.4030150487087667E-004
  0.17920000000000003         -8.8689230324234813E-005
  0.18030000000000002         -4.8778725613374263E-005
  0.18140000000000001         -7.1529168053530157E-005
  0.18250000000000000         -1.1304951476631686E-004
  0.18360000000000004         -1.0470067354617640E-004
  0.18470000000000003         -5.6135664635803550E-005
  0.18580000000000002         -3.6145447666058317E-005
  0.18690000000000001         -6.6783955844584852E-005
  0.18800000000000000         -9.3592898338101804E-005
  0.18910000000000005         -7.1856920840218663E-005
  0.19020000000000004         -3.2993961212923750E-005
  0.19130000000000003         -3.2764364732429385E-005
  0.19240000000000002         -6.5914471633732319E-005
  0.19350000000000001         -7.7385389886330813E-005
  0.19460000000000005         -4.7710975195514038E-005
  0.19570000000000004         -2.0272445908631198E-005
  0.19680000000000003         -3.2884858228499070E-005
  0.19790000000000002         -6.1534992710221559E-005
  0.19900000000000001         -5.9631052863551304E-005
  0.20010000000000000         -2.8768083211616613E-005
  0.20120000000000005         -1.3715683962800540E-005
  0.20230000000000004         -3.3617656299611554E-005
  0.20340000000000003         -5.5325566790997982E-005
  0.20450000000000002         -4.5527460315497592E-005
  0.20560000000000000         -1.9350880393176340E-005
  0.20670000000000005         -1.4248222214519046E-005
  0.20780000000000004         -3.3441207051509991E-005
  0.20890000000000003         -4.4221484131412581E-005
