 -0.12000000000000000          0.0000000000000000
 -0.11889999999999999          0.0000000000000000
 -0.11780000000000000          0.0000000000000000
 -0.11670000000000000          0.0000000000000000
 -0.11559999999999999          0.0000000000000000
 -0.11449999999999999          0.0000000000000000
 -0.11340000000000000          0.0000000000000000
 -0.11230000000000000          0.0000000000000000
 -0.11119999999999999          0.0000000000000000
 -0.11009999999999999          0.0000000000000000
 -0.10900000000000000          0.0000000000000000
 -0.10790000000000000          0.0000000000000000
 -0.10679999999999999          0.0000000000000000
 -0.10569999999999999          0.0000000000000000
 -0.10460000000000000          0.0000000000000000
 -0.10349999999999999          0.0000000000000000
 -0.10239999999999999          0.0000000000000000
 -0.10130000000000000          0.0000000000000000
 -0.10020000000000000         -5.0449844387896501E-038
  -9.9099999999999994E-002    -1.1938765840773005E-037
  -9.7999999999999990E-002     1.4431815490237778E-036
  -9.6899999999999986E-002    -5.6499654553383233E-037
  -9.5799999999999996E-002    -2.0509507997523607E-035
  -9.4699999999999993E-002     2.4620476630358377E-035
  -9.3599999999999989E-002     2.2016182671436023E-034
  -9.2499999999999999E-002    -3.1638981465358816E-034
  -9.1399999999999995E-002    -2.0285777845208843E-033
  -9.0299999999999991E-002     2.5908957110458803E-033
  -8.9200000000000002E-002     1.6717770454799183E-032
  -8.8099999999999984E-002    -1.4096979351018000E-032
  -8.6999999999999994E-002    -1.2283495139115310E-031
  -8.5899999999999990E-002     3.2412969557610428E-032
  -8.4799999999999986E-002     7.8670655321437278E-031
  -8.3699999999999997E-002     3.0523772636192037E-031
  -8.2599999999999993E-002    -4.2466258744924763E-030
  -8.1499999999999989E-002    -4.8053223527151384E-030
  -8.0399999999999999E-002     1.8242322669168062E-029
  -7.9299999999999995E-002     3.9088978087102687E-029
  -7.8199999999999992E-002    -5.3446481886690182E-029
  -7.7100000000000002E-002    -2.2873523651633750E-028
  -7.5999999999999984E-002     2.4204792633036046E-029
  -7.4899999999999994E-002     1.0079725105464893E-027
  -7.3799999999999991E-002     8.9808578497105623E-028
  -7.2699999999999987E-002    -3.1538516471920167E-027
  -7.1599999999999997E-002    -6.7883237342377347E-027
  -7.0499999999999993E-002     4.7749997112060726E-027
  -6.9399999999999989E-002     3.0179972422497211E-026
  -6.8300000000000000E-002     1.6038822561370199E-026
  -6.7199999999999996E-002    -8.7276704769895498E-026
  -6.6099999999999992E-002    -1.5318648329834604E-025
  -6.5000000000000002E-002     1.1245204808354537E-025
  -6.3899999999999985E-002     6.2342242598845192E-025
  -6.2799999999999995E-002     3.8031026148940569E-025
  -6.1699999999999991E-002    -1.4533811601306351E-024
  -6.0599999999999994E-002    -2.8792367939106198E-024
  -5.9499999999999990E-002     7.3283772936544572E-025
  -5.8399999999999994E-002     9.0653047440130829E-024
  -5.7299999999999990E-002     9.1766453610368817E-024
  -5.6199999999999986E-002    -1.3046612368599344E-023
  -5.5099999999999996E-002    -4.0613699067180467E-023
  -5.3999999999999992E-002    -1.7967853283782777E-023
  -5.2899999999999989E-002     7.9035772145701436E-023
  -5.1799999999999985E-002     1.4618988542003228E-022
  -5.0699999999999995E-002     1.4284079932388272E-024
  -4.9599999999999991E-002    -3.3984801799678609E-022
  -4.8499999999999988E-002    -4.5569866641170380E-022
  -4.7399999999999998E-002     1.4392995669875512E-022
  -4.6299999999999994E-002     1.1893593011580267E-021
  -4.5199999999999990E-002     1.3399088989459662E-021
  -4.4099999999999986E-002    -5.9760815469468342E-022
  -4.2999999999999997E-002    -3.6053038583164507E-021
  -4.1899999999999993E-002    -4.0787557068715212E-021
  -4.0799999999999989E-002     1.0823507863704523E-021
  -3.9699999999999985E-002     9.7922262915073965E-021
  -3.8599999999999995E-002     1.3379925904619386E-020
  -3.7499999999999992E-002     2.0967532090636484E-021
  -3.6399999999999988E-002    -2.3854775726494066E-020
  -3.5299999999999984E-002    -4.5041961832164241E-020
  -3.4199999999999994E-002    -2.7373235314015252E-020
  -3.3099999999999991E-002     4.8706578740927292E-020
  -3.1999999999999987E-002     1.4315315635343701E-019
  -3.0899999999999997E-002     1.4252315491940131E-019
  -2.9799999999999993E-002    -5.9845237773201509E-020
  -2.8699999999999989E-002    -3.9918219002372964E-019
  -2.7599999999999986E-002    -5.4727691043186136E-019
  -2.6499999999999996E-002    -1.0872982836688963E-019
  -2.5399999999999992E-002     8.9826106977032190E-019
  -2.4299999999999988E-002     1.6947363243950749E-018
  -2.3199999999999985E-002     1.1032701331709237E-018
  -2.2099999999999995E-002    -1.3130609208975414E-018
  -2.0999999999999991E-002    -4.1931501650084020E-018
  -1.9899999999999987E-002    -4.6717626576958717E-018
  -1.8799999999999983E-002    -4.6956448095463496E-019
  -1.7699999999999994E-002     7.4136475990371382E-018
  -1.6599999999999990E-002     1.3667336516368715E-017
  -1.5499999999999986E-002     1.1009998946207413E-017
  -1.4399999999999996E-002    -4.4063212263082177E-018
  -1.3299999999999992E-002    -2.7288661938344781E-017
  -1.2199999999999989E-002    -4.1693770769216893E-017
  -1.1099999999999985E-002    -2.7849225695859717E-017
  -9.9999999999999950E-003     2.2654007016518345E-017
  -8.8999999999999913E-003     9.0908155171202606E-017
  -7.7999999999999875E-003     1.2812932397239833E-016
  -6.6999999999999837E-003     7.8215035584351894E-017
  -5.5999999999999939E-003    -7.8101043478497187E-017
  -4.4999999999999901E-003    -2.8202321967834513E-016
  -3.3999999999999864E-003    -3.9418075804841836E-016
  -2.2999999999999826E-003    -2.5544636981815938E-016
  -1.1999999999999927E-003     1.9819652464398449E-016
  -9.9999999999988987E-005     8.2038926120062030E-016
   1.0000000000000148E-003     1.2260341337340928E-015
   2.1000000000000185E-003     9.3140759319619570E-016
   3.2000000000000084E-003    -3.2856794482776495E-016
   4.3000000000000121E-003    -2.2346516388087150E-015
   5.4000000000000159E-003    -3.7320894225240705E-015
   6.5000000000000058E-003    -3.3638210963980557E-015
   7.6000000000000234E-003    -1.4157246476426312E-016
   8.7000000000000133E-003     5.3883751064862876E-015
   9.8000000000000032E-003     1.0584983647780096E-014
   1.0900000000000021E-002     1.1377670114105613E-014
   1.2000000000000011E-002     4.3759602468300060E-015
   1.3100000000000001E-002    -1.0276206257188013E-014
   1.4200000000000018E-002    -2.6907172169065956E-014
   1.5300000000000008E-002    -3.5058158362032826E-014
   1.6400000000000026E-002    -2.3954432255596410E-014
   1.7500000000000016E-002     1.0305134973435590E-014
   1.8600000000000005E-002     5.8214521256923918E-014
   1.9700000000000023E-002     9.5679608441874564E-014
   2.0800000000000013E-002     9.1814373486855116E-014
   2.1900000000000003E-002     2.5410900326202496E-014
   2.3000000000000020E-002    -9.5925945951726849E-014
   2.4100000000000010E-002    -2.2482273746675385E-013
   2.5200000000000000E-002    -2.8272132898687907E-013
   2.6300000000000018E-002    -1.9297097828083892E-013
   2.7400000000000008E-002     6.9551786205379607E-014
   2.8500000000000025E-002     4.3491227871665650E-013
   2.9600000000000015E-002     7.3104873933929615E-013
   3.0700000000000005E-002     7.3607548008169932E-013
   3.1800000000000023E-002     2.8770345480988446E-013
   3.2900000000000013E-002    -5.8783078231428032E-013
   3.4000000000000002E-002    -1.5938615444827109E-012
   3.5100000000000020E-002    -2.1983714761780737E-012
   3.6200000000000010E-002    -1.8216068844306710E-012
   3.7300000000000028E-002    -1.4305252132602170E-013
   3.8400000000000017E-002     2.5855587202500141E-012
   3.9500000000000007E-002     5.3884132399095730E-012
   4.0600000000000025E-002     6.7306997648952649E-012
   4.1700000000000015E-002     5.0587858554940190E-012
   4.2800000000000005E-002    -3.9370812382824583E-013
   4.3900000000000022E-002    -8.8233734554798993E-012
   4.5000000000000012E-002    -1.7495395757127774E-011
   4.6100000000000002E-002    -2.2156948151219602E-011
   4.7200000000000020E-002    -1.8351984862330362E-011
   4.8300000000000010E-002    -3.3971861782000623E-012
   4.9400000000000027E-002     2.1605750175068827E-011
   5.0500000000000017E-002     5.0578850135929443E-011
   5.1600000000000007E-002     7.2895939284833844E-011
   5.2700000000000025E-002     7.5821876555082213E-011
   5.3800000000000014E-002     4.8689691167780325E-011
   5.4900000000000004E-002    -1.2193364373747073E-011
   5.6000000000000022E-002    -9.9452890367501823E-011
   5.7100000000000012E-002    -1.9302445752877873E-010
   5.8200000000000002E-002    -2.6222674032183590E-010
   5.9300000000000019E-002    -2.7184551831815895E-010
   6.0400000000000009E-002    -1.9138331197599001E-010
   6.1500000000000027E-002    -5.5566597330358736E-012
   6.2600000000000017E-002     2.7649077471991745E-010
   6.3700000000000007E-002     6.1579480403750608E-010
   6.4800000000000024E-002     9.4383689752675082E-010
   6.5900000000000014E-002     1.1691365653376806E-009
   6.7000000000000004E-002     1.1894101259457557E-009
   6.8100000000000022E-002     9.0722795942355106E-010
   6.9200000000000012E-002     2.4600257941820303E-010
   7.0300000000000029E-002    -8.3733531219820634E-010
   7.1400000000000019E-002    -2.3464341580847758E-009
   7.2500000000000009E-002    -4.2489829432668103E-009
   7.3600000000000027E-002    -6.4904077667904403E-009
   7.4700000000000016E-002    -9.0165430677302538E-009
   7.5800000000000006E-002    -1.1801522425969324E-008
   7.6900000000000024E-002    -1.4875475073949929E-008
   7.8000000000000014E-002    -1.8345849284173710E-008
   7.9100000000000004E-002    -2.2407281363712173E-008
   8.0200000000000021E-002    -2.7337538455185495E-008
   8.1300000000000011E-002    -3.3480716865597060E-008
   8.2400000000000029E-002    -4.1224904379077998E-008
   8.3500000000000019E-002    -5.0981125099269775E-008
   8.4600000000000009E-002    -6.3173970943353197E-008
   8.5700000000000026E-002    -7.8250394608403440E-008
   8.6800000000000016E-002    -9.6706138208446646E-008
   8.7900000000000006E-002    -1.1912575104133794E-007
   8.9000000000000024E-002    -1.4622845867506840E-007
   9.0100000000000013E-002    -1.7890472747694730E-007
   9.1200000000000003E-002    -2.1824034490691702E-007
   9.2300000000000021E-002    -2.6552464760243311E-007
   9.3400000000000011E-002    -3.2224676260739216E-007
   9.4500000000000028E-002    -3.9009466945572058E-007
   9.5600000000000018E-002    -4.7095821287257422E-007
   9.6700000000000008E-002    -5.6695989769650623E-007
   9.7800000000000026E-002    -6.8049860146857100E-007
   9.8900000000000016E-002    -8.1431085163785610E-007
  0.10000000000000001         -9.7151939826289890E-007
  0.10110000000000002         -1.1556902563825133E-006
  0.10220000000000001         -1.3708553296964965E-006
  0.10330000000000003         -1.6214996776398038E-006
  0.10440000000000002         -1.9125814105791505E-006
  0.10550000000000001         -2.2495075882034143E-006
  0.10660000000000003         -2.6381226234661881E-006
  0.10770000000000002         -3.0847465950500919E-006
  0.10880000000000001         -3.5961647881777026E-006
  0.10990000000000003         -4.1796743062150199E-006
  0.11100000000000002         -4.8430629249196500E-006
  0.11210000000000001         -5.5946011343621649E-006
  0.11320000000000002         -6.4429291342094075E-006
  0.11430000000000001         -7.3971045821963344E-006
  0.11540000000000003         -8.4664006863022223E-006
  0.11650000000000002         -9.6601006589480676E-006
  0.11760000000000001         -1.0987491805281024E-005
  0.11870000000000003         -1.2457664524845313E-005
  0.11980000000000002         -1.4079293578106444E-005
  0.12090000000000001         -1.5860399798839353E-005
  0.12200000000000003         -1.7808288248488680E-005
  0.12310000000000001         -1.9929060727008618E-005
  0.12420000000000003         -2.2227397494134493E-005
  0.12530000000000002         -2.4706325348233804E-005
  0.12640000000000001         -2.7366861104383133E-005
  0.12750000000000003         -3.0207729651010595E-005
  0.12860000000000002         -3.3224758226424456E-005
  0.12970000000000001         -3.6410783650353551E-005
  0.13080000000000003         -3.9755253965267912E-005
  0.13190000000000002         -4.3243740947218612E-005
  0.13300000000000001         -4.6857727284077555E-005
  0.13410000000000000         -5.0574089982546866E-005
  0.13520000000000004         -5.4365202231565490E-005
  0.13630000000000003         -5.8198420447297394E-005
  0.13740000000000002         -6.2035964219830930E-005
  0.13850000000000001         -6.5835600253194571E-005
  0.13960000000000000         -6.9549736508633941E-005
  0.14070000000000005         -7.3125782364513725E-005
  0.14180000000000004         -7.6506818004418164E-005
  0.14290000000000003         -7.9631689004600048E-005
  0.14400000000000002         -8.2434817159082741E-005
  0.14510000000000001         -8.4848419646732509E-005
  0.14620000000000000         -8.6801897850818932E-005
  0.14730000000000004         -8.8221757323481143E-005
  0.14840000000000003         -8.9036067947745323E-005
  0.14950000000000002         -8.9172746811527759E-005
  0.15060000000000001         -8.8561493612360209E-005
  0.15170000000000000         -8.7135107605718076E-005
  0.15280000000000005         -8.4831226558890194E-005
  0.15390000000000004         -8.1593294453341514E-005
  0.15500000000000003         -7.7371965744532645E-005
  0.15610000000000002         -7.2126931627281010E-005
  0.15720000000000001         -6.5828484366647899E-005
  0.15830000000000000         -5.8458757848711684E-005
  0.15940000000000004         -5.0012535211862996E-005
  0.16050000000000003         -4.0499337046639994E-005
  0.16160000000000002         -2.9945107598905452E-005
  0.16270000000000001         -1.8388931493973359E-005
  0.16380000000000000         -5.8881305449176580E-006
  0.16490000000000005          7.4851282079180237E-006
  0.16600000000000004          2.1640424165525474E-005
  0.16710000000000003          3.6471388739300892E-005
  0.16820000000000002          5.1856237405445427E-005
  0.16930000000000001          6.7657019826583564E-005
  0.17040000000000000          8.3725346485152841E-005
  0.17150000000000004          9.9899421911686659E-005
  0.17260000000000003          1.1600826110225171E-004
  0.17370000000000002          1.3187309377826750E-004
  0.17480000000000001          1.4731053670402616E-004
  0.17590000000000000          1.6213468916248530E-004
  0.17700000000000005          1.7616144032217562E-004
  0.17810000000000004          1.8920873117167503E-004
  0.17920000000000003          2.0110109471715987E-004
  0.18030000000000002          2.1167156228329986E-004
  0.18140000000000001          2.2076678578741848E-004
  0.18250000000000000          2.2824871120974422E-004
  0.18360000000000004          2.3399683414027095E-004
  0.18470000000000003          2.3791083367541432E-004
  0.18580000000000002          2.3991185298655182E-004
  0.18690000000000001          2.3994551156647503E-004
  0.18800000000000000          2.3798106121830642E-004
  0.18910000000000005          2.3401508224196732E-004
  0.19020000000000004          2.2807047935202718E-004
  0.19130000000000003          2.2019556490704417E-004
  0.19240000000000002          2.1046520851086825E-004
  0.19350000000000001          1.9897804304491729E-004
  0.19460000000000005          1.8585569341666996E-004
  0.19570000000000004          1.7124065198004246E-004
  0.19680000000000003          1.5529694792348891E-004
  0.19790000000000002          1.3820466119796038E-004
  0.19900000000000001          1.2015625543426722E-004
  0.20010000000000000          1.0135374759556726E-004
  0.20120000000000005          8.2006365119013935E-005
  0.20230000000000004          6.2329520005732775E-005
  0.20340000000000003          4.2539337300695479E-005
  0.20450000000000002          2.2849502784083597E-005
  0.20560000000000000          3.4667616546357749E-006
  0.20670000000000005         -1.5414001609315164E-005
  0.20780000000000004         -3.3606556826271117E-005
  0.20890000000000003         -5.0941111112479120E-005
