 -0.12000000000000000          0.0000000000000000     
 -0.11889999999999999         -2.3804462398402393E-004
 -0.11780000000000000          1.6688910545781255E-004
 -0.11670000000000000          6.6972925560548902E-004
 -0.11559999999999999         -1.1048441228922457E-004
 -0.11449999999999999         -1.1875820346176624E-003
 -0.11340000000000000         -2.8042777557857335E-004
 -0.11230000000000000          1.4356314204633236E-003
 -0.11119999999999999          3.2772289705462754E-004
 -0.11009999999999999         -2.5303368456661701E-003
 -0.10900000000000000         -1.1085484875366092E-003
 -0.10790000000000000          5.0206370651721954E-003
 -0.10679999999999999          6.4050019718706608E-003
 -0.10569999999999999         -2.7467785403132439E-003
 -0.10460000000000000         -1.1950997635722160E-002
 -0.10349999999999999         -6.5400376915931702E-003
 -0.10239999999999999          8.9880032464861870E-003
 -0.10130000000000000          1.3437523506581783E-002
 -0.10020000000000000         -8.5764285176992416E-004
  -9.9099999999999994E-002    -1.4127869158983231E-002
  -9.7999999999999990E-002    -6.5306206233799458E-003
  -9.6899999999999986E-002     1.1461493559181690E-002
  -9.5799999999999996E-002     1.3229986652731895E-002
  -9.4699999999999993E-002    -4.0341722778975964E-003
  -9.3599999999999989E-002    -1.4630985446274281E-002
  -9.2499999999999999E-002    -3.7689185701310635E-003
  -9.1399999999999995E-002     9.6112033352255821E-003
  -9.0299999999999991E-002     3.2291060779243708E-003
  -8.9200000000000002E-002    -1.2479706667363644E-002
  -8.8099999999999984E-002    -1.1040925048291683E-002
  -8.6999999999999994E-002     6.2281135469675064E-003
  -8.5899999999999990E-002     1.0888762772083282E-002
  -8.4799999999999986E-002    -5.9591084718704224E-003
  -8.3699999999999997E-002    -1.6754372045397758E-002
  -8.2599999999999993E-002    -1.7528380267322063E-003
  -8.1499999999999989E-002     1.5200036577880383E-002
  -8.0399999999999999E-002     1.9370912341400981E-003
  -7.9299999999999995E-002    -2.7117675170302391E-002
  -7.8199999999999992E-002    -2.7601929381489754E-002
  -7.7100000000000002E-002     4.4783772900700569E-003
  -7.5999999999999984E-002     1.9041901454329491E-002
  -7.4899999999999994E-002    -1.4635790139436722E-002
  -7.3799999999999991E-002    -5.5818233639001846E-002
  -7.2699999999999987E-002    -4.7620527446269989E-002
  -7.1599999999999997E-002    -2.9558916576206684E-003
  -7.0499999999999993E-002     1.0165199637413025E-002
  -6.9399999999999989E-002    -3.2849583774805069E-002
  -6.8300000000000000E-002    -7.7496580779552460E-002
  -6.7199999999999996E-002    -7.1868881583213806E-002
  -6.6099999999999992E-002    -4.1780907660722733E-002
  -6.5000000000000002E-002    -4.6496812254190445E-002
  -6.3899999999999985E-002    -8.6982712149620056E-002
  -6.2799999999999995E-002   -0.11066606640815735     
  -6.1699999999999991E-002   -0.10122201591730118     
  -6.0599999999999994E-002   -0.10589033365249634     
  -5.9499999999999990E-002   -0.15352836251258850     
  -5.8399999999999994E-002   -0.19859778881072998     
  -5.7299999999999990E-002   -0.19038029015064240     
  -5.6199999999999986E-002   -0.16325196623802185     
  -5.5099999999999996E-002   -0.19620978832244873     
  -5.3999999999999992E-002   -0.29089808464050293     
  -5.2899999999999989E-002   -0.35706952214241028     
  -5.1799999999999985E-002   -0.34129312634468079     
  -5.0699999999999995E-002   -0.31031629443168640     
  -4.9599999999999991E-002   -0.35728669166564941     
  -4.8499999999999988E-002   -0.46501436829566956     
  -4.7399999999999998E-002   -0.53221678733825684     
  -4.6299999999999994E-002   -0.52335518598556519     
  -4.5199999999999990E-002   -0.51712399721145630     
  -4.4099999999999986E-002   -0.58173578977584839     
  -4.2999999999999997E-002   -0.67124694585800171     
  -4.1899999999999993E-002   -0.70262640714645386     
  -4.0799999999999989E-002   -0.68632030487060547     
  -3.9699999999999985E-002   -0.70699548721313477     
  -3.8599999999999995E-002   -0.78349447250366211     
  -3.7499999999999992E-002   -0.83300244808197021     
  -3.6399999999999988E-002   -0.80095577239990234     
  -3.5299999999999984E-002   -0.74962925910949707     
  -3.4199999999999994E-002   -0.76348429918289185     
  -3.3099999999999991E-002   -0.80994588136672974     
  -3.1999999999999987E-002   -0.78323268890380859     
  -3.0899999999999997E-002   -0.66528141498565674     
  -2.9799999999999993E-002   -0.55728346109390259     
  -2.8699999999999989E-002   -0.52389693260192871     
  -2.7599999999999986E-002   -0.48889812827110291     
  -2.6499999999999996E-002   -0.34466835856437683     
  -2.5399999999999992E-002   -0.11795916408300400     
  -2.4299999999999988E-002     7.0528209209442139E-002
  -2.3199999999999985E-002    0.18761260807514191     
  -2.2099999999999995E-002    0.33870002627372742     
  -2.0999999999999991E-002    0.60783118009567261     
  -1.9899999999999987E-002    0.93083393573760986     
  -1.8799999999999983E-002     1.1964055299758911     
  -1.7699999999999994E-002     1.4137290716171265     
  -1.6599999999999990E-002     1.6832479238510132     
  -1.5499999999999986E-002     2.0383417606353760     
  -1.4399999999999996E-002     2.3920950889587402     
  -1.3299999999999992E-002     2.6676831245422363     
  -1.2199999999999989E-002     2.9206535816192627     
  -1.1099999999999985E-002     3.2401592731475830     
  -9.9999999999999950E-003     3.5952625274658203     
  -8.8999999999999913E-003     3.8723220825195312     
  -7.7999999999999875E-003     4.0419569015502930     
  -6.6999999999999837E-003     4.1991052627563477     
  -5.5999999999999939E-003     4.4139623641967773     
  -4.4999999999999901E-003     4.6105866432189941     
  -3.3999999999999864E-003     4.6778311729431152     
  -2.2999999999999826E-003     4.6194796562194824     
  -1.1999999999999927E-003     4.5421504974365234     
  -9.9999999999988987E-005     4.4887957572937012     
   1.0000000000000148E-003     4.3654928207397461     
   2.1000000000000185E-003     4.0906882286071777     
   3.2000000000000084E-003     3.7099146842956543     
   4.3000000000000121E-003     3.3276767730712891     
   5.4000000000000159E-003     2.9400672912597656     
   6.5000000000000058E-003     2.4439511299133301     
   7.6000000000000234E-003     1.8046993017196655     
   8.7000000000000133E-003     1.1127657890319824     
   9.8000000000000032E-003    0.45341035723686218     
   1.0900000000000021E-002   -0.20781961083412170     
   1.2000000000000011E-002   -0.96158653497695923     
   1.3100000000000001E-002    -1.7990998029708862     
   1.4200000000000018E-002    -2.6181266307830811     
   1.5300000000000008E-002    -3.3680481910705566     
   1.6400000000000026E-002    -4.1006026268005371     
   1.7500000000000016E-002    -4.8682384490966797     
   1.8600000000000005E-002    -5.6192045211791992     
   1.9700000000000023E-002    -6.2655243873596191     
   2.0800000000000013E-002    -6.8033885955810547     
   2.1900000000000003E-002    -7.3041191101074219     
   2.3000000000000020E-002    -7.7857775688171387     
   2.4100000000000010E-002    -8.1694898605346680     
   2.5200000000000000E-002    -8.3824481964111328     
   2.6300000000000018E-002    -8.4552030563354492     
   2.7400000000000008E-002    -8.4704360961914062     
   2.8500000000000025E-002    -8.4312095642089844     
   2.9600000000000015E-002    -8.2723388671875000     
   3.0700000000000005E-002    -7.9473462104797363     
   3.1800000000000023E-002    -7.5027680397033691     
   3.2900000000000013E-002    -6.9986643791198730     
   3.4000000000000002E-002    -6.4286332130432129     
   3.5100000000000020E-002    -5.7537393569946289     
   3.6200000000000010E-002    -4.9794621467590332     
   3.7300000000000028E-002    -4.1643428802490234     
   3.8400000000000017E-002    -3.3397028446197510     
   3.9500000000000007E-002    -2.4817478656768799     
   4.0600000000000025E-002    -1.5618387460708618     
   4.1700000000000015E-002   -0.62169533967971802     
   4.2800000000000005E-002    0.27852925658226013     
   4.3900000000000022E-002     1.1240659952163696     
   4.5000000000000012E-002     1.9420514106750488     
   4.6100000000000002E-002     2.7357628345489502     
   4.7200000000000020E-002     3.4763741493225098     
   4.8300000000000010E-002     4.1449427604675293     
   4.9400000000000027E-002     4.7307453155517578     
   5.0500000000000017E-002     5.2344946861267090     
   5.1600000000000007E-002     5.6491127014160156     
   5.2700000000000025E-002     5.9667649269104004     
   5.3800000000000014E-002     6.1965918540954590     
   5.4900000000000004E-002     6.3451647758483887     
   5.6000000000000022E-002     6.4149036407470703     
   5.7100000000000012E-002     6.3960981369018555     
   5.8200000000000002E-002     6.2889938354492188     
   5.9300000000000019E-002     6.1024231910705566     
   6.0400000000000009E-002     5.8433394432067871     
   6.1500000000000027E-002     5.5218853950500488     
   6.2600000000000017E-002     5.1614441871643066     
   6.3700000000000007E-002     4.7792387008666992     
   6.4800000000000024E-002     4.3639397621154785     
   6.5900000000000014E-002     3.8944141864776611     
   6.7000000000000004E-002     3.3811111450195312     
   6.8100000000000022E-002     2.8756849765777588     
   6.9200000000000012E-002     2.4102540016174316     
   7.0300000000000029E-002     1.9619895219802856     
   7.1400000000000019E-002     1.4925698041915894     
   7.2500000000000009E-002     1.0133742094039917     
   7.3600000000000027E-002    0.57966655492782593     
   7.4700000000000016E-002    0.21043774485588074     
   7.5800000000000006E-002   -0.13391597568988800     
   7.6900000000000024E-002   -0.48269313573837280     
   7.8000000000000014E-002   -0.80009371042251587     
   7.9100000000000004E-002    -1.0371925830841064     
   8.0200000000000021E-002    -1.2121030092239380     
   8.1300000000000011E-002    -1.3888837099075317     
   8.2400000000000029E-002    -1.5777635574340820     
   8.3500000000000019E-002    -1.7140089273452759     
   8.4600000000000009E-002    -1.7540135383605957     
   8.5700000000000026E-002    -1.7506873607635498     
   8.6800000000000016E-002    -1.7809946537017822     
   8.7900000000000006E-002    -1.8286648988723755     
   8.9000000000000024E-002    -1.8105610609054565     
   9.0100000000000013E-002    -1.7084728479385376     
   9.1200000000000003E-002    -1.6106461286544800     
   9.2300000000000021E-002    -1.5769814252853394     
   9.3400000000000011E-002    -1.5490752458572388     
   9.4500000000000028E-002    -1.4344296455383301     
   9.5600000000000018E-002    -1.2590570449829102     
   9.6700000000000008E-002    -1.1343822479248047     
   9.7800000000000026E-002    -1.0968083143234253     
   9.8900000000000016E-002    -1.0475023984909058     
  0.10000000000000001        -0.90616089105606079     
  0.10110000000000002        -0.73218333721160889     
  0.10220000000000001        -0.63948804140090942     
  0.10330000000000003        -0.62102347612380981     
  0.10440000000000002        -0.56298094987869263     
  0.10550000000000001        -0.42282471060752869     
  0.10660000000000003        -0.29988816380500793     
  0.10770000000000002        -0.27795436978340149     
  0.10880000000000001        -0.29101917147636414     
  0.10990000000000003        -0.22013238072395325     
  0.11100000000000002         -8.4086552262306213E-002
  0.11210000000000001         -1.7406284809112549E-002
  0.11320000000000002         -6.4030006527900696E-002
  0.11430000000000001        -0.10405944287776947     
  0.11540000000000003         -3.0472360551357269E-002
  0.11650000000000002          8.6336813867092133E-002
  0.11760000000000001         0.10422250628471375     
  0.11870000000000003          2.5681404396891594E-002
  0.11980000000000002         -5.6148683652281761E-003
  0.12090000000000001          7.4517287313938141E-002
  0.12200000000000003         0.15191611647605896     
  0.12310000000000001         0.11324544250965118     
  0.12420000000000003          2.3801101371645927E-002
  0.12530000000000002          2.8712181374430656E-002
  0.12640000000000001         0.12571582198143005     
  0.12750000000000003         0.16502402722835541     
  0.12860000000000002          8.0057658255100250E-002
  0.12970000000000001         -6.0759661719202995E-003
  0.13080000000000003          3.3532813191413879E-002
  0.13190000000000002         0.13459615409374237     
  0.13300000000000001         0.13889916241168976     
  0.13410000000000000          3.6623854190111160E-002
  0.13520000000000004         -1.9992884248495102E-002
  0.13630000000000003          4.8402283340692520E-002
  0.13740000000000002         0.12716136872768402     
  0.13850000000000001          8.6544930934906006E-002
  0.13960000000000000         -1.5896975994110107E-002
  0.14070000000000005         -2.4661125615239143E-002
  0.14180000000000004          7.1603439748287201E-002
  0.14290000000000003         0.12014255672693253     
  0.14400000000000002          3.9478607475757599E-002
  0.14510000000000001         -5.3210936486721039E-002
  0.14620000000000000         -2.0760374143719673E-002
  0.14730000000000004          8.3561621606349945E-002
  0.14840000000000003          9.8176240921020508E-002
  0.14950000000000002          8.5166294593364000E-004
  0.15060000000000001         -6.0525856912136078E-002
  0.15170000000000000          3.4913148265331984E-003
  0.15280000000000005          8.7901324033737183E-002
  0.15390000000000004          5.8469191193580627E-002
  0.15500000000000003         -4.0063891559839249E-002
  0.15610000000000002         -5.4510764777660370E-002
  0.15720000000000001          3.7903014570474625E-002
  0.15830000000000000          9.3552671372890472E-002
  0.15940000000000004          2.3839408531785011E-002
  0.16050000000000003         -6.7867696285247803E-002
  0.16160000000000002         -4.4283930212259293E-002
  0.16270000000000001          5.7034093886613846E-002
  0.16380000000000000          8.2715004682540894E-002
  0.16490000000000005         -2.6443223468959332E-003
  0.16600000000000004         -6.7276351153850555E-002
  0.16710000000000003         -1.6897877678275108E-002
  0.16820000000000002          6.4356930553913116E-002
  0.16930000000000001          4.9578525125980377E-002
  0.17040000000000000         -3.4809611737728119E-002
  0.17150000000000004         -5.4602563381195068E-002
  0.17260000000000003          2.1168459206819534E-002
  0.17370000000000002          7.3081247508525848E-002
  0.17480000000000001          1.8204512074589729E-002
  0.17590000000000000         -6.0795836150646210E-002
  0.17700000000000005         -4.3069757521152496E-002
  0.17810000000000004          4.4839188456535339E-002
  0.17920000000000003          7.0174366235733032E-002
  0.18030000000000002         -3.7263897247612476E-003
  0.18140000000000001         -6.4380936324596405E-002
  0.18250000000000000         -2.3395314812660217E-002
  0.18360000000000004          5.2587717771530151E-002
  0.18470000000000003          4.8706680536270142E-002
  0.18580000000000002         -2.3939516395330429E-002
  0.18690000000000001         -5.1601719111204147E-002
  0.18800000000000000          4.9080448225140572E-003
  0.18910000000000005          5.4499644786119461E-002
  0.19020000000000004          2.0435320213437080E-002
  0.19130000000000003         -4.2727835476398468E-002
  0.19240000000000002         -3.7025492638349533E-002
  0.19350000000000001          2.7564998716115952E-002
  0.19460000000000005          5.1584493368864059E-002
  0.19570000000000004         -7.6961361628491431E-005
  0.19680000000000003         -4.7257352620363235E-002
  0.19790000000000002         -2.0085316151380539E-002
  0.19900000000000001          3.6682717502117157E-002
  0.20010000000000000          3.6469694226980209E-002
  0.20120000000000005         -1.6721041873097420E-002
  0.20230000000000004         -3.9350695908069611E-002
  0.20340000000000003          1.2373423669487238E-003
  0.20450000000000002          3.9933908730745316E-002
  0.20560000000000000          1.7354801297187805E-002
  0.20670000000000005         -3.0113669112324715E-002
  0.20780000000000004         -2.9592856764793396E-002
  0.20890000000000003          1.6686949878931046E-002
