 -0.12000000000000000          0.0000000000000000     
 -0.11889999999999999          0.0000000000000000     
 -0.11780000000000000          1.0369223673478700E-005
 -0.11670000000000000         -9.4180077212513424E-006
 -0.11559999999999999         -4.4106258428655565E-005
 -0.11449999999999999          2.5041714252438396E-005
 -0.11340000000000000          1.3560515071731061E-004
 -0.11230000000000000         -5.9877825151488651E-006
 -0.11119999999999999         -3.1868467340245843E-004
 -0.11009999999999999         -1.6310009232256562E-004
 -0.10900000000000000          5.4384500253945589E-004
 -0.10790000000000000          6.4357678638771176E-004
 -0.10679999999999999         -5.6265015155076981E-004
 -0.10569999999999999         -1.4497148804366589E-003
 -0.10460000000000000         -1.1580851605685893E-005
 -0.10349999999999999          2.2621047683060169E-003
 -0.10239999999999999          1.4494907809421420E-003
 -0.10130000000000000         -2.4414847139269114E-003
 -0.10020000000000000         -3.6634716670960188E-003
  -9.9099999999999994E-002     1.1403649114072323E-003
  -9.7999999999999990E-002     5.9094540774822235E-003
  -9.6899999999999986E-002     2.3854020982980728E-003
  -9.5799999999999996E-002    -6.3208546489477158E-003
  -9.4699999999999993E-002    -7.4455630965530872E-003
  -9.3599999999999989E-002     2.8940381016582251E-003
  -9.2499999999999999E-002     1.1079347692430019E-002
  -9.1399999999999995E-002     3.9647230878472328E-003
  -9.0299999999999991E-002    -1.0187011212110519E-002
  -8.9200000000000002E-002    -1.1011867783963680E-002
  -8.8099999999999984E-002     4.1860733181238174E-003
  -8.6999999999999994E-002     1.4264178462326527E-002
  -8.5899999999999990E-002     4.2274426668882370E-003
  -8.4799999999999986E-002    -1.1689512990415096E-002
  -8.3699999999999997E-002    -1.0282986797392368E-002
  -8.2599999999999993E-002     5.6535019539296627E-003
  -8.1499999999999989E-002     1.1434715241193771E-002
  -8.0399999999999999E-002    -1.0991469025611877E-003
  -7.9299999999999995E-002    -1.0591466911137104E-002
  -7.8199999999999992E-002    -7.1697920793667436E-004
  -7.7100000000000002E-002     1.1873128823935986E-002
  -7.5999999999999984E-002     3.5232696682214737E-003
  -7.4899999999999994E-002    -1.5237486921250820E-002
  -7.3799999999999991E-002    -1.2106244452297688E-002
  -7.2699999999999987E-002     1.4273018576204777E-002
  -7.1599999999999997E-002     2.4917222559452057E-002
  -7.0499999999999993E-002    -2.1826156880706549E-003
  -6.9399999999999989E-002    -3.2283563166856766E-002
  -6.8300000000000000E-002    -1.9563751295208931E-002
  -6.7199999999999996E-002     2.2849829867482185E-002
  -6.6099999999999992E-002     3.6044482141733170E-002
  -6.5000000000000002E-002    -3.0299738864414394E-004
  -6.3899999999999985E-002    -3.5871081054210663E-002
  -6.2799999999999995E-002    -2.1454026922583580E-002
  -6.1699999999999991E-002     1.9722733646631241E-002
  -6.0599999999999994E-002     2.8048392385244370E-002
  -5.9499999999999990E-002    -3.5357458982616663E-003
  -5.8399999999999994E-002    -2.2936077788472176E-002
  -5.7299999999999990E-002    -2.7458250988274813E-003
  -5.6199999999999986E-002     1.8089616671204567E-002
  -5.5099999999999996E-002     6.9214543327689171E-004
  -5.3999999999999992E-002    -2.6354467496275902E-002
  -5.2899999999999989E-002    -1.1126417666673660E-002
  -5.1799999999999985E-002     3.1890094280242920E-002
  -5.0699999999999995E-002     3.4332312643527985E-002
  -4.9599999999999991E-002    -1.9476860761642456E-002
  -4.8499999999999988E-002    -5.6341424584388733E-002
  -4.7399999999999998E-002    -1.7134223133325577E-002
  -4.6299999999999994E-002     4.9396459013223648E-002
  -4.5199999999999990E-002     5.0037946552038193E-002
  -4.4099999999999986E-002    -1.7613936215639114E-002
  -4.2999999999999997E-002    -5.9314455837011337E-002
  -4.1899999999999993E-002    -2.0194383338093758E-002
  -4.0799999999999989E-002     3.8199320435523987E-002
  -3.9699999999999985E-002     3.3530056476593018E-002
  -3.8599999999999995E-002    -1.6449688002467155E-002
  -3.7499999999999992E-002    -2.9755858704447746E-002
  -3.6399999999999988E-002     8.9344112202525139E-003
  -3.5299999999999984E-002     2.8705157339572906E-002
  -3.4199999999999994E-002    -8.5916612297296524E-003
  -3.3099999999999991E-002    -4.1624635457992554E-002
  -3.1999999999999987E-002    -6.1229774728417397E-003
  -3.0899999999999997E-002     5.3422886878252029E-002
  -2.9799999999999993E-002     4.2360551655292511E-002
  -2.8699999999999989E-002    -3.4020487219095230E-002
  -2.7599999999999986E-002    -6.8056449294090271E-002
  -2.6499999999999996E-002    -5.1590567454695702E-003
  -2.5399999999999992E-002     6.8778760731220245E-002
  -2.4299999999999988E-002     4.9656711518764496E-002
  -2.3199999999999985E-002    -3.0730595812201500E-002
  -2.2099999999999995E-002    -5.5607344955205917E-002
  -2.0999999999999991E-002     4.4485097751021385E-003
  -1.9899999999999987E-002     5.2373699843883514E-002
  -1.8799999999999983E-002     1.9500426948070526E-002
  -1.7699999999999994E-002    -3.4334775060415268E-002
  -1.6599999999999990E-002    -1.7268816009163857E-002
  -1.5499999999999986E-002     4.1407596319913864E-002
  -1.4399999999999996E-002     4.1422348469495773E-002
  -1.3299999999999992E-002    -2.3886905983090401E-002
  -1.2199999999999989E-002    -5.4040580987930298E-002
  -1.1099999999999985E-002     3.6403285339474678E-003
  -9.9999999999999950E-003     6.9064207375049591E-002
  -8.8999999999999913E-003     4.1661594063043594E-002
  -7.7999999999999875E-003    -4.0621548891067505E-002
  -6.6999999999999837E-003    -6.0975831001996994E-002
  -5.5999999999999939E-003     8.8250301778316498E-003
  -4.4999999999999901E-003     5.9766683727502823E-002
  -3.3999999999999864E-003     2.2944515570998192E-002
  -2.2999999999999826E-003    -4.2098753154277802E-002
  -1.1999999999999927E-003    -3.6130961030721664E-002
  -9.9999999999988987E-005     2.3653469979763031E-002
   1.0000000000000148E-003     3.4507479518651962E-002
   2.1000000000000185E-003    -2.0075505599379539E-002
   3.2000000000000084E-003    -5.2177838981151581E-002
   4.3000000000000121E-003    -7.4697467498481274E-003
   5.4000000000000159E-003     4.4338896870613098E-002
   6.5000000000000058E-003     1.9162554293870926E-002
   7.6000000000000234E-003    -4.9773432314395905E-002
   8.7000000000000133E-003    -5.8756399899721146E-002
   9.8000000000000032E-003     4.6035978011786938E-003
   1.0900000000000021E-002     4.5092489570379257E-002
   1.2000000000000011E-002     5.7446309365332127E-003
   1.3100000000000001E-002    -5.2982237190008163E-002
   1.4200000000000018E-002    -4.3029233813285828E-002
   1.5300000000000008E-002     1.6219181939959526E-002
   1.6400000000000026E-002     3.1738515943288803E-002
   1.7500000000000016E-002    -1.5779051929712296E-002
   1.8600000000000005E-002    -4.7168228775262833E-002
   1.9700000000000023E-002    -1.2621560133993626E-002
   2.0800000000000013E-002     3.2059378921985626E-002
   2.1900000000000003E-002     1.8167424947023392E-002
   2.3000000000000020E-002    -3.1121013686060905E-002
   2.4100000000000010E-002    -3.5885352641344070E-002
   2.5200000000000000E-002     1.3730950653553009E-002
   2.6300000000000018E-002     4.2524714022874832E-002
   2.7400000000000008E-002     8.8965455070137978E-003
   2.8500000000000025E-002    -3.2412998378276825E-002
   2.9600000000000015E-002    -1.8295966088771820E-002
   3.0700000000000005E-002     3.0440613627433777E-002
   3.1800000000000023E-002     4.0279235690832138E-002
   3.2900000000000013E-002     1.2619486078619957E-003
   3.4000000000000002E-002    -2.5353820994496346E-002
   3.5100000000000020E-002     6.8524398375302553E-004
   3.6200000000000010E-002     3.5962466150522232E-002
   3.7300000000000028E-002     2.8034236282110214E-002
   3.8400000000000017E-002    -6.2696994282305241E-003
   3.9500000000000007E-002    -1.0095312260091305E-002
   4.0600000000000025E-002     1.6245292499661446E-002
   4.1700000000000015E-002     2.6948686689138412E-002
   4.2800000000000005E-002     5.8158389292657375E-003
   4.3900000000000022E-002    -1.2328928336501122E-002
   4.5000000000000012E-002     4.9675269983708858E-003
   4.6100000000000002E-002     2.3539328947663307E-002
   4.7200000000000020E-002     1.3271184638142586E-002
   4.8300000000000010E-002    -1.1523076333105564E-002
   4.9400000000000027E-002    -9.8810549825429916E-003
   5.0500000000000017E-002     1.0989333502948284E-002
   5.1600000000000007E-002     1.4870292507112026E-002
   5.2700000000000025E-002    -5.1666302606463432E-003
   5.3800000000000014E-002    -1.6472613438963890E-002
   5.4900000000000004E-002    -3.3657698077149689E-004
   5.6000000000000022E-002     1.1785054579377174E-002
   5.7100000000000012E-002    -3.6293035373091698E-003
   5.8200000000000002E-002    -1.9540540874004364E-002
   5.9300000000000019E-002    -7.9602878540754318E-003
   6.0400000000000009E-002     1.5335039235651493E-002
   6.1500000000000027E-002     9.2086838558316231E-003
   6.2600000000000017E-002    -2.1231047809123993E-002
   6.3700000000000007E-002    -2.9515450820326805E-002
   6.4800000000000024E-002    -5.5552745470777154E-004
   6.5900000000000014E-002     2.3656239733099937E-002
   6.7000000000000004E-002     3.4946247469633818E-003
   6.8100000000000022E-002    -2.8616974130272865E-002
   6.9200000000000012E-002    -2.0402496680617332E-002
   7.0300000000000029E-002     1.7429150640964508E-002
   7.1400000000000019E-002     2.2843303158879280E-002
   7.2500000000000009E-002    -1.5615050680935383E-002
   7.3600000000000027E-002    -3.7016827613115311E-002
   7.4700000000000016E-002    -2.6753155980259180E-003
   7.5800000000000006E-002     3.7650246173143387E-002
   7.6900000000000024E-002     1.9456503912806511E-002
   7.8000000000000014E-002    -3.1663868576288223E-002
   7.9100000000000004E-002    -3.6944426596164703E-002
   8.0200000000000021E-002     1.5580676496028900E-002
   8.1300000000000011E-002     4.3584231287240982E-002
   8.2400000000000029E-002     2.5811861269176006E-003
   8.3500000000000019E-002    -4.1796538978815079E-002
   8.4600000000000009E-002    -1.6594776883721352E-002
   8.5700000000000026E-002     4.0760572999715805E-002
   8.6800000000000016E-002     3.6774963140487671E-002
   8.7900000000000006E-002    -2.9037507250905037E-002
   8.9000000000000024E-002    -5.4777860641479492E-002
   9.0100000000000013E-002     6.3005462288856506E-003
   9.1200000000000003E-002     6.6737718880176544E-002
   9.2300000000000021E-002     3.1735591590404510E-002
   9.3400000000000011E-002    -5.1036018878221512E-002
   9.4500000000000028E-002    -5.8918301016092300E-002
   9.5600000000000018E-002     2.0652949810028076E-002
   9.6700000000000008E-002     6.7449718713760376E-002
   9.7800000000000026E-002     1.3384929858148098E-002
   9.8900000000000016E-002    -5.5025056004524231E-002
  0.10000000000000001         -3.2099939882755280E-002
  0.10110000000000002          4.2087301611900330E-002
  0.10220000000000001          4.5679114758968353E-002
  0.10330000000000003         -2.9297346249222755E-002
  0.10440000000000002         -6.1287466436624527E-002
  0.10550000000000001          8.6217150092124939E-003
  0.10660000000000003          7.4998624622821808E-002
  0.10770000000000002          2.8180403634905815E-002
  0.10880000000000001         -6.8290643393993378E-002
  0.10990000000000003         -6.7943647503852844E-002
  0.11100000000000002          3.4286547452211380E-002
  0.11210000000000001          8.7828919291496277E-002
  0.11320000000000002          1.1792263947427273E-002
  0.11430000000000001         -7.9413056373596191E-002
  0.11540000000000003         -4.9099020659923553E-002
  0.11650000000000002          5.3485896438360214E-002
  0.11760000000000001          6.9218672811985016E-002
  0.11870000000000003         -2.3818572983145714E-002
  0.11980000000000002         -7.8451432287693024E-002
  0.12090000000000001         -7.8449705615639687E-003
  0.12200000000000003          7.7707968652248383E-002
  0.12310000000000001          4.2640998959541321E-002
  0.12420000000000003         -6.1692483723163605E-002
  0.12530000000000002         -7.3825523257255554E-002
  0.12640000000000001          2.7190929278731346E-002
  0.12750000000000003          8.7033353745937347E-002
  0.12860000000000002          1.3986168429255486E-002
  0.12970000000000001         -7.8803569078445435E-002
  0.13080000000000003         -4.8433426767587662E-002
  0.13190000000000002          5.6647833436727524E-002
  0.13300000000000001          7.1660056710243225E-002
  0.13410000000000000         -2.7593296021223068E-002
  0.13520000000000004         -8.5852861404418945E-002
  0.13630000000000003         -8.9614074677228928E-003
  0.13740000000000002          8.6349137127399445E-002
  0.13850000000000001          5.1283583045005798E-002
  0.13960000000000000         -6.4446285367012024E-002
  0.14070000000000005         -8.5701495409011841E-002
  0.14180000000000004          2.0867779850959778E-002
  0.14290000000000003          9.5136433839797974E-002
  0.14400000000000002          2.7312761172652245E-002
  0.14510000000000001         -7.6960220932960510E-002
  0.14620000000000000         -6.1093546450138092E-002
  0.14730000000000004          4.4356245547533035E-002
  0.14840000000000003          7.4881814420223236E-002
  0.14950000000000002         -1.2402947060763836E-002
  0.15060000000000001         -7.6374091207981110E-002
  0.15170000000000000         -1.5903200954198837E-002
  0.15280000000000005          7.2378180921077728E-002
  0.15390000000000004          4.6758189797401428E-002
  0.15500000000000003         -5.6233819574117661E-002
  0.15610000000000002         -7.6671294867992401E-002
  0.15720000000000001          2.0651591941714287E-002
  0.15830000000000000          8.9452974498271942E-002
  0.15940000000000004          2.5209216400980949E-002
  0.16050000000000003         -7.5177095830440521E-002
  0.16160000000000002         -6.1564970761537552E-002
  0.16270000000000001          4.1604783385992050E-002
  0.16380000000000000          7.6966166496276855E-002
  0.16490000000000005         -4.6590389683842659E-003
  0.16600000000000004         -7.4038669466972351E-002
  0.16710000000000003         -2.6161113753914833E-002
  0.16820000000000002          6.0452532023191452E-002
  0.16930000000000001          5.0344455987215042E-002
  0.17040000000000000         -3.8910597562789917E-002
  0.17150000000000004         -6.7424394190311432E-002
  0.17260000000000003          8.7872501462697983E-003
  0.17370000000000002          7.1480609476566315E-002
  0.17480000000000001          2.4571396410465240E-002
  0.17590000000000000         -5.8827411383390427E-002
  0.17700000000000005         -5.1541626453399658E-002
  0.17810000000000004          3.2946549355983734E-002
  0.17920000000000003          6.4635835587978363E-002
  0.18030000000000002         -1.9467137753963470E-003
  0.18140000000000001         -6.2067102640867233E-002
  0.18250000000000000         -2.5171648710966110E-002
  0.18360000000000004          4.8194196075201035E-002
  0.18470000000000003          4.4389683753252029E-002
  0.18580000000000002         -2.7933590114116669E-002
  0.18690000000000001         -5.5555116385221481E-002
  0.18800000000000000          2.9486143030226231E-003
  0.18910000000000005          5.6151233613491058E-002
  0.19020000000000004          2.3292906582355499E-002
  0.19130000000000003         -4.3296538293361664E-002
  0.19240000000000002         -4.2408760637044907E-002
  0.19350000000000001          2.1370489150285721E-002
  0.19460000000000005          4.9299731850624084E-002
  0.19570000000000004          1.7279337625950575E-003
  0.19680000000000003         -4.5371986925601959E-002
  0.19790000000000002         -2.1053509786725044E-002
  0.19900000000000001          3.3696122467517853E-002
  0.20010000000000000          3.4276254475116730E-002
  0.20120000000000005         -1.7238080501556396E-002
  0.20230000000000004         -3.9931382983922958E-002
  0.20340000000000003         -9.7740511409938335E-004
  0.20450000000000002          3.7253014743328094E-002
  0.20560000000000000          1.6899224370718002E-002
  0.20670000000000005         -2.8037598356604576E-002
  0.20780000000000004         -2.8150158002972603E-002
  0.20890000000000003          1.4493507333099842E-002
