 -0.12000000000000000          0.0000000000000000     
 -0.11889999999999999          0.0000000000000000     
 -0.11780000000000000        -0.13998451828956604     
 -0.11670000000000000          5.2324008196592331E-002
 -0.11559999999999999         0.56046336889266968     
 -0.11449999999999999          9.9298387765884399E-002
 -0.11340000000000000         -1.1527036428451538     
 -0.11230000000000000        -0.55342328548431396     
 -0.11119999999999999          1.6516824960708618     
 -0.11009999999999999         0.39463508129119873     
 -0.10900000000000000         -4.3418312072753906     
 -0.10790000000000000         -2.0974111557006836     
 -0.10679999999999999          11.097187995910645     
 -0.10569999999999999          16.248786926269531     
 -0.10460000000000000         -6.1147117614746094     
 -0.10349999999999999         -35.920646667480469     
 -0.10239999999999999         -27.007143020629883     
 -0.10130000000000000          23.177305221557617     
 -0.10020000000000000          51.184871673583984     
  -9.9099999999999994E-002     11.960813522338867     
  -9.7999999999999990E-002    -41.176033020019531     
  -9.6899999999999986E-002    -21.417053222656250     
  -9.5799999999999996E-002     52.184089660644531     
  -9.4699999999999993E-002     60.060813903808594     
  -9.3599999999999989E-002    -39.851024627685547     
  -9.2499999999999999E-002    -121.23004913330078     
  -9.1399999999999995E-002    -59.311496734619141     
  -9.0299999999999991E-002     63.293205261230469     
  -8.9200000000000002E-002     46.400871276855469     
  -8.8099999999999984E-002    -131.76812744140625     
  -8.6999999999999994E-002    -251.61811828613281     
  -8.5899999999999990E-002    -156.15888977050781     
  -8.4799999999999986E-002     7.4944500923156738     
  -8.3699999999999997E-002    -11.778038978576660     
  -8.2599999999999993E-002    -203.33766174316406     
  -8.1499999999999989E-002    -316.56805419921875     
  -8.0399999999999999E-002    -248.55525207519531     
  -7.9299999999999995E-002    -199.40997314453125     
  -7.8199999999999992E-002    -342.73721313476562     
  -7.7100000000000002E-002    -533.17413330078125     
  -7.5999999999999984E-002    -544.72576904296875     
  -7.4899999999999994E-002    -482.41613769531250     
  -7.3799999999999991E-002    -672.41094970703125     
  -7.2699999999999987E-002    -1133.3594970703125     
  -7.1599999999999997E-002    -1465.3105468750000     
  -7.0499999999999993E-002    -1426.3978271484375     
  -6.9399999999999989E-002    -1365.6451416015625     
  -6.8300000000000000E-002    -1785.9776611328125     
  -6.7199999999999996E-002    -2607.5161132812500     
  -6.6099999999999992E-002    -3242.5493164062500     
  -6.5000000000000002E-002    -3441.0322265625000     
  -6.3899999999999985E-002    -3677.5771484375000     
  -6.2799999999999995E-002    -4480.4423828125000     
  -6.1699999999999991E-002    -5683.8081054687500     
  -6.0599999999999994E-002    -6721.7797851562500     
  -5.9499999999999990E-002    -7509.2973632812500     
  -5.8399999999999994E-002    -8558.7490234375000     
  -5.7299999999999990E-002    -10166.132812500000     
  -5.6199999999999986E-002    -11959.616210937500     
  -5.5099999999999996E-002    -13540.286132812500     
  -5.3999999999999992E-002    -15197.737304687500     
  -5.2899999999999989E-002    -17512.914062500000     
  -5.1799999999999985E-002    -20418.539062500000     
  -5.0699999999999995E-002    -23236.123046875000     
  -4.9599999999999991E-002    -25736.785156250000     
  -4.8499999999999988E-002    -28607.240234375000     
  -4.7399999999999998E-002    -32494.314453125000     
  -4.6299999999999994E-002    -37001.765625000000     
  -4.5199999999999990E-002    -41207.859375000000     
  -4.4099999999999986E-002    -45017.882812500000     
  -4.2999999999999997E-002    -49331.082031250000     
  -4.1899999999999993E-002    -54721.378906250000     
  -4.0799999999999989E-002    -60584.609375000000     
  -3.9699999999999985E-002    -66014.625000000000     
  -3.8599999999999995E-002    -71088.835937500000     
  -3.7499999999999992E-002    -76621.781250000000     
  -3.6399999999999988E-002    -82816.210937500000     
  -3.5299999999999984E-002    -88902.796875000000     
  -3.4199999999999994E-002    -94295.257812500000     
  -3.3099999999999991E-002    -99408.226562500000     
  -3.1999999999999987E-002    -104821.14062500000     
  -3.0899999999999997E-002    -110096.62500000000     
  -2.9799999999999993E-002    -114199.82031250000     
  -2.8699999999999989E-002    -116946.10937500000     
  -2.7599999999999986E-002    -119200.73437500000     
  -2.6499999999999996E-002    -121379.38281250000     
  -2.5399999999999992E-002    -122519.14062500000     
  -2.4299999999999988E-002    -121373.71875000000     
  -2.3199999999999985E-002    -117999.42187500000     
  -2.2099999999999995E-002    -113432.90625000000     
  -2.0999999999999991E-002    -107962.85156250000     
  -1.9899999999999987E-002    -100531.46093750000     
  -1.8799999999999983E-002    -90119.554687500000     
  -1.7699999999999994E-002    -77038.085937500000     
  -1.6599999999999990E-002    -62176.894531250000     
  -1.5499999999999986E-002    -45428.269531250000     
  -1.4399999999999996E-002    -25831.291015625000     
  -1.3299999999999992E-002    -3107.0285644531250     
  -1.2199999999999989E-002     21832.255859375000     
  -1.1099999999999985E-002     48249.242187500000     
  -9.9999999999999950E-003     76714.914062500000     
  -8.8999999999999913E-003     108072.95312500000     
  -7.7999999999999875E-003     141878.65625000000     
  -6.6999999999999837E-003     176626.84375000000     
  -5.5999999999999939E-003     211534.01562500000     
  -4.4999999999999901E-003     247220.93750000000     
  -3.3999999999999864E-003     284177.18750000000     
  -2.2999999999999826E-003     321475.78125000000     
  -1.1999999999999927E-003     357524.65625000000     
  -9.9999999999988987E-005     391731.25000000000     
   1.0000000000000148E-003     424440.40625000000     
   2.1000000000000185E-003     455498.84375000000     
   3.2000000000000084E-003     483618.53125000000     
   4.3000000000000121E-003     507489.68750000000     
   5.4000000000000159E-003     527057.31250000000     
   6.5000000000000058E-003     542681.37500000000     
   7.6000000000000234E-003     553820.31250000000     
   8.7000000000000133E-003     558996.37500000000     
   9.8000000000000032E-003     557379.18750000000     
   1.0900000000000021E-002     549480.93750000000     
   1.2000000000000011E-002     535915.37500000000     
   1.3100000000000001E-002     516216.09375000000     
   1.4200000000000018E-002     489390.84375000000     
   1.5300000000000008E-002     455357.00000000000     
   1.6400000000000026E-002     415124.96875000000     
   1.7500000000000016E-002     369453.50000000000     
   1.8600000000000005E-002     318129.28125000000     
   1.9700000000000023E-002     260977.95312500000     
   2.0800000000000013E-002     198925.87500000000     
   2.1900000000000003E-002     133482.06250000000     
   2.3000000000000020E-002     65429.781250000000     
   2.4100000000000010E-002    -5217.1557617187500     
   2.5200000000000000E-002    -78007.937500000000     
   2.6300000000000018E-002    -151410.43750000000     
   2.7400000000000008E-002    -223734.34375000000     
   2.8500000000000025E-002    -294210.18750000000     
   2.9600000000000015E-002    -362660.78125000000     
   3.0700000000000005E-002    -428274.31250000000     
   3.1800000000000023E-002    -489584.34375000000     
   3.2900000000000013E-002    -545466.06250000000     
   3.4000000000000002E-002    -595491.06250000000     
   3.5100000000000020E-002    -639486.43750000000     
   3.6200000000000010E-002    -676668.25000000000     
   3.7300000000000028E-002    -706012.25000000000     
   3.8400000000000017E-002    -727191.56250000000     
   3.9500000000000007E-002    -740583.68750000000     
   4.0600000000000025E-002    -746396.25000000000     
   4.1700000000000015E-002    -744218.12500000000     
   4.2800000000000005E-002    -733741.87500000000     
   4.3900000000000022E-002    -715414.43750000000     
   4.5000000000000012E-002    -690054.06250000000     
   4.6100000000000002E-002    -658227.81250000000     
   4.7200000000000020E-002    -620226.81250000000     
   4.8300000000000010E-002    -576627.43750000000     
   4.9400000000000027E-002    -528328.62500000000     
   5.0500000000000017E-002    -476204.00000000000     
   5.1600000000000007E-002    -420831.40625000000     
   5.2700000000000025E-002    -362935.06250000000     
   5.3800000000000014E-002    -303574.40625000000     
   5.4900000000000004E-002    -243762.67187500000     
   5.6000000000000022E-002    -184188.92187500000     
   5.7100000000000012E-002    -125303.84375000000     
   5.8200000000000002E-002    -67886.507812500000     
   5.9300000000000019E-002    -12807.978515625000     
   6.0400000000000009E-002     39332.574218750000     
   6.1500000000000027E-002     88197.265625000000     
   6.2600000000000017E-002     133432.15625000000     
   6.3700000000000007E-002     174480.28125000000     
   6.4800000000000024E-002     210955.45312500000     
   6.5900000000000014E-002     242905.29687500000     
   6.7000000000000004E-002     270427.03125000000     
   6.8100000000000022E-002     293327.90625000000     
   6.9200000000000012E-002     311344.43750000000     
   7.0300000000000029E-002     324687.31250000000     
   7.1400000000000019E-002     333892.18750000000     
   7.2500000000000009E-002     339190.71875000000     
   7.3600000000000027E-002     340416.18750000000     
   7.4700000000000016E-002     337684.59375000000     
   7.5800000000000006E-002     331784.09375000000     
   7.6900000000000024E-002     323510.03125000000     
   7.8000000000000014E-002     312908.78125000000     
   7.9100000000000004E-002     299666.78125000000     
   8.0200000000000021E-002     284115.53125000000     
   8.1300000000000011E-002     267334.75000000000     
   8.2400000000000029E-002     250071.73437500000     
   8.3500000000000019E-002     232142.37500000000     
   8.4600000000000009E-002     213227.39062500000     
   8.5700000000000026E-002     193818.67187500000     
   8.6800000000000016E-002     174857.15625000000     
   8.7900000000000006E-002     156582.32812500000     
   8.9000000000000024E-002     138484.89062500000     
   9.0100000000000013E-002     120508.42187500000     
   9.1200000000000003E-002     103503.26562500000     
   9.2300000000000021E-002     88156.937500000000     
   9.3400000000000011E-002     74002.593750000000     
   9.4500000000000028E-002     60114.886718750000     
   9.5600000000000018E-002     46625.429687500000     
   9.6700000000000008E-002     34726.316406250000     
   9.7800000000000026E-002     24934.533203125000     
   9.8900000000000016E-002     16329.212890625000     
  0.10000000000000001          7854.3476562500000     
  0.10110000000000002         -129.50666809082031     
  0.10220000000000001         -6525.5605468750000     
  0.10330000000000003         -11248.310546875000     
  0.10440000000000002         -15423.175781250000     
  0.10550000000000001         -19647.220703125000     
  0.10660000000000003         -23114.664062500000     
  0.10770000000000002         -25008.337890625000     
  0.10880000000000001         -25978.408203125000     
  0.10990000000000003         -27332.966796875000     
  0.11100000000000002         -29055.972656250000     
  0.11210000000000001         -29815.828125000000     
  0.11320000000000002         -29050.386718750000     
  0.11430000000000001         -27964.960937500000     
  0.11540000000000003         -27830.617187500000     
  0.11650000000000002         -28150.720703125000     
  0.11760000000000001         -27470.880859375000     
  0.11870000000000003         -25665.517578125000     
  0.11980000000000002         -24141.445312500000     
  0.12090000000000001         -23687.062500000000     
  0.12200000000000003         -23293.570312500000     
  0.12310000000000001         -21778.712890625000     
  0.12420000000000003         -19705.736328125000     
  0.12530000000000002         -18560.642578125000     
  0.12640000000000001         -18438.531250000000     
  0.12750000000000003         -17855.478515625000     
  0.12860000000000002         -16023.105468750000     
  0.12970000000000001         -14109.731445312500     
  0.13080000000000003         -13490.317382812500     
  0.13190000000000002         -13647.423828125000     
  0.13300000000000001         -12963.800781250000     
  0.13410000000000000         -11204.456054687500     
  0.13520000000000004         -9863.2890625000000     
  0.13630000000000003         -9842.6982421875000     
  0.13740000000000002         -10053.742187500000     
  0.13850000000000001         -9105.1455078125000     
  0.13960000000000000         -7477.3574218750000     
  0.14070000000000005         -6796.6235351562500     
  0.14180000000000004         -7317.6240234375000     
  0.14290000000000003         -7501.9277343750000     
  0.14400000000000002         -6364.4604492187500     
  0.14510000000000001         -4978.5419921875000     
  0.14620000000000000         -4829.1503906250000     
  0.14730000000000004         -5548.9531250000000     
  0.14840000000000003         -5513.5229492187500     
  0.14950000000000002         -4341.8984375000000     
  0.15060000000000001         -3449.9045410156250     
  0.15170000000000000         -3824.1093750000000     
  0.15280000000000005         -4484.8935546875000     
  0.15390000000000004         -4023.4941406250000     
  0.15500000000000003         -2810.1982421875000     
  0.15610000000000002         -2434.1730957031250     
  0.15720000000000001         -3244.0388183593750     
  0.15830000000000000         -3783.4289550781250     
  0.15940000000000004         -3004.7932128906250     
  0.16050000000000003         -1862.2684326171875     
  0.16160000000000002         -1855.7062988281250     
  0.16270000000000001         -2765.3427734375000     
  0.16380000000000000         -3030.2497558593750     
  0.16490000000000005         -2135.2687988281250     
  0.16600000000000004         -1343.7979736328125     
  0.16710000000000003         -1703.6550292968750     
  0.16820000000000002         -2457.8791503906250     
  0.16930000000000001         -2267.0930175781250     
  0.17040000000000000         -1299.7379150390625     
  0.17150000000000004         -950.51788330078125     
  0.17260000000000003         -1658.3225097656250     
  0.17370000000000002         -2225.0622558593750     
  0.17480000000000001         -1666.4105224609375     
  0.17590000000000000         -724.28472900390625     
  0.17700000000000005         -723.19647216796875     
  0.17810000000000004         -1552.4821777343750     
  0.17920000000000003         -1863.7115478515625     
  0.18030000000000002         -1135.1057128906250     
  0.18140000000000001         -428.57669067382812     
  0.18250000000000000         -734.34100341796875     
  0.18360000000000004         -1479.2222900390625     
  0.18470000000000003         -1455.7009277343750     
  0.18580000000000002         -675.21228027343750     
  0.18690000000000001         -305.51547241210938     
  0.18800000000000000         -853.88311767578125     
  0.18910000000000005         -1420.9046630859375     
  0.19020000000000004         -1112.7492675781250     
  0.19130000000000003         -395.72750854492188     
  0.19240000000000002         -334.33084106445312     
  0.19350000000000001         -954.37200927734375     
  0.19460000000000005         -1248.0147705078125     
  0.19570000000000004         -745.91693115234375     
  0.19680000000000003         -212.63851928710938     
  0.19790000000000002         -437.30072021484375     
  0.19900000000000001         -1028.1868896484375     
  0.20010000000000000         -1042.7883300781250     
  0.20120000000000005         -432.28121948242188     
  0.20230000000000004         -87.050308227539062     
  0.20340000000000003         -470.75857543945312     
  0.20450000000000002         -952.26116943359375     
  0.20560000000000000         -797.27764892578125     
  0.20670000000000005         -254.54370117187500     
  0.20780000000000004         -114.85411834716797     
  0.20890000000000003         -503.08441162109375     
