 -0.12000000000000000          0.0000000000000000     
 -0.11889999999999999          0.0000000000000000     
 -0.11780000000000000          0.0000000000000000     
 -0.11670000000000000          0.0000000000000000     
 -0.11559999999999999          0.0000000000000000     
 -0.11449999999999999          0.0000000000000000     
 -0.11340000000000000          2.0533333888023789E-018
 -0.11230000000000000          1.2251536454669638E-018
 -0.11119999999999999         -2.0092491702876410E-017
 -0.11009999999999999         -2.0840848620498034E-017
 -0.10900000000000000          7.5648082385363036E-017
 -0.10790000000000000          7.0868831329378655E-017
 -0.10679999999999999         -1.9141102311286910E-016
 -0.10569999999999999          2.9956344560118917E-016
 -0.10460000000000000          1.6836023906320499E-015
 -0.10349999999999999         -1.5620693622061740E-015
 -0.10239999999999999         -1.2462664262396801E-014
 -0.10130000000000000         -9.2464352689260176E-015
 -0.10020000000000000          3.8092155840198372E-014
  -9.9099999999999994E-002     8.5302147019138824E-014
  -9.7999999999999990E-002     2.5351685523409368E-015
  -9.6899999999999986E-002    -2.2073827683245784E-013
  -9.5799999999999996E-002    -3.0220303256361936E-013
  -9.4699999999999993E-002     2.5191022431556541E-014
  -9.3599999999999989E-002     5.1166102604804919E-013
  -9.2499999999999999E-002     6.7821551326396889E-013
  -9.1399999999999995E-002     6.5971349477028651E-013
  -9.0299999999999991E-002     6.6506386986117660E-013
  -8.9200000000000002E-002    -8.1036831975703216E-013
  -8.8099999999999984E-002    -5.5713268200252575E-012
  -8.6999999999999994E-002    -9.6427718240810201E-012
  -8.5899999999999990E-002    -2.2771179473274339E-012
  -8.4799999999999986E-002     2.0021815802517828E-011
  -8.3699999999999997E-002     3.7833257360286865E-011
  -8.2599999999999993E-002     2.1393288182625092E-011
  -8.1499999999999989E-002    -3.0387987265401151E-011
  -8.0399999999999999E-002    -7.6609704691144032E-011
  -7.9299999999999995E-002    -7.8853382157184626E-011
  -7.8199999999999992E-002    -4.3702128721401223E-011
  -7.7100000000000002E-002     1.4185408923894638E-011
  -7.5999999999999984E-002     1.3021589362338659E-010
  -7.4899999999999994E-002     3.1957378410218951E-010
  -7.3799999999999991E-002     4.1642717052425837E-010
  -7.2699999999999987E-002     1.2392888104617583E-010
  -7.1599999999999997E-002    -5.9405425023584257E-010
  -7.0499999999999993E-002    -1.2226473167231688E-009
  -6.9399999999999989E-002    -1.0753077317460225E-009
  -6.8300000000000000E-002    -8.2700214731890043E-011
  -6.7199999999999996E-002     1.0535944339196135E-009
  -6.6099999999999992E-002     1.7162943288795418E-009
  -6.5000000000000002E-002     2.0552701762710512E-009
  -6.3899999999999985E-002     2.2871231575294360E-009
  -6.2799999999999995E-002     1.5559258326192094E-009
  -6.1699999999999991E-002    -1.4017540461708222E-009
  -6.0599999999999994E-002    -5.8784364043162896E-009
  -5.9499999999999990E-002    -8.5155473783515845E-009
  -5.8399999999999994E-002    -6.4707701419308705E-009
  -5.7299999999999990E-002    -9.9477270865122591E-010
  -5.6199999999999986E-002     3.9836289822403614E-009
  -5.5099999999999996E-002     7.2912831328153516E-009
  -5.3999999999999992E-002     1.2107840952069182E-008
  -5.2899999999999989E-002     1.9839548670574914E-008
  -5.1799999999999985E-002     2.4082014604687174E-008
  -5.0699999999999995E-002     1.5000697572986610E-008
  -4.9599999999999991E-002    -8.9684117909882843E-009
  -4.8499999999999988E-002    -3.7253382600965779E-008
  -4.7399999999999998E-002    -5.7518079188412230E-008
  -4.6299999999999994E-002    -6.6478058613483881E-008
  -4.5199999999999990E-002    -6.5362499412913166E-008
  -4.4099999999999986E-002    -4.6994674818279236E-008
  -4.2999999999999997E-002     2.8166984300526110E-009
  -4.1899999999999993E-002     8.5035765096108662E-008
  -4.0799999999999989E-002     1.7364031634770072E-007
  -3.9699999999999985E-002     2.3028056261864549E-007
  -3.8599999999999995E-002     2.3204454180358880E-007
  -3.7499999999999992E-002     1.7786938144581654E-007
  -3.6399999999999988E-002     6.9101467659038462E-008
  -3.5299999999999984E-002    -1.0199842392921710E-007
  -3.4199999999999994E-002    -3.3289853718088125E-007
  -3.3099999999999991E-002    -5.8454173768041073E-007
  -3.1999999999999987E-002    -7.8551374826929532E-007
  -3.0899999999999997E-002    -8.6215317196547403E-007
  -2.9799999999999993E-002    -7.5639587748810300E-007
  -2.8699999999999989E-002    -4.2018925228148873E-007
  -2.7599999999999986E-002     1.8087703779201547E-007
  -2.6499999999999996E-002     1.0371294365540962E-006
  -2.5399999999999992E-002     2.0757752281497233E-006
  -2.4299999999999988E-002     3.1938652682583779E-006
  -2.3199999999999985E-002     4.3135414671269245E-006
  -2.2099999999999995E-002     5.3915787248115521E-006
  -2.0999999999999991E-002     6.3823940763541032E-006
  -1.9899999999999987E-002     7.2358184297627304E-006
  -1.8799999999999983E-002     7.9719520726939663E-006
  -1.7699999999999994E-002     8.7519356384291314E-006
  -1.6599999999999990E-002     9.8392356449039653E-006
  -1.5499999999999986E-002     1.1480509783723392E-005
  -1.4399999999999996E-002     1.3847251466359012E-005
  -1.3299999999999992E-002     1.7095821021939628E-005
  -1.2199999999999989E-002     2.1431511413538828E-005
  -1.1099999999999985E-002     2.7055990358348936E-005
  -9.9999999999999950E-003     3.4060634789057076E-005
  -8.8999999999999913E-003     4.2434628994669765E-005
  -7.7999999999999875E-003     5.2215196774341166E-005
  -6.6999999999999837E-003     6.3611412770114839E-005
  -5.5999999999999939E-003     7.6968222856521606E-005
  -4.4999999999999901E-003     9.2658461653627455E-005
  -3.3999999999999864E-003     1.1107413592981175E-004
  -2.2999999999999826E-003     1.3271521311253309E-004
  -1.1999999999999927E-003     1.5822703426238149E-004
  -9.9999999999988987E-005     1.8832905334420502E-004
   1.0000000000000148E-003     2.2375005937647074E-004
   2.1000000000000185E-003     2.6526147848926485E-004
   3.2000000000000084E-003     3.1372052035294473E-004
   4.3000000000000121E-003     3.7000310840085149E-004
   5.4000000000000159E-003     4.3492010445334017E-004
   6.5000000000000058E-003     5.0930050201714039E-004
   7.6000000000000234E-003     5.9418583987280726E-004
   8.7000000000000133E-003     6.9086428266018629E-004
   9.8000000000000032E-003     8.0065143993124366E-004
   1.0900000000000021E-002     9.2468975344672799E-004
   1.2000000000000011E-002     1.0640475666150451E-003
   1.3100000000000001E-002     1.2200103374198079E-003
   1.4200000000000018E-002     1.3941599754616618E-003
   1.5300000000000008E-002     1.5880833379924297E-003
   1.6400000000000026E-002     1.8030285136774182E-003
   1.7500000000000016E-002     2.0398946944624186E-003
   1.8600000000000005E-002     2.2994545288383961E-003
   1.9700000000000023E-002     2.5823800824582577E-003
   2.0800000000000013E-002     2.8890243265777826E-003
   2.1900000000000003E-002     3.2192799262702465E-003
   2.3000000000000020E-002     3.5726223140954971E-003
   2.4100000000000010E-002     3.9483099244534969E-003
   2.5200000000000000E-002     4.3453113175928593E-003
   2.6300000000000018E-002     4.7618774697184563E-003
   2.7400000000000008E-002     5.1955734379589558E-003
   2.8500000000000025E-002     5.6434236466884613E-003
   2.9600000000000015E-002     6.1017661355435848E-003
   3.0700000000000005E-002     6.5658055245876312E-003
   3.1800000000000023E-002     7.0296167396008968E-003
   3.2900000000000013E-002     7.4862632900476456E-003
   3.4000000000000002E-002     7.9279784113168716E-003
   3.5100000000000020E-002     8.3463024348020554E-003
   3.6200000000000010E-002     8.7316883727908134E-003
   3.7300000000000028E-002     9.0737864375114441E-003
   3.8400000000000017E-002     9.3617243692278862E-003
   3.9500000000000007E-002     9.5839425921440125E-003
   4.0600000000000025E-002     9.7283050417900085E-003
   4.1700000000000015E-002     9.7822714596986771E-003
   4.2800000000000005E-002     9.7329467535018921E-003
   4.3900000000000022E-002     9.5669543370604515E-003
   4.5000000000000012E-002     9.2711523175239563E-003
   4.6100000000000002E-002     8.8334204629063606E-003
   4.7200000000000020E-002     8.2420939579606056E-003
   4.8300000000000010E-002     7.4860942550003529E-003
   4.9400000000000027E-002     6.5560932271182537E-003
   5.0500000000000017E-002     5.4457294754683971E-003
   5.1600000000000007E-002     4.1508390568196774E-003
   5.2700000000000025E-002     2.6675737462937832E-003
   5.3800000000000014E-002     9.9484575912356377E-004
   5.4900000000000004E-002    -8.6293776985257864E-004
   5.6000000000000022E-002    -2.8979221824556589E-003
   5.7100000000000012E-002    -5.1008751615881920E-003
   5.8200000000000002E-002    -7.4594919569790363E-003
   5.9300000000000019E-002    -9.9559761583805084E-003
   6.0400000000000009E-002    -1.2567122466862202E-002
   6.1500000000000027E-002    -1.5267345122992992E-002
   6.2600000000000017E-002    -1.8029566854238510E-002
   6.3700000000000007E-002    -2.0822726190090179E-002
   6.4800000000000024E-002    -2.3609207943081856E-002
   6.5900000000000014E-002    -2.6347581297159195E-002
   6.7000000000000004E-002    -2.8998890891671181E-002
   6.8100000000000022E-002    -3.1524896621704102E-002
   6.9200000000000012E-002    -3.3882908523082733E-002
   7.0300000000000029E-002    -3.6025453358888626E-002
   7.1400000000000019E-002    -3.7905775010585785E-002
   7.2500000000000009E-002    -3.9483316242694855E-002
   7.3600000000000027E-002    -4.0723174810409546E-002
   7.4700000000000016E-002    -4.1590634733438492E-002
   7.5800000000000006E-002    -4.2051210999488831E-002
   7.6900000000000024E-002    -4.2074318975210190E-002
   7.8000000000000014E-002    -4.1635673493146896E-002
   7.9100000000000004E-002    -4.0719281882047653E-002
   8.0200000000000021E-002    -3.9317909628152847E-002
   8.1300000000000011E-002    -3.7431739270687103E-002
   8.2400000000000029E-002    -3.5066742449998856E-002
   8.3500000000000019E-002    -3.2234083861112595E-002
   8.4600000000000009E-002    -2.8950093314051628E-002
   8.5700000000000026E-002    -2.5241058319807053E-002
   8.6800000000000016E-002    -2.1146627143025398E-002
   8.7900000000000006E-002    -1.6717080026865005E-002
   8.9000000000000024E-002    -1.2004963122308254E-002
   9.0100000000000013E-002    -7.0600332692265511E-003
   9.1200000000000003E-002    -1.9345160108059645E-003
   9.2300000000000021E-002     3.3082014415413141E-003
   9.3400000000000011E-002     8.5931243374943733E-003
   9.4500000000000028E-002     1.3844620436429977E-002
   9.5600000000000018E-002     1.8995646387338638E-002
   9.6700000000000008E-002     2.3983830586075783E-002
   9.7800000000000026E-002     2.8745852410793304E-002
   9.8900000000000016E-002     3.3217899501323700E-002
  0.10000000000000001          3.7338260561227798E-002
  0.10110000000000002          4.1049703955650330E-002
  0.10220000000000001          4.4301744550466537E-002
  0.10330000000000003          4.7055810689926147E-002
  0.10440000000000002          4.9286745488643646E-002
  0.10550000000000001          5.0976980477571487E-002
  0.10660000000000003          5.2107363939285278E-002
  0.10770000000000002          5.2661776542663574E-002
  0.10880000000000001          5.2639525383710861E-002
  0.10990000000000003          5.2057795226573944E-002
  0.11100000000000002          5.0945032387971878E-002
  0.11210000000000001          4.9329783767461777E-002
  0.11320000000000002          4.7240879386663437E-002
  0.11430000000000001          4.4712059199810028E-002
  0.11540000000000003          4.1787542402744293E-002
  0.11650000000000002          3.8523040711879730E-002
  0.11760000000000001          3.4976962953805923E-002
  0.11870000000000003          3.1207509338855743E-002
  0.11980000000000002          2.7271999046206474E-002
  0.12090000000000001          2.3222075775265694E-002
  0.12200000000000003          1.9108286127448082E-002
  0.12310000000000001          1.4986438676714897E-002
  0.12420000000000003          1.0916019789874554E-002
  0.12530000000000002          6.9547281600534916E-003
  0.12640000000000001          3.1473233830183744E-003
  0.12750000000000003         -4.7650965279899538E-004
  0.12860000000000002         -3.8908580318093300E-003
  0.12970000000000001         -7.0629422552883625E-003
  0.13080000000000003         -9.9560962989926338E-003
  0.13190000000000002         -1.2544374912977219E-002
  0.13300000000000001         -1.4820814132690430E-002
  0.13410000000000000         -1.6788840293884277E-002
  0.13520000000000004         -1.8449109047651291E-002
  0.13630000000000003         -1.9797090440988541E-002
  0.13740000000000002         -2.0832886919379234E-002
  0.13850000000000001         -2.1568370983004570E-002
  0.13960000000000000         -2.2022310644388199E-002
  0.14070000000000005         -2.2213045507669449E-002
  0.14180000000000004         -2.2159198299050331E-002
  0.14290000000000003         -2.1883832290768623E-002
  0.14400000000000002         -2.1412657573819160E-002
  0.14510000000000001         -2.0767305046319962E-002
  0.14620000000000000         -1.9965920597314835E-002
  0.14730000000000004         -1.9031947478652000E-002
  0.14840000000000003         -1.7997134476900101E-002
  0.14950000000000002         -1.6890933737158775E-002
  0.15060000000000001         -1.5729855746030807E-002
  0.15170000000000000         -1.4524184167385101E-002
  0.15280000000000005         -1.3292855583131313E-002
  0.15390000000000004         -1.2064200825989246E-002
  0.15500000000000003         -1.0859582573175430E-002
  0.15610000000000002         -9.6834413707256317E-003
  0.15720000000000001         -8.5355453193187714E-003
  0.15830000000000000         -7.4282609857618809E-003
  0.15940000000000004         -6.3841501250863075E-003
  0.16050000000000003         -5.4160198196768761E-003
  0.16160000000000002         -4.5170071534812450E-003
  0.16270000000000001         -3.6763066891580820E-003
  0.16380000000000000         -2.8977440670132637E-003
  0.16490000000000005         -2.1951363887637854E-003
  0.16600000000000004         -1.5733591280877590E-003
  0.16710000000000003         -1.0231609921902418E-003
  0.16820000000000002         -5.3488113917410374E-004
  0.16930000000000001         -1.0851489059859887E-004
  0.17040000000000000          2.5466791703365743E-004
  0.17150000000000004          5.6259543634951115E-004
  0.17260000000000003          8.2468491746112704E-004
  0.17370000000000002          1.0392543626949191E-003
  0.17480000000000001          1.1991120409220457E-003
  0.17590000000000000          1.3103665551170707E-003
  0.17700000000000005          1.3948724372312427E-003
  0.17810000000000004          1.4673243276774883E-003
  0.17920000000000003          1.5185525408014655E-003
  0.18030000000000002          1.5312663745135069E-003
  0.18140000000000001          1.5081255696713924E-003
  0.18250000000000000          1.4727987581863999E-003
  0.18360000000000004          1.4422858366742730E-003
  0.18470000000000003          1.4093581121414900E-003
  0.18580000000000002          1.3586811255663633E-003
  0.18690000000000001          1.2918837601318955E-003
  0.18800000000000000          1.2251354055479169E-003
  0.18910000000000005          1.1660549789667130E-003
  0.19020000000000004          1.1063312413170934E-003
  0.19130000000000003          1.0396115249022841E-003
  0.19240000000000002          9.7466498846188188E-004
  0.19350000000000001          9.2222599778324366E-004
  0.19460000000000005          8.7736954446882010E-004
  0.19570000000000004          8.2697003381326795E-004
  0.19680000000000003          7.7170744771137834E-004
  0.19790000000000002          7.2726688813418150E-004
  0.19900000000000001          7.0114241680130363E-004
  0.20010000000000000          6.8064243532717228E-004
  0.20120000000000005          6.5213959896937013E-004
  0.20230000000000004          6.2259967671707273E-004
  0.20340000000000003          6.0924747958779335E-004
  0.20450000000000002          6.1221543001011014E-004
  0.20560000000000000          6.1200751224532723E-004
  0.20670000000000005          5.9755623806267977E-004
  0.20780000000000004          5.8353319764137268E-004
  0.20890000000000003          5.8974715648218989E-004
