 -0.12000000000000000          0.0000000000000000     
 -0.11889999999999999          0.0000000000000000     
 -0.11780000000000000          0.0000000000000000     
 -0.11670000000000000          0.0000000000000000     
 -0.11559999999999999          0.0000000000000000     
 -0.11449999999999999          0.0000000000000000     
 -0.11340000000000000          0.0000000000000000     
 -0.11230000000000000          0.0000000000000000     
 -0.11119999999999999          0.0000000000000000     
 -0.11009999999999999          0.0000000000000000     
 -0.10900000000000000          8.9070157697128113E-028
 -0.10790000000000000         -2.0270081404725223E-027
 -0.10679999999999999         -1.4855779263315518E-026
 -0.10569999999999999          3.1235539187904878E-026
 -0.10460000000000000          1.4590648043451394E-025
 -0.10349999999999999         -2.4132093255422548E-025
 -0.10239999999999999         -1.0752427559728193E-024
 -0.10130000000000000          1.1442728183450892E-024
 -0.10020000000000000          6.2736068586787073E-024
  -9.9099999999999994E-002    -3.0681626698238103E-024
  -9.7999999999999990E-002    -2.9395895046545943E-023
  -9.6899999999999986E-002    -1.9081519161821906E-026
  -9.5799999999999996E-002     1.1322049780448947E-022
  -9.4699999999999993E-002     4.6618634495467645E-023
  -9.3599999999999989E-002    -3.7613607402083404E-022
  -9.2499999999999999E-002    -3.0327438170327365E-022
  -9.1399999999999995E-002     1.1327311545795643E-021
  -9.0299999999999991E-002     1.4758451072110633E-021
  -8.9200000000000002E-002    -2.9997418147519283E-021
  -8.8099999999999984E-002    -6.3280980915054527E-021
  -8.6999999999999994E-002     5.5913293700361079E-021
  -8.5899999999999990E-002     2.2743406874740789E-020
  -8.4799999999999986E-002    -2.1914374193487145E-022
  -8.3699999999999997E-002    -6.2687578991950031E-020
  -8.2599999999999993E-002    -4.5903896955141567E-020
  -8.1499999999999989E-002     1.2108046209291888E-019
  -8.0399999999999999E-002     1.9439558650911632E-019
  -7.9299999999999995E-002    -1.3725851221201928E-019
  -7.8199999999999992E-002    -5.0191897853039894E-019
  -7.7100000000000002E-002    -1.1496922951305402E-021
  -7.5999999999999984E-002     1.0375815493789798E-018
  -7.4899999999999994E-002     4.8259676320419620E-019
  -7.3799999999999991E-002    -2.0785245539722220E-018
  -7.2699999999999987E-002    -2.1767894748404589E-018
  -7.1599999999999997E-002     3.6678284374912880E-018
  -7.0499999999999993E-002     7.7374689565169472E-018
  -6.9399999999999989E-002    -2.5631440322680518E-018
  -6.8300000000000000E-002    -1.9364074801100989E-017
  -6.7199999999999996E-002    -1.0981114626397674E-017
  -6.6099999999999992E-002     2.9396615924150415E-017
  -6.5000000000000002E-002     4.4981479523147706E-017
  -6.3899999999999985E-002    -1.6910377517221666E-017
  -6.2799999999999995E-002    -8.8182998716979306E-017
  -6.1699999999999991E-002    -2.9741553548307478E-017
  -6.0599999999999994E-002     1.2524258274859647E-016
  -5.9499999999999990E-002     1.1031113889395686E-016
  -5.8399999999999994E-002    -1.7424783273067162E-016
  -5.7299999999999990E-002    -3.0451085916698313E-016
  -5.6199999999999986E-002     1.6932133029076300E-016
  -5.5099999999999996E-002     7.5855294437530019E-016
  -5.3999999999999992E-002     2.9014237458491242E-016
  -5.2899999999999989E-002    -1.2040643225438028E-015
  -5.1799999999999985E-002    -1.6138944378092180E-015
  -5.0699999999999995E-002     6.1466491652637043E-016
  -4.9599999999999991E-002     3.1298784314211800E-015
  -4.8499999999999988E-002     1.6469144290711508E-015
  -4.7399999999999998E-002    -3.2455973198179840E-015
  -4.6299999999999994E-002    -4.5194836269951428E-015
  -4.5199999999999990E-002     1.6772940068782551E-015
  -4.4099999999999986E-002     7.1988940551987249E-015
  -4.2999999999999997E-002     1.0315623570663203E-015
  -4.1899999999999993E-002    -1.1110614178363488E-014
  -4.0799999999999989E-002    -8.2798580207268761E-015
  -3.9699999999999985E-002     1.4091343448542105E-014
  -3.8599999999999995E-002     2.5391157682267892E-014
  -3.7499999999999992E-002    -3.5325089783931705E-015
  -3.6399999999999988E-002    -4.5411045664902824E-014
  -3.5299999999999984E-002    -3.3796231736554425E-014
  -3.4199999999999994E-002     4.0724490294775928E-014
  -3.3099999999999991E-002     8.5846192893028472E-014
  -3.1999999999999987E-002     1.6196750565094023E-014
  -3.0899999999999997E-002    -1.0267839096328446E-013
  -2.9799999999999993E-002    -1.0366223667217928E-013
  -2.8699999999999989E-002     4.6600225712739238E-014
  -2.7599999999999986E-002     1.5057708769097844E-013
  -2.6499999999999996E-002     3.2273452844639589E-014
  -2.5399999999999992E-002    -1.6209513657543251E-013
  -2.4299999999999988E-002    -1.0544478024022627E-013
  -2.3199999999999985E-002     2.0885441813500716E-013
  -2.2099999999999995E-002     3.2543726827954922E-013
  -2.0999999999999991E-002    -8.2489414875586836E-014
  -1.9899999999999987E-002    -6.0883709098596972E-013
  -1.8799999999999983E-002    -4.8659177815518762E-013
  -1.7699999999999994E-002     3.3632214309527175E-013
  -1.6599999999999990E-002     9.0508254103199848E-013
  -1.5499999999999986E-002     4.2736314161996580E-013
  -1.4399999999999996E-002    -5.2974779510966963E-013
  -1.3299999999999992E-002    -6.4907362254049139E-013
  -1.2199999999999989E-002     2.6489452450116635E-013
  -1.1099999999999985E-002     7.7836890578775186E-013
  -9.9999999999999950E-003    -2.3357135453191957E-013
  -8.8999999999999913E-003    -1.6862489052651974E-012
  -7.7999999999999875E-003    -1.3721440433531185E-012
  -6.6999999999999837E-003     9.8081135227467975E-013
  -5.5999999999999939E-003     2.8647086872807259E-012
  -4.4999999999999901E-003     1.9655674657337308E-012
  -3.3999999999999864E-003    -7.8146023723205116E-013
  -2.2999999999999826E-003    -2.3183247856162215E-012
  -1.1999999999999927E-003    -1.4122470554100985E-012
  -9.9999999999988987E-005     1.4983065218818832E-015
   1.0000000000000148E-003    -7.8058565199708857E-014
   2.1000000000000185E-003    -7.2140096630743389E-013
   3.2000000000000084E-003     3.6310882143945900E-013
   4.3000000000000121E-003     2.9633615439977889E-012
   5.4000000000000159E-003     3.9725536228607528E-012
   6.5000000000000058E-003     1.2282124102480640E-012
   7.6000000000000234E-003    -3.7626637916510219E-012
   8.7000000000000133E-003    -7.6254402098241414E-012
   9.8000000000000032E-003    -8.1475624857940687E-012
   1.0900000000000021E-002    -4.4626173416328907E-012
   1.2000000000000011E-002     3.8663967860674830E-012
   1.3100000000000001E-002     1.5032711186968584E-011
   1.4200000000000018E-002     2.2654662867882536E-011
   1.5300000000000008E-002     1.9042373580746563E-011
   1.6400000000000026E-002     3.0378093703736786E-012
   1.7500000000000016E-002    -1.7528874185490650E-011
   1.8600000000000005E-002    -3.3151793810137775E-011
   1.9700000000000023E-002    -4.0381035321113146E-011
   2.0800000000000013E-002    -3.8790057971249681E-011
   2.1900000000000003E-002    -2.2884007189194477E-011
   2.3000000000000020E-002     1.4217608861055719E-011
   2.4100000000000010E-002     6.4735182492281496E-011
   2.5200000000000000E-002     9.9623073679389051E-011
   2.6300000000000018E-002     8.8672430509362243E-011
   2.7400000000000008E-002     2.9129938045047155E-011
   2.8500000000000025E-002    -4.8382482048525688E-011
   2.9600000000000015E-002    -1.0443199777165901E-010
   3.0700000000000005E-002    -1.1712553149578753E-010
   3.1800000000000023E-002    -8.4565042468565110E-011
   3.2900000000000013E-002    -1.3199657512841245E-011
   3.4000000000000002E-002     8.1750418934323221E-011
   3.5100000000000020E-002     1.6252577061948159E-010
   3.6200000000000010E-002     1.7009621489094684E-010
   3.7300000000000028E-002     6.2197601236047007E-011
   3.8400000000000017E-002    -1.4670265002791893E-010
   3.9500000000000007E-002    -3.7797520668902962E-010
   4.0600000000000025E-002    -5.2041060349949930E-010
   4.1700000000000015E-002    -5.0480430946464594E-010
   4.2800000000000005E-002    -2.9300331605419672E-010
   4.3900000000000022E-002     8.3881908363725444E-011
   4.5000000000000012E-002     4.8635956373388467E-010
   4.6100000000000002E-002     7.5815331790352047E-010
   4.7200000000000020E-002     7.1548189595205258E-010
   4.8300000000000010E-002     2.7755589493416721E-010
   4.9400000000000027E-002    -4.2934089616863957E-010
   5.0500000000000017E-002    -1.1853136250294938E-009
   5.1600000000000007E-002    -1.7473414937185794E-009
   5.2700000000000025E-002    -1.8424749503864746E-009
   5.3800000000000014E-002    -1.3342880134104007E-009
   5.4900000000000004E-002    -4.1506578729588739E-010
   5.6000000000000022E-002     5.4835308516132386E-010
   5.7100000000000012E-002     1.2489025369433193E-009
   5.8200000000000002E-002     1.2082075340202891E-009
   5.9300000000000019E-002     1.0442913200847670E-010
   6.0400000000000009E-002    -1.9994845779081061E-009
   6.1500000000000027E-002    -4.1799883554460848E-009
   6.2600000000000017E-002    -5.8071898401124145E-009
   6.3700000000000007E-002    -6.4956267031845982E-009
   6.4800000000000024E-002    -5.5470441573390872E-009
   6.5900000000000014E-002    -2.8219750980440494E-009
   6.7000000000000004E-002     8.5357235168892487E-011
   6.8100000000000022E-002     1.6800301150254882E-009
   6.9200000000000012E-002     9.4363583613699120E-010
   7.0300000000000029E-002    -2.3860546871645738E-009
   7.1400000000000019E-002    -6.5821055272863305E-009
   7.2500000000000009E-002    -1.1679800238084681E-008
   7.3600000000000027E-002    -1.5212576087719754E-008
   7.4700000000000016E-002    -1.6936205327056086E-008
   7.5800000000000006E-002    -1.7870357638116730E-008
   7.6900000000000024E-002    -1.6245897072053594E-008
   7.8000000000000014E-002    -1.0157467755789185E-008
   7.9100000000000004E-002    -2.6723583346210944E-009
   8.0200000000000021E-002     3.1192408656011139E-009
   8.1300000000000011E-002    -1.3395704545615672E-009
   8.2400000000000029E-002    -1.6970899352486413E-008
   8.3500000000000019E-002    -2.9823844727161486E-008
   8.4600000000000009E-002    -3.5229049899498932E-008
   8.5700000000000026E-002    -3.1052255877739299E-008
   8.6800000000000016E-002    -2.3306318652771552E-008
   8.7900000000000006E-002    -2.2142957689652576E-008
   8.9000000000000024E-002    -2.4957600430752791E-008
   9.0100000000000013E-002    -2.0401200728770164E-008
   9.1200000000000003E-002     9.6384095149559812E-011
   9.2300000000000021E-002     2.6779295225765054E-008
   9.3400000000000011E-002     1.6606437114319306E-008
   9.4500000000000028E-002    -3.0347141688480406E-008
   9.5600000000000018E-002    -5.9743491931385506E-008
   9.6700000000000008E-002    -5.1740279616296903E-008
   9.7800000000000026E-002    -2.2475427741142084E-008
   9.8900000000000016E-002     1.0370444947227497E-008
  0.10000000000000001          2.6449615830870243E-008
  0.10110000000000002          8.0101525412601404E-009
  0.10220000000000001          2.6752230652959952E-008
  0.10330000000000003          6.9915628841954458E-008
  0.10440000000000002          8.2461404815603601E-008
  0.10550000000000001          7.4587539700132766E-008
  0.10660000000000003          3.5872435688588666E-008
  0.10770000000000002         -3.7056434365467794E-008
  0.10880000000000001         -7.2716396459782118E-008
  0.10990000000000003          2.3153379213880498E-009
  0.11100000000000002          4.9952255665175471E-008
  0.11210000000000001          8.4875971140263573E-008
  0.11320000000000002          1.3346546268167003E-007
  0.11430000000000001          1.8490253239633603E-007
  0.11540000000000003          1.3321169944902067E-007
  0.11650000000000002         -6.5399755055928210E-011
  0.11760000000000001         -1.3986931612919307E-009
  0.11870000000000003          2.3547248417798983E-007
  0.11980000000000002          3.7328547364268161E-007
  0.12090000000000001          1.2784029479462333E-007
  0.12200000000000003         -1.6833688221140619E-008
  0.12310000000000001         -5.7265410191575938E-008
  0.12420000000000003         -2.4889704519637235E-008
  0.12530000000000002          1.0216680124131017E-007
  0.12640000000000001          1.2509696034612716E-007
  0.12750000000000003          1.3016759226047725E-007
  0.12860000000000002          2.4884133154046140E-007
  0.12970000000000001          1.7937527729827707E-007
  0.13080000000000003         -5.8327646712541537E-008
  0.13190000000000002         -2.3760716061360654E-008
  0.13300000000000001          1.0053079790850461E-007
  0.13410000000000000          8.6229619000732782E-008
  0.13520000000000004          1.6786891876563459E-007
  0.13630000000000003          7.4194439037000848E-008
  0.13740000000000002         -2.4077402827060723E-007
  0.13850000000000001          1.4527909542039197E-008
  0.13960000000000000          1.9792355487879831E-007
  0.14070000000000005          3.6751143284163845E-007
  0.14180000000000004          2.0454800164770859E-007
  0.14290000000000003         -4.8983480382958078E-007
  0.14400000000000002         -7.2594787070556777E-007
  0.14510000000000001         -6.9891837028990267E-007
  0.14620000000000000         -6.6139102727902355E-007
  0.14730000000000004         -4.5993849084879912E-007
  0.14840000000000003         -5.5118782427143742E-008
  0.14950000000000002          1.3018478739468264E-007
  0.15060000000000001         -1.3286346245422465E-007
  0.15170000000000000         -4.9347124786436325E-007
  0.15280000000000005         -6.7435479422783828E-007
  0.15390000000000004         -6.0691081671393476E-007
  0.15500000000000003         -2.3599356779868685E-007
  0.15610000000000002          5.9084126036168527E-008
  0.15720000000000001         -4.5551793448339595E-008
  0.15830000000000000         -2.6703747835199465E-007
  0.15940000000000004         -2.7788257739302935E-007
  0.16050000000000003          2.9987639038608904E-008
  0.16160000000000002          1.3828417877448373E-007
  0.16270000000000001          3.2643644232166480E-008
  0.16380000000000000          2.8110452632290617E-008
  0.16490000000000005          4.2366753660871836E-008
  0.16600000000000004          1.8612480801039055E-007
  0.16710000000000003          1.4712972529196122E-007
  0.16820000000000002         -6.2384833654505201E-007
  0.16930000000000001         -9.4635362302142312E-007
  0.17040000000000000          6.4933267651667848E-008
  0.17150000000000004          1.4325413530968945E-006
  0.17260000000000003          1.7704352330838447E-006
  0.17370000000000002          7.8217846066763741E-007
  0.17480000000000001         -7.5354427053753170E-007
  0.17590000000000000         -1.1497679679450812E-006
  0.17700000000000005         -4.1382472204531950E-007
  0.17810000000000004          7.6132756987590255E-008
  0.17920000000000003          3.2476171440976032E-007
  0.18030000000000002          7.3816984524910367E-008
  0.18140000000000001         -3.4939677107104217E-007
  0.18250000000000000         -9.4093287827945460E-008
  0.18360000000000004          4.1834047692645981E-007
  0.18470000000000003          7.6816689897896140E-007
  0.18580000000000002          8.8925912677950691E-007
  0.18690000000000001          4.2304230873924098E-007
  0.18800000000000000         -4.6277907017611142E-007
  0.18910000000000005         -1.1180770798091544E-006
  0.19020000000000004         -5.7660048469188041E-007
  0.19130000000000003          6.2693993641005363E-007
  0.19240000000000002          1.0451306025061058E-006
  0.19350000000000001          6.6083117644666345E-007
  0.19460000000000005         -1.9325995026520104E-007
  0.19570000000000004         -8.8235663042723900E-007
  0.19680000000000003         -7.0274211338983150E-007
  0.19790000000000002          7.6550703553834865E-009
  0.19900000000000001          3.9701208720543946E-007
  0.20010000000000000          1.0589174337383156E-007
  0.20120000000000005         -5.0693637376753031E-007
  0.20230000000000004         -6.9265462343537365E-007
  0.20340000000000003         -1.2114135472529597E-007
  0.20450000000000002          5.9749004321929533E-007
  0.20560000000000000          6.3160655372485053E-007
  0.20670000000000005         -2.2756137241231045E-007
  0.20780000000000004         -1.1849396059915307E-006
  0.20890000000000003         -1.2788090089088655E-006
