 -0.12000000000000000          0.0000000000000000     
 -0.11889999999999999          0.0000000000000000     
 -0.11780000000000000          0.0000000000000000     
 -0.11670000000000000          0.0000000000000000     
 -0.11559999999999999          0.0000000000000000     
 -0.11449999999999999          0.0000000000000000     
 -0.11340000000000000         -5.0400000145556234E-011
 -0.11230000000000000          6.1748765822766671E-011
 -0.11119999999999999          4.5327178122001044E-010
 -0.11009999999999999         -3.4988067998398265E-010
 -0.10900000000000000         -1.9119215100005249E-009
 -0.10790000000000000          1.7202715918429590E-009
 -0.10679999999999999          4.5018264671625730E-009
 -0.10569999999999999         -1.5300400946216541E-008
 -0.10460000000000000         -2.0413292389775961E-008
 -0.10349999999999999          8.7564586692678859E-008
 -0.10239999999999999          1.8019837000338157E-007
 -0.10130000000000000         -1.8741270935151988E-007
 -0.10020000000000000         -8.7553274852325558E-007
  -9.9099999999999994E-002    -4.2462735905246518E-007
  -9.7999999999999990E-002     1.9266879007773241E-006
  -9.6899999999999986E-002     3.2367897802032530E-006
  -9.5799999999999996E-002    -3.3880726846291509E-007
  -9.4699999999999993E-002    -5.8440009524929337E-006
  -9.3599999999999989E-002    -5.2812479225394782E-006
  -9.2499999999999999E-002    -1.9170458642747690E-007
  -9.1399999999999995E-002    -1.8451773939887062E-006
  -9.0299999999999991E-002    -2.6707368760980899E-006
  -8.9200000000000002E-002     2.8631568056880496E-005
  -8.8099999999999984E-002     7.8958320955280215E-005
  -8.6999999999999994E-002     4.2796647903742269E-005
  -8.5899999999999990E-002    -1.4914674102328718E-004
  -8.4799999999999986E-002    -3.2458410714752972E-004
  -8.3699999999999997E-002    -1.6476209566462785E-004
  -8.2599999999999993E-002     3.3557275310158730E-004
  -8.1499999999999989E-002     6.7431654315441847E-004
  -8.0399999999999999E-002     4.2978409328497946E-004
  -7.9299999999999995E-002    -8.2554186519701034E-005
  -7.8199999999999992E-002    -2.9874197207391262E-004
  -7.7100000000000002E-002    -5.4656708380207419E-004
  -7.5999999999999984E-002    -1.6551481094211340E-003
  -7.4899999999999994E-002    -2.7830677572637796E-003
  -7.3799999999999991E-002    -1.0521266376599669E-003
  -7.2699999999999987E-002     4.4935741461813450E-003
  -7.1599999999999997E-002     9.1465078294277191E-003
  -7.0499999999999993E-002     6.3053141348063946E-003
  -6.9399999999999989E-002    -3.4620435908436775E-003
  -6.8300000000000000E-002    -1.0884702205657959E-002
  -6.7199999999999996E-002    -9.4780465587973595E-003
  -6.6099999999999992E-002    -5.2102906629443169E-003
  -6.5000000000000002E-002    -7.1801720187067986E-003
  -6.3899999999999985E-002    -9.6179442480206490E-003
  -6.2799999999999995E-002     4.5374929904937744E-003
  -6.1699999999999991E-002     3.5034619271755219E-002
  -6.0599999999999994E-002     5.1643319427967072E-002
  -5.9499999999999990E-002     2.7876777574419975E-002
  -5.8399999999999994E-002    -1.7235612496733665E-002
  -5.7299999999999990E-002    -3.6459486931562424E-002
  -5.6199999999999986E-002    -2.1838961169123650E-002
  -5.5099999999999996E-002    -2.5898490101099014E-002
  -5.3999999999999992E-002    -8.5924811661243439E-002
  -5.2899999999999989E-002   -0.14581091701984406     
  -5.1799999999999985E-002   -0.10320695489645004     
  -5.0699999999999995E-002     5.5661968886852264E-002
  -4.9599999999999991E-002    0.21879270672798157     
  -4.8499999999999988E-002    0.28160589933395386     
  -4.7399999999999998E-002    0.27288931608200073     
  -4.6299999999999994E-002    0.27942329645156860     
  -4.5199999999999990E-002    0.26515939831733704     
  -4.4099999999999986E-002     6.9870404899120331E-002
  -4.2999999999999997E-002   -0.36275371909141541     
  -4.1899999999999993E-002   -0.83789908885955811     
  -4.0799999999999989E-002    -1.0859013795852661     
  -3.9699999999999985E-002    -1.0451507568359375     
  -3.8599999999999995E-002   -0.84874355792999268     
  -3.7499999999999992E-002   -0.52858650684356689     
  -3.6399999999999988E-002    0.10935086011886597     
  -3.5299999999999984E-002     1.2088134288787842     
  -3.4199999999999994E-002     2.5600662231445312     
  -3.3099999999999991E-002     3.7126417160034180     
  -3.1999999999999987E-002     4.3308091163635254     
  -3.0899999999999997E-002     4.2512469291687012     
  -2.9799999999999993E-002     3.1980204582214355     
  -2.8699999999999989E-002    0.71902227401733398     
  -2.7599999999999986E-002    -3.4011538028717041     
  -2.6499999999999996E-002    -8.8299131393432617     
  -2.5399999999999992E-002    -15.053022384643555     
  -2.4299999999999988E-002    -21.975673675537109     
  -2.3199999999999985E-002    -29.821718215942383     
  -2.2099999999999995E-002    -38.386634826660156     
  -2.0999999999999991E-002    -46.829559326171875     
  -1.9899999999999987E-002    -54.606517791748047     
  -1.8799999999999983E-002    -62.441089630126953     
  -1.7699999999999994E-002    -71.946304321289062     
  -1.6599999999999990E-002    -84.317474365234375     
  -1.5499999999999986E-002    -99.914436340332031     
  -1.4399999999999996E-002    -119.33052062988281     
  -1.3299999999999992E-002    -144.33207702636719     
  -1.2199999999999989E-002    -177.17974853515625     
  -1.1099999999999985E-002    -219.20895385742188     
  -9.9999999999999950E-003    -270.78601074218750     
  -8.8999999999999913E-003    -332.75033569335938     
  -7.7999999999999875E-003    -407.32446289062500     
  -6.6999999999999837E-003    -497.22140502929688     
  -5.5999999999999939E-003    -604.45318603515625     
  -4.4999999999999901E-003    -730.78454589843750     
  -3.3999999999999864E-003    -879.16925048828125     
  -2.2999999999999826E-003    -1053.8840332031250     
  -1.1999999999999927E-003    -1259.2722167968750     
  -9.9999999999988987E-005    -1499.2426757812500     
   1.0000000000000148E-003    -1778.5970458984375     
   2.1000000000000185E-003    -2104.0170898437500     
   3.2000000000000084E-003    -2482.9211425781250     
   4.3000000000000121E-003    -2921.5937500000000     
   5.4000000000000159E-003    -3425.7907714843750     
   6.5000000000000058E-003    -4003.3471679687500     
   7.6000000000000234E-003    -4665.0639648437500     
   8.7000000000000133E-003    -5421.6342773437500     
   9.8000000000000032E-003    -6280.9384765625000     
   1.0900000000000021E-002    -7249.3115234375000     
   1.2000000000000011E-002    -8335.0917968750000     
   1.3100000000000001E-002    -9550.0810546875000     
   1.4200000000000018E-002    -10906.402343750000     
   1.5300000000000008E-002    -12413.446289062500     
   1.6400000000000026E-002    -14078.001953125000     
   1.7500000000000016E-002    -15907.099609375000     
   1.8600000000000005E-002    -17907.894531250000     
   1.9700000000000023E-002    -20085.546875000000     
   2.0800000000000013E-002    -22441.996093750000     
   2.1900000000000003E-002    -24976.335937500000     
   2.3000000000000020E-002    -27685.501953125000     
   2.4100000000000010E-002    -30563.835937500000     
   2.5200000000000000E-002    -33598.382812500000     
   2.6300000000000018E-002    -36771.968750000000     
   2.7400000000000008E-002    -40065.511718750000     
   2.8500000000000025E-002    -43456.632812500000     
   2.9600000000000015E-002    -46914.214843750000     
   3.0700000000000005E-002    -50396.441406250000     
   3.1800000000000023E-002    -53857.195312500000     
   3.2900000000000013E-002    -57244.156250000000     
   3.4000000000000002E-002    -60496.535156250000     
   3.5100000000000020E-002    -63545.117187500000     
   3.6200000000000010E-002    -66317.257812500000     
   3.7300000000000028E-002    -68730.281250000000     
   3.8400000000000017E-002    -70698.398437500000     
   3.9500000000000007E-002    -72133.406250000000     
   4.0600000000000025E-002    -72933.585937500000     
   4.1700000000000015E-002    -73003.546875000000     
   4.2800000000000005E-002    -72244.804687500000     
   4.3900000000000022E-002    -70553.414062500000     
   4.5000000000000012E-002    -67833.828125000000     
   4.6100000000000002E-002    -63991.175781250000     
   4.7200000000000020E-002    -58935.664062500000     
   4.8300000000000010E-002    -52585.535156250000     
   4.9400000000000027E-002    -44873.750000000000     
   5.0500000000000017E-002    -35762.343750000000     
   5.1600000000000007E-002    -25200.957031250000     
   5.2700000000000025E-002    -13174.375976562500     
   5.3800000000000014E-002     302.74801635742188     
   5.4900000000000004E-002     15197.147460937500     
   5.6000000000000022E-002     31465.595703125000     
   5.7100000000000012E-002     49011.570312500000     
   5.8200000000000002E-002     67706.359375000000     
   5.9300000000000019E-002     87401.726562500000     
   6.0400000000000009E-002     107944.57812500000     
   6.1500000000000027E-002     129136.51562500000     
   6.2600000000000017E-002     150727.15625000000     
   6.3700000000000007E-002     172447.29687500000     
   6.4800000000000024E-002     193997.45312500000     
   6.5900000000000014E-002     215085.50000000000     
   6.7000000000000004E-002     235405.21875000000     
   6.8100000000000022E-002     254606.12500000000     
   6.9200000000000012E-002     272341.96875000000     
   7.0300000000000029E-002     288296.90625000000     
   7.1400000000000019E-002     302094.75000000000     
   7.2500000000000009E-002     313379.53125000000     
   7.3600000000000027E-002     321856.25000000000     
   7.4700000000000016E-002     327305.62500000000     
   7.5800000000000006E-002     329487.59375000000     
   7.6900000000000024E-002     328151.53125000000     
   7.8000000000000014E-002     323068.78125000000     
   7.9100000000000004E-002     314128.75000000000     
   8.0200000000000021E-002     301314.43750000000     
   8.1300000000000011E-002     284688.37500000000     
   8.2400000000000029E-002     264291.93750000000     
   8.3500000000000019E-002     240172.25000000000     
   8.4600000000000009E-002     212487.35937500000     
   8.5700000000000026E-002     181513.14062500000     
   8.6800000000000016E-002     147603.54687500000     
   8.7900000000000006E-002     111126.46093750000     
   8.9000000000000024E-002     72479.492187500000     
   9.0100000000000013E-002     32106.904296875000     
   9.1200000000000003E-002    -9488.5566406250000     
   9.2300000000000021E-002    -51802.554687500000     
   9.3400000000000011E-002    -94314.468750000000     
   9.4500000000000028E-002    -136430.32812500000     
   9.5600000000000018E-002    -177534.70312500000     
   9.6700000000000008E-002    -217032.70312500000     
   9.7800000000000026E-002    -254461.65625000000     
   9.8900000000000016E-002    -289439.31250000000     
  0.10000000000000001         -321479.34375000000     
  0.10110000000000002         -350028.87500000000     
  0.10220000000000001         -374645.87500000000     
  0.10330000000000003         -395077.71875000000     
  0.10440000000000002         -411190.75000000000     
  0.10550000000000001         -422852.40625000000     
  0.10660000000000003         -429894.06250000000     
  0.10770000000000002         -432211.81250000000     
  0.10880000000000001         -429849.12500000000     
  0.10990000000000003         -422951.12500000000     
  0.11100000000000002         -411725.37500000000     
  0.11210000000000001         -396384.43750000000     
  0.11320000000000002         -377273.65625000000     
  0.11430000000000001         -354814.75000000000     
  0.11540000000000003         -329314.12500000000     
  0.11650000000000002         -301040.37500000000     
  0.11760000000000001         -270479.96875000000     
  0.11870000000000003         -238283.28125000000     
  0.11980000000000002         -205046.75000000000     
  0.12090000000000001         -171111.53125000000     
  0.12200000000000003         -136757.12500000000     
  0.12310000000000001         -102430.10156250000     
  0.12420000000000003         -68724.085937500000     
  0.12530000000000002         -36163.195312500000     
  0.12640000000000001         -4995.0312500000000     
  0.12750000000000003          24564.060546875000     
  0.12860000000000002          52208.671875000000     
  0.12970000000000001          77601.828125000000     
  0.13080000000000003          100562.13281250000     
  0.13190000000000002          121078.72656250000     
  0.13300000000000001          139059.39062500000     
  0.13410000000000000          154317.25000000000     
  0.13520000000000004          166742.35937500000     
  0.13630000000000003          176511.26562500000     
  0.13740000000000002          183891.21875000000     
  0.13850000000000001          188955.26562500000     
  0.13960000000000000          191598.18750000000     
  0.14070000000000005          191872.70312500000     
  0.14180000000000004          190123.20312500000     
  0.14290000000000003          186741.26562500000     
  0.14400000000000002          181870.62500000000     
  0.14510000000000001          175511.53125000000     
  0.14620000000000000          167833.60937500000     
  0.14730000000000004          159207.06250000000     
  0.14840000000000003          149924.75000000000     
  0.14950000000000002          140046.51562500000     
  0.15060000000000001          129614.69531250000     
  0.15170000000000000          118906.60156250000     
  0.15280000000000005          108278.36718750000     
  0.15390000000000004          97852.476562500000     
  0.15500000000000003          87492.335937500000     
  0.15610000000000002          77190.562500000000     
  0.15720000000000001          67252.460937500000     
  0.15830000000000000          58010.148437500000     
  0.15940000000000004          49450.027343750000     
  0.16050000000000003          41327.234375000000     
  0.16160000000000002          33573.648437500000     
  0.16270000000000001          26424.763671875000     
  0.16380000000000000          20090.621093750000     
  0.16490000000000005          14460.008789062500     
  0.16600000000000004          9314.7919921875000     
  0.16710000000000003          4658.1665039062500     
  0.16820000000000002          671.74865722656250     
  0.16930000000000001         -2640.6716308593750     
  0.17040000000000000         -5537.7397460937500     
  0.17150000000000004         -8169.1186523437500     
  0.17260000000000003         -10366.919921875000     
  0.17370000000000002         -11908.411132812500     
  0.17480000000000001         -12931.918945312500     
  0.17590000000000000         -13822.849609375000     
  0.17700000000000005         -14725.486328125000     
  0.17810000000000004         -15376.442382812500     
  0.17920000000000003         -15522.341796875000     
  0.18030000000000002         -15318.287109375000     
  0.18140000000000001         -15125.894531250000     
  0.18250000000000000         -15034.216796875000     
  0.18360000000000004         -14803.740234375000     
  0.18470000000000003         -14289.051757812500     
  0.18580000000000002         -13678.088867187500     
  0.18690000000000001         -13193.740234375000     
  0.18800000000000000         -12745.777343750000     
  0.18910000000000005         -12100.320312500000     
  0.19020000000000004         -11294.192382812500     
  0.19130000000000003         -10628.985351562500     
  0.19240000000000002         -10226.465820312500     
  0.19350000000000001         -9819.0488281250000     
  0.19460000000000005         -9136.2783203125000     
  0.19570000000000004         -8317.0771484375000     
  0.19680000000000003         -7727.5815429687500     
  0.19790000000000002         -7430.8945312500000     
  0.19900000000000001         -7111.5229492187500     
  0.20010000000000000         -6545.0659179687500     
  0.20120000000000005         -5920.9912109375000     
  0.20230000000000004         -5534.2109375000000     
  0.20340000000000003         -5336.9096679687500     
  0.20450000000000002         -5026.1665039062500     
  0.20560000000000000         -4527.0986328125000     
  0.20670000000000005         -4108.9921875000000     
  0.20780000000000004         -3962.3422851562500     
  0.20890000000000003         -3890.0463867187500     
