 -0.12000000000000000          0.0000000000000000     
 -0.11889999999999999          0.0000000000000000     
 -0.11780000000000000        -0.13998456299304962     
 -0.11670000000000000          5.2324306219816208E-002
 -0.11559999999999999         0.56046313047409058     
 -0.11449999999999999          9.9298350512981415E-002
 -0.11340000000000000         -1.1527042388916016     
 -0.11230000000000000        -0.55342298746109009     
 -0.11119999999999999          1.6516834497451782     
 -0.11009999999999999         0.39463433623313904     
 -0.10900000000000000         -4.3418354988098145     
 -0.10790000000000000         -2.0974042415618896     
 -0.10679999999999999          11.097189903259277     
 -0.10569999999999999          16.248785018920898     
 -0.10460000000000000         -6.1147069931030273     
 -0.10349999999999999         -35.920669555664062     
 -0.10239999999999999         -27.007156372070312     
 -0.10130000000000000          23.177333831787109     
 -0.10020000000000000          51.184936523437500     
  -9.9099999999999994E-002     11.960785865783691     
  -9.7999999999999990E-002    -41.176074981689453     
  -9.6899999999999986E-002    -21.417133331298828     
  -9.5799999999999996E-002     52.184162139892578     
  -9.4699999999999993E-002     60.060848236083984     
  -9.3599999999999989E-002    -39.851093292236328     
  -9.2499999999999999E-002    -121.23009490966797     
  -9.1399999999999995E-002    -59.311450958251953     
  -9.0299999999999991E-002     63.293514251708984     
  -8.9200000000000002E-002     46.401126861572266     
  -8.8099999999999984E-002    -131.76895141601562     
  -8.6999999999999994E-002    -251.61845397949219     
  -8.5899999999999990E-002    -156.15942382812500     
  -8.4799999999999986E-002     7.4952926635742188     
  -8.3699999999999997E-002    -11.775815010070801     
  -8.2599999999999993E-002    -203.33683776855469     
  -8.1499999999999989E-002    -316.56985473632812     
  -8.0399999999999999E-002    -248.55838012695312     
  -7.9299999999999995E-002    -199.41072082519531     
  -7.8199999999999992E-002    -342.73220825195312     
  -7.7100000000000002E-002    -533.17266845703125     
  -7.5999999999999984E-002    -544.72729492187500     
  -7.4899999999999994E-002    -482.42001342773438     
  -7.3799999999999991E-002    -672.41180419921875     
  -7.2699999999999987E-002    -1133.3558349609375     
  -7.1599999999999997E-002    -1465.3139648437500     
  -7.0499999999999993E-002    -1426.4022216796875     
  -6.9399999999999989E-002    -1365.6252441406250     
  -6.8300000000000000E-002    -1785.9785156250000     
  -6.7199999999999996E-002    -2607.5148925781250     
  -6.6099999999999992E-002    -3242.5732421875000     
  -6.5000000000000002E-002    -3441.0393066406250     
  -6.3899999999999985E-002    -3677.5722656250000     
  -6.2799999999999995E-002    -4480.3974609375000     
  -6.1699999999999991E-002    -5683.7963867187500     
  -6.0599999999999994E-002    -6721.7460937500000     
  -5.9499999999999990E-002    -7509.3315429687500     
  -5.8399999999999994E-002    -8558.8623046875000     
  -5.7299999999999990E-002    -10166.148437500000     
  -5.6199999999999986E-002    -11959.611328125000     
  -5.5099999999999996E-002    -13540.081054687500     
  -5.3999999999999992E-002    -15197.585937500000     
  -5.2899999999999989E-002    -17512.919921875000     
  -5.1799999999999985E-002    -20419.019531250000     
  -5.0699999999999995E-002    -23236.369140625000     
  -4.9599999999999991E-002    -25736.501953125000     
  -4.8499999999999988E-002    -28606.603515625000     
  -4.7399999999999998E-002    -32494.498046875000     
  -4.6299999999999994E-002    -37002.113281250000     
  -4.5199999999999990E-002    -41208.101562500000     
  -4.4099999999999986E-002    -45017.457031250000     
  -4.2999999999999997E-002    -49330.273437500000     
  -4.1899999999999993E-002    -54722.468750000000     
  -4.0799999999999989E-002    -60584.371093750000     
  -3.9699999999999985E-002    -66014.453125000000     
  -3.8599999999999995E-002    -71088.609375000000     
  -3.7499999999999992E-002    -76622.093750000000     
  -3.6399999999999988E-002    -82816.718750000000     
  -3.5299999999999984E-002    -88902.453125000000     
  -3.4199999999999994E-002    -94294.578125000000     
  -3.3099999999999991E-002    -99409.695312500000     
  -3.1999999999999987E-002    -104823.25781250000     
  -3.0899999999999997E-002    -110094.19531250000     
  -2.9799999999999993E-002    -114196.88281250000     
  -2.8699999999999989E-002    -116947.01562500000     
  -2.7599999999999986E-002    -119203.90625000000     
  -2.6499999999999996E-002    -121382.32031250000     
  -2.5399999999999992E-002    -122515.80468750000     
  -2.4299999999999988E-002    -121367.89843750000     
  -2.3199999999999985E-002    -117995.00781250000     
  -2.2099999999999995E-002    -113443.88281250000     
  -2.0999999999999991E-002    -107969.13281250000     
  -1.9899999999999987E-002    -100524.96093750000     
  -1.8799999999999983E-002    -90110.960937500000     
  -1.7699999999999994E-002    -77041.820312500000     
  -1.6599999999999990E-002    -62182.441406250000     
  -1.5499999999999986E-002    -45424.648437500000     
  -1.4399999999999996E-002    -25828.916015625000     
  -1.3299999999999992E-002    -3114.2705078125000     
  -1.2199999999999989E-002     21827.617187500000     
  -1.1099999999999985E-002     48265.875000000000     
  -9.9999999999999950E-003     76731.429687500000     
  -8.8999999999999913E-003     108055.29687500000     
  -7.7999999999999875E-003     141842.45312500000     
  -6.6999999999999837E-003     176622.78125000000     
  -5.5999999999999939E-003     211561.28125000000     
  -4.4999999999999901E-003     247241.76562500000     
  -3.3999999999999864E-003     284165.25000000000     
  -2.2999999999999826E-003     321461.03125000000     
  -1.1999999999999927E-003     357548.06250000000     
  -9.9999999999988987E-005     391752.87500000000     
   1.0000000000000148E-003     424418.87500000000     
   2.1000000000000185E-003     455449.81250000000     
   3.2000000000000084E-003     483612.09375000000     
   4.3000000000000121E-003     507556.75000000000     
   5.4000000000000159E-003     527073.50000000000     
   6.5000000000000058E-003     542644.18750000000     
   7.6000000000000234E-003     553777.12500000000     
   8.7000000000000133E-003     559011.06250000000     
   9.8000000000000032E-003     557426.06250000000     
   1.0900000000000021E-002     549499.12500000000     
   1.2000000000000011E-002     535880.06250000000     
   1.3100000000000001E-002     516186.09375000000     
   1.4200000000000018E-002     489394.21875000000     
   1.5300000000000008E-002     455393.43750000000     
   1.6400000000000026E-002     415141.03125000000     
   1.7500000000000016E-002     369425.90625000000     
   1.8600000000000005E-002     318102.56250000000     
   1.9700000000000023E-002     260998.32812500000     
   2.0800000000000013E-002     198960.95312500000     
   2.1900000000000003E-002     133470.75000000000     
   2.3000000000000020E-002     65385.199218750000     
   2.4100000000000010E-002    -5225.7553710937500     
   2.5200000000000000E-002    -77964.265625000000     
   2.6300000000000018E-002    -151375.35937500000     
   2.7400000000000008E-002    -223765.57812500000     
   2.8500000000000025E-002    -294279.90625000000     
   2.9600000000000015E-002    -362644.93750000000     
   3.0700000000000005E-002    -428209.59375000000     
   3.1800000000000023E-002    -489566.46875000000     
   3.2900000000000013E-002    -545486.87500000000     
   3.4000000000000002E-002    -595528.62500000000     
   3.5100000000000020E-002    -639492.75000000000     
   3.6200000000000010E-002    -676655.31250000000     
   3.7300000000000028E-002    -706005.87500000000     
   3.8400000000000017E-002    -727182.62500000000     
   3.9500000000000007E-002    -740572.00000000000     
   4.0600000000000025E-002    -746399.75000000000     
   4.1700000000000015E-002    -744259.18750000000     
   4.2800000000000005E-002    -733793.37500000000     
   4.3900000000000022E-002    -715392.75000000000     
   4.5000000000000012E-002    -689967.18750000000     
   4.6100000000000002E-002    -658128.81250000000     
   4.7200000000000020E-002    -620267.81250000000     
   4.8300000000000010E-002    -576765.75000000000     
   4.9400000000000027E-002    -528411.12500000000     
   5.0500000000000017E-002    -476139.96875000000     
   5.1600000000000007E-002    -420715.31250000000     
   5.2700000000000025E-002    -362928.28125000000     
   5.3800000000000014E-002    -303628.46875000000     
   5.4900000000000004E-002    -243775.23437500000     
   5.6000000000000022E-002    -184138.90625000000     
   5.7100000000000012E-002    -125292.86718750000     
   5.8200000000000002E-002    -67948.851562500000     
   5.9300000000000019E-002    -12868.403320312500     
   6.0400000000000009E-002     39366.972656250000     
   6.1500000000000027E-002     88312.578125000000     
   6.2600000000000017E-002     133466.21875000000     
   6.3700000000000007E-002     174373.81250000000     
   6.4800000000000024E-002     210843.09375000000     
   6.5900000000000014E-002     242923.40625000000     
   6.7000000000000004E-002     270536.00000000000     
   6.8100000000000022E-002     293389.37500000000     
   6.9200000000000012E-002     311320.81250000000     
   7.0300000000000029E-002     324648.71875000000     
   7.1400000000000019E-002     333886.31250000000     
   7.2500000000000009E-002     339170.78125000000     
   7.3600000000000027E-002     340355.09375000000     
   7.4700000000000016E-002     337666.71875000000     
   7.5800000000000006E-002     331884.03125000000     
   7.6900000000000024E-002     323635.18750000000     
   7.8000000000000014E-002     312892.65625000000     
   7.9100000000000004E-002     299500.34375000000     
   8.0200000000000021E-002     283991.00000000000     
   8.1300000000000011E-002     267404.75000000000     
   8.2400000000000029E-002     250252.04687500000     
   8.3500000000000019E-002     232226.10937500000     
   8.4600000000000009E-002     213132.23437500000     
   8.5700000000000026E-002     193686.70312500000     
   8.6800000000000016E-002     174830.89062500000     
   8.7900000000000006E-002     156642.76562500000     
   8.9000000000000024E-002     138535.71875000000     
   9.0100000000000013E-002     120501.21093750000     
   9.1200000000000003E-002     103505.74218750000     
   9.2300000000000021E-002     88195.101562500000     
   9.3400000000000011E-002     73988.390625000000     
   9.4500000000000028E-002     60019.679687500000     
   9.5600000000000018E-002     46573.199218750000     
   9.6700000000000008E-002     34805.292968750000     
   9.7800000000000026E-002     25065.623046875000     
   9.8900000000000016E-002     16333.329101562500     
  0.10000000000000001          7733.1440429687500     
  0.10110000000000002         -217.04673767089844     
  0.10220000000000001         -6469.0961914062500     
  0.10330000000000003         -11152.255859375000     
  0.10440000000000002         -15423.514648437500     
  0.10550000000000001         -19723.091796875000     
  0.10660000000000003         -23138.044921875000     
  0.10770000000000002         -24947.050781250000     
  0.10880000000000001         -25936.355468750000     
  0.10990000000000003         -27376.291015625000     
  0.11100000000000002         -29119.835937500000     
  0.11210000000000001         -29805.757812500000     
  0.11320000000000002         -28980.880859375000     
  0.11430000000000001         -27930.923828125000     
  0.11540000000000003         -27866.523437500000     
  0.11650000000000002         -28191.386718750000     
  0.11760000000000001         -27470.910156250000     
  0.11870000000000003         -25653.255859375000     
  0.11980000000000002         -24154.621093750000     
  0.12090000000000001         -23698.179687500000     
  0.12200000000000003         -23253.017578125000     
  0.12310000000000001         -21723.917968750000     
  0.12420000000000003         -19718.507812500000     
  0.12530000000000002         -18645.933593750000     
  0.12640000000000001         -18500.507812500000     
  0.12750000000000003         -17811.736328125000     
  0.12860000000000002         -15924.826171875000     
  0.12970000000000001         -14073.715820312500     
  0.13080000000000003         -13546.969726562500     
  0.13190000000000002         -13722.335937500000     
  0.13300000000000001         -12982.003906250000     
  0.13410000000000000         -11170.124023437500     
  0.13520000000000004         -9821.9804687500000     
  0.13630000000000003         -9817.3154296875000     
  0.13740000000000002         -10044.532226562500     
  0.13850000000000001         -9123.1093750000000     
  0.13960000000000000         -7523.4135742187500     
  0.14070000000000005         -6834.2548828125000     
  0.14180000000000004         -7303.0605468750000     
  0.14290000000000003         -7442.5000000000000     
  0.14400000000000002         -6323.3867187500000     
  0.14510000000000001         -4999.5219726562500     
  0.14620000000000000         -4883.6118164062500     
  0.14730000000000004         -5576.2817382812500     
  0.14840000000000003         -5494.9458007812500     
  0.14950000000000002         -4310.2729492187500     
  0.15060000000000001         -3435.4929199218750     
  0.15170000000000000         -3823.8168945312500     
  0.15280000000000005         -4488.4384765625000     
  0.15390000000000004         -4036.0234375000000     
  0.15500000000000003         -2828.9899902343750     
  0.15610000000000002         -2439.5693359375000     
  0.15720000000000001         -3225.3347167968750     
  0.15830000000000000         -3764.2985839843750     
  0.15940000000000004         -3011.3227539062500     
  0.16050000000000003         -1884.6625976562500     
  0.16160000000000002         -1861.0236816406250     
  0.16270000000000001         -2747.7451171875000     
  0.16380000000000000         -3020.1506347656250     
  0.16490000000000005         -2151.6542968750000     
  0.16600000000000004         -1360.5087890625000     
  0.16710000000000003         -1691.0541992187500     
  0.16820000000000002         -2429.8847656250000     
  0.16930000000000001         -2261.5771484375000     
  0.17040000000000000         -1321.8625488281250     
  0.17150000000000004         -966.33624267578125     
  0.17260000000000003         -1651.9544677734375     
  0.17370000000000002         -2219.6188964843750     
  0.17480000000000001         -1678.8991699218750     
  0.17590000000000000         -729.76043701171875     
  0.17700000000000005         -696.03161621093750     
  0.17810000000000004         -1521.0439453125000     
  0.17920000000000003         -1877.9758300781250     
  0.18030000000000002         -1188.8267822265625     
  0.18140000000000001         -452.95776367187500     
  0.18250000000000000         -690.76104736328125     
  0.18360000000000004         -1417.8931884765625     
  0.18470000000000003         -1450.0015869140625     
  0.18580000000000002         -726.66320800781250     
  0.18690000000000001         -349.44110107421875     
  0.18800000000000000         -852.65454101562500     
  0.18910000000000005         -1399.4877929687500     
  0.19020000000000004         -1101.4122314453125     
  0.19130000000000003         -382.26376342773438     
  0.19240000000000002         -306.99267578125000     
  0.19350000000000001         -948.62139892578125     
  0.19460000000000005         -1298.9858398437500     
  0.19570000000000004         -814.47558593750000     
  0.19680000000000003         -213.39149475097656     
  0.19790000000000002         -355.93206787109375     
  0.19900000000000001         -955.67022705078125     
  0.20010000000000000         -1065.6259765625000     
  0.20120000000000005         -521.64923095703125     
  0.20230000000000004         -141.58493041992188     
  0.20340000000000003         -447.73492431640625     
  0.20450000000000002         -904.64562988281250     
  0.20560000000000000         -782.82354736328125     
  0.20670000000000005         -266.15719604492188     
  0.20780000000000004         -126.37389373779297     
  0.20890000000000003         -528.80810546875000     
