 -0.12000000000000000          0.0000000000000000
 -0.11889999999999999          0.0000000000000000
 -0.11780000000000000          0.0000000000000000
 -0.11670000000000000          0.0000000000000000
 -0.11559999999999999          0.0000000000000000
 -0.11449999999999999          0.0000000000000000
 -0.11340000000000000          0.0000000000000000
 -0.11230000000000000          4.5173334915543855E-021
 -0.11119999999999999         -2.1335217507987356E-021
 -0.11009999999999999         -5.0255093159369238E-020
 -0.10900000000000000          6.3247356507830386E-021
 -0.10790000000000000          3.2296866351523760E-019
 -0.10679999999999999          1.0674545438911759E-019
 -0.10569999999999999         -1.4623046727246917E-018
 -0.10460000000000000         -1.2596291892296786E-018
 -0.10349999999999999          4.7662452952132099E-018
 -0.10239999999999999          7.2483702952041428E-018
 -0.10130000000000000         -1.0592413357572268E-017
 -0.10020000000000000         -2.7792534045397783E-017
  -9.9099999999999994E-002     1.2570429676855009E-017
  -9.7999999999999990E-002     7.9820454186974412E-017
  -9.6899999999999986E-002     1.2145893289532581E-017
  -9.5799999999999996E-002    -1.8955652388419461E-016
  -9.4699999999999993E-002    -1.2844021153382026E-016
  -9.3599999999999989E-002     3.9215269647489555E-016
  -9.2499999999999999E-002     5.3948957778724880E-016
  -9.1399999999999995E-002    -6.0574322437205929E-016
  -9.0299999999999991E-002    -1.6980234441964096E-015
  -8.9200000000000002E-002     1.2997053537171276E-016
  -8.8099999999999984E-002     3.8443733805615214E-015
  -8.6999999999999994E-002     2.7951615038523817E-015
  -8.5899999999999990E-002    -5.4412934898660000E-015
  -8.4799999999999986E-002    -9.5917477316320200E-015
  -8.3699999999999997E-002     2.5227923421903675E-015
  -8.2599999999999993E-002     1.8417181367751286E-014
  -8.1499999999999989E-002     8.2132532789854287E-015
  -8.0399999999999999E-002    -2.5318133277819205E-014
  -7.9299999999999995E-002    -2.8646847399652411E-014
  -7.8199999999999992E-002     2.6885403422321520E-014
  -7.7100000000000002E-002     6.7104504732854592E-014
  -7.5999999999999984E-002    -4.8577093885479421E-015
  -7.4899999999999994E-002    -1.2584730349832207E-013
  -7.3799999999999991E-002    -8.8558866728587204E-014
  -7.2699999999999987E-002     1.4607451804139054E-013
  -7.1599999999999997E-002     2.6607240174135460E-013
  -7.0499999999999993E-002    -1.4646061937567158E-014
  -6.9399999999999989E-002    -4.1285182737771375E-013
  -6.8300000000000000E-002    -2.8991471224572296E-013
  -6.7199999999999996E-002     3.7689420811712337E-013
  -6.6099999999999992E-002     6.6022832817189125E-013
  -6.5000000000000002E-002    -1.0487629238361065E-013
  -6.3899999999999985E-002    -1.0222468488016445E-012
  -6.2799999999999995E-002    -5.2546741914280548E-013
  -6.1699999999999991E-002     1.1612622755757807E-012
  -6.0599999999999994E-002     1.6429044539731374E-012
  -5.9499999999999990E-002    -4.3080418247500030E-013
  -5.8399999999999994E-002    -2.6582672695008025E-012
  -5.7299999999999990E-002    -1.4798652754610675E-012
  -5.6199999999999986E-002     2.3741798457765917E-012
  -5.5099999999999996E-002     3.6569909427075498E-012
  -5.3999999999999992E-002    -3.4669578948161306E-013
  -5.2899999999999989E-002    -4.7691733374988221E-012
  -5.1799999999999985E-002    -2.8353883910897659E-012
  -5.0699999999999995E-002     3.9462586844118963E-012
  -4.9599999999999991E-002     6.1617724811391383E-012
  -4.8499999999999988E-002    -6.3211735108412159E-013
  -4.7399999999999998E-002    -7.9608403202868772E-012
  -4.6299999999999994E-002    -4.8449274106521223E-012
  -4.5199999999999990E-002     5.9952732882340154E-012
  -4.4099999999999986E-002     1.0003395681246197E-011
  -4.2999999999999997E-002     7.0885241036308666E-013
  -4.1899999999999993E-002    -9.9523445040716751E-012
  -4.0799999999999989E-002    -7.5309663019607065E-012
  -3.9699999999999985E-002     4.1720507257259065E-012
  -3.8599999999999995E-002     8.2180920055185958E-012
  -3.7499999999999992E-002    -6.3604682501786081E-013
  -3.6399999999999988E-002    -8.0511560959783957E-012
  -3.5299999999999984E-002    -1.8640664099095483E-012
  -3.4199999999999994E-002     9.1504356175553525E-012
  -3.3099999999999991E-002     8.9054649071718117E-012
  -3.1999999999999987E-002    -8.5630114110557543E-013
  -3.0899999999999997E-002    -4.3738437351115156E-012
  -2.9799999999999993E-002     6.2567556387629897E-013
  -2.8699999999999989E-002    -1.9748983264705755E-012
  -2.7599999999999986E-002    -1.6762107327150666E-011
  -2.6499999999999996E-002    -2.0915014511957430E-011
  -2.5399999999999992E-002     2.9957238946443088E-012
  -2.4299999999999988E-002     3.0769442549427595E-011
  -2.3199999999999985E-002     2.1638208586027829E-011
  -2.2099999999999995E-002    -1.9672459841690859E-011
  -2.0999999999999991E-002    -3.8395262663692975E-011
  -1.9899999999999987E-002    -5.0569270992895099E-012
  -1.8799999999999983E-002     3.2669079247371613E-011
  -1.7699999999999994E-002     9.1709140281892587E-012
  -1.6599999999999990E-002    -5.9845191302532186E-011
  -1.5499999999999986E-002    -8.4331104599488782E-011
  -1.4399999999999996E-002    -1.9538027445920036E-011
  -1.3299999999999992E-002     6.4584608494566709E-011
  -1.2199999999999989E-002     6.8618666304587350E-011
  -1.1099999999999985E-002    -7.4295873273011459E-012
  -9.9999999999999950E-003    -7.1610203877803258E-011
  -8.8999999999999913E-003    -6.8207717252022348E-011
  -7.7999999999999875E-003    -4.3069346700175259E-011
  -6.6999999999999837E-003    -6.1013291641209833E-011
  -5.5999999999999939E-003    -1.0980710091201829E-010
  -4.4999999999999901E-003    -1.3053948200170140E-010
  -3.3999999999999864E-003    -1.1126082000156856E-010
  -2.2999999999999826E-003    -9.0947332997970420E-011
  -1.1999999999999927E-003    -7.9965103982893027E-011
  -9.9999999999988987E-005    -4.9638730625911620E-011
   1.0000000000000148E-003    -2.2741074648391368E-011
   2.1000000000000185E-003    -9.5841591607470633E-011
   3.2000000000000084E-003    -3.0045960164315488E-010
   4.3000000000000121E-003    -5.0005799501207093E-010
   5.4000000000000159E-003    -5.2337650879863418E-010
   6.5000000000000058E-003    -3.9408121210726677E-010
   7.6000000000000234E-003    -3.2740538058462221E-010
   8.7000000000000133E-003    -4.4766321205536030E-010
   9.8000000000000032E-003    -6.1746102675286352E-010
   1.0900000000000021E-002    -6.2069943629339264E-010
   1.2000000000000011E-002    -4.7082093779238221E-010
   1.3100000000000001E-002    -4.5053241692905033E-010
   1.4200000000000018E-002    -7.3692452140505793E-010
   1.5300000000000008E-002    -1.1617300454958013E-009
   1.6400000000000026E-002    -1.4692453920162052E-009
   1.7500000000000016E-002    -1.5591076207854826E-009
   1.8600000000000005E-002    -1.5574173062304908E-009
   1.9700000000000023E-002    -1.5658601082435553E-009
   2.0800000000000013E-002    -1.6014723991375490E-009
   2.1900000000000003E-002    -1.6422715409802890E-009
   2.3000000000000020E-002    -1.7130091789496760E-009
   2.4100000000000010E-002    -1.8875558893682864E-009
   2.5200000000000000E-002    -2.1210853073938551E-009
   2.6300000000000018E-002    -2.2978421387875869E-009
   2.7400000000000008E-002    -2.4953694666152160E-009
   2.8500000000000025E-002    -2.9401925338845558E-009
   2.9600000000000015E-002    -3.3449198966195581E-009
   3.0700000000000005E-002    -3.4130578363544828E-009
   3.1800000000000023E-002    -3.2528497673212087E-009
   3.2900000000000013E-002    -3.0211986246087008E-009
   3.4000000000000002E-002    -2.9966140679960063E-009
   3.5100000000000020E-002    -2.9999811523850894E-009
   3.6200000000000010E-002    -2.8609674629365145E-009
   3.7300000000000028E-002    -2.8179549804718818E-009
   3.8400000000000017E-002    -2.8652222816560879E-009
   3.9500000000000007E-002    -2.7250388612287679E-009
   4.0600000000000025E-002    -2.5126130065444841E-009
   4.1700000000000015E-002    -2.3573294427592373E-009
   4.2800000000000005E-002    -2.0902837238878647E-009
   4.3900000000000022E-002    -1.7300794130648001E-009
   4.5000000000000012E-002    -8.3871171119298538E-010
   4.6100000000000002E-002    -5.7111887441507747E-010
   4.7200000000000020E-002    -6.2977061066060713E-011
   4.8300000000000010E-002     4.7402026748244452E-010
   4.9400000000000027E-002     1.4985034324510593E-009
   5.0500000000000017E-002     3.5445593127292341E-009
   5.1600000000000007E-002     4.5401868931094214E-009
   5.2700000000000025E-002     4.6443240364624216E-009
   5.3800000000000014E-002     5.1103543619035463E-009
   5.4900000000000004E-002     5.3085638107575051E-009
   5.6000000000000022E-002     6.3871956612615577E-009
   5.7100000000000012E-002     8.7634193235430757E-009
   5.8200000000000002E-002     1.0062640498631481E-008
   5.9300000000000019E-002     9.4207788237099521E-009
   6.0400000000000009E-002     9.8940633463939776E-009
   6.1500000000000027E-002     1.1494646123821894E-008
   6.2600000000000017E-002     1.3617098559848273E-008
   6.3700000000000007E-002     1.4945687354384063E-008
   6.4800000000000024E-002     1.5097489480808690E-008
   6.5900000000000014E-002     1.4086981359184847E-008
   6.7000000000000004E-002     1.3462056358548580E-008
   6.8100000000000022E-002     1.3184869196436466E-008
   6.9200000000000012E-002     1.4093799016734465E-008
   7.0300000000000029E-002     1.5216830462350117E-008
   7.1400000000000019E-002     1.4914188994907818E-008
   7.2500000000000009E-002     1.3043980118254694E-008
   7.3600000000000027E-002     1.0721633358912186E-008
   7.4700000000000016E-002     8.8143314869171263E-009
   7.5800000000000006E-002     9.3517247279351068E-009
   7.6900000000000024E-002     1.0433186758973534E-008
   7.8000000000000014E-002     9.5318180015624421E-009
   7.9100000000000004E-002     5.2043591658446076E-009
   8.0200000000000021E-002    -5.4276588778989776E-010
   8.1300000000000011E-002    -3.3803551069411242E-009
   8.2400000000000029E-002    -1.6372458944147184E-009
   8.3500000000000019E-002     1.0483706125441472E-009
   8.4600000000000009E-002    -7.7365885919888910E-010
   8.5700000000000026E-002    -7.5781025898891130E-009
   8.6800000000000016E-002    -1.4510160184499910E-008
   8.7900000000000006E-002    -1.7001458019194615E-008
   8.9000000000000024E-002    -1.5162607169827425E-008
   9.0100000000000013E-002    -1.2417100236916667E-008
   9.1200000000000003E-002    -1.2659604031739491E-008
   9.2300000000000021E-002    -1.5817686715990931E-008
   9.3400000000000011E-002    -2.1432565944223825E-008
   9.4500000000000028E-002    -2.5064442965572198E-008
   9.5600000000000018E-002    -2.4959032174365348E-008
   9.6700000000000008E-002    -1.9031967113392056E-008
   9.7800000000000026E-002    -1.3803865606121235E-008
   9.8900000000000016E-002    -1.4492568034540909E-008
  0.10000000000000001         -2.2341813732396076E-008
  0.10110000000000002         -2.9543727464442782E-008
  0.10220000000000001         -2.5534461656206986E-008
  0.10330000000000003         -1.4328097819316099E-008
  0.10440000000000002         -6.2801679412416433E-009
  0.10550000000000001         -8.7621678801497183E-009
  0.10660000000000003         -1.5502182648674534E-008
  0.10770000000000002         -1.9603557888103751E-008
  0.10880000000000001         -1.5620157611806462E-008
  0.10990000000000003         -4.7281267789855974E-009
  0.11100000000000002          5.3245958753223022E-009
  0.11210000000000001          6.8363097405210738E-009
  0.11320000000000002          7.2564515507522742E-010
  0.11430000000000001         -7.2738477463474283E-009
  0.11540000000000003         -8.2164035575260641E-009
  0.11650000000000002          1.2206616828436267E-009
  0.11760000000000001          1.4402871784113813E-008
  0.11870000000000003          1.9688577879151126E-008
  0.11980000000000002          1.3846027435704400E-008
  0.12090000000000001          1.8990564676357735E-009
  0.12200000000000003         -1.8254030509368135E-009
  0.12310000000000001          8.2356219621715354E-009
  0.12420000000000003          2.1290828655651239E-008
  0.12530000000000002          2.5015211235768220E-008
  0.12640000000000001          1.6824742488097399E-008
  0.12750000000000003          6.7955316929158016E-009
  0.12860000000000002          2.8441220489838770E-009
  0.12970000000000001          6.3980194475732333E-009
  0.13080000000000003          1.3148143906960286E-008
  0.13190000000000002          1.7904062232787510E-008
  0.13300000000000001          1.7364008897402528E-008
  0.13410000000000000          1.1171957581268543E-008
  0.13520000000000004          2.8354714132206027E-009
  0.13630000000000003         -1.3538083987185701E-009
  0.13740000000000002          2.8052851153148595E-009
  0.13850000000000001          1.1161827018213444E-008
  0.13960000000000000          1.4124290181882770E-008
  0.14070000000000005          6.9258563328844502E-009
  0.14180000000000004         -3.7207430469976543E-009
  0.14290000000000003         -6.8271104325390297E-009
  0.14400000000000002         -3.4859025388467302E-011
  0.14510000000000001          7.7343260684870074E-009
  0.14620000000000000          7.7300974510308151E-009
  0.14730000000000004          1.0397434024866925E-009
  0.14840000000000003         -4.9472794749760851E-009
  0.14950000000000002         -6.8714776091383101E-009
  0.15060000000000001         -7.0018781883618431E-009
  0.15170000000000000         -6.2752185669978644E-009
  0.15280000000000005         -1.5836565392390867E-009
  0.15390000000000004          5.5289341993614016E-009
  0.15500000000000003          7.3251511523153567E-009
  0.15610000000000002         -1.2108465341498231E-009
  0.15720000000000001         -1.2502955115678560E-008
  0.15830000000000000         -1.3692309508428480E-008
  0.15940000000000004         -2.5721356156083175E-009
  0.16050000000000003          7.5712147662443385E-009
  0.16160000000000002          5.3602087213278082E-009
  0.16270000000000001         -5.3307096514743080E-009
  0.16380000000000000         -1.1185925963275167E-008
  0.16490000000000005         -7.2283179441967604E-009
  0.16600000000000004         -6.6967004164197874E-010
  0.16710000000000003          1.7299600640896529E-009
  0.16820000000000002          1.9382602189921272E-009
  0.16930000000000001          2.9176419058529746E-009
  0.17040000000000000          9.6668750781958579E-010
  0.17150000000000004         -6.6161351952587211E-009
  0.17260000000000003         -1.2271033966726463E-008
  0.17370000000000002         -5.3913535857930128E-009
  0.17480000000000001          9.5403667188520558E-009
  0.17590000000000000          1.4678569471016090E-008
  0.17700000000000005          1.5047865176143205E-009
  0.17810000000000004         -1.5321216295660633E-008
  0.17920000000000003         -1.5148032161960145E-008
  0.18030000000000002          1.7427113085943802E-009
  0.18140000000000001          1.4574410123202597E-008
  0.18250000000000000          9.7781382990547172E-009
  0.18360000000000004         -3.6057448138393511E-009
  0.18470000000000003         -9.0801828278586072E-009
  0.18580000000000002         -4.4766630402648389E-009
  0.18690000000000001          9.4032129305254841E-011
  0.18800000000000000          5.0327564338203956E-010
  0.18910000000000005          2.5041955176163810E-009
  0.19020000000000004          7.3640169517830145E-009
  0.19130000000000003          6.5321117403982498E-009
  0.19240000000000002         -4.0692640368433786E-009
  0.19350000000000001         -1.2534217219695165E-008
  0.19460000000000005         -5.5161217815680175E-009
  0.19570000000000004          1.0136580463893097E-008
  0.19680000000000003          1.3910215201917708E-008
  0.19790000000000002         -3.2340835565136672E-010
  0.19900000000000001         -1.4413715554439932E-008
  0.20010000000000000         -1.0009675754929503E-008
  0.20120000000000005          5.9770597360397915E-009
  0.20230000000000004          1.2334064436458902E-008
  0.20340000000000003          3.1465878791436808E-009
  0.20450000000000002         -6.2576082093812602E-009
  0.20560000000000000         -3.7423171228567753E-009
  0.20670000000000005          3.1067968198073004E-009
  0.20780000000000004          1.7611636593528601E-009
  0.20890000000000003         -4.6323118674251873E-009
