 -0.12000000000000000          0.0000000000000000     
 -0.11889999999999999          0.0000000000000000     
 -0.11780000000000000          0.0000000000000000     
 -0.11670000000000000          0.0000000000000000     
 -0.11559999999999999          0.0000000000000000     
 -0.11449999999999999          0.0000000000000000     
 -0.11340000000000000          3.7333362550224288E-015
 -0.11230000000000000         -9.2299443844759237E-015
 -0.11119999999999999         -3.4273256975525523E-014
 -0.11009999999999999          8.6530195714858843E-014
 -0.10900000000000000          2.1492883698921023E-013
 -0.10790000000000000         -4.4038652390575306E-013
 -0.10679999999999999         -1.1180390380866045E-012
 -0.10569999999999999          1.4642402958522927E-012
 -0.10460000000000000          4.8125605063564780E-012
 -0.10349999999999999         -2.9287334276512089E-012
 -0.10239999999999999         -1.6795792187607184E-011
 -0.10130000000000000          5.2947647351600513E-013
 -0.10020000000000000          4.7572848438370841E-011
  -9.9099999999999994E-002     2.2220674952833086E-011
  -9.7999999999999990E-002    -1.1150799034131964E-010
  -9.6899999999999986E-002    -1.1076689565570064E-010
  -9.5799999999999996E-002     2.1720597542795872E-010
  -9.4699999999999993E-002     3.7973210686992331E-010
  -9.3599999999999989E-002    -3.0847485676943620E-010
  -9.2499999999999999E-002    -1.0682408291273759E-009
  -9.1399999999999995E-002     4.3761137075160050E-011
  -9.0299999999999991E-002     2.4134534371000882E-009
  -8.9200000000000002E-002     1.5590159163636486E-009
  -8.8099999999999984E-002    -3.9368810433870749E-009
  -8.6999999999999994E-002    -5.9398628238227502E-009
  -8.5899999999999990E-002     3.3768705609560357E-009
  -8.4799999999999986E-002     1.3442152280163100E-008
  -8.3699999999999997E-002     3.1238340802985931E-009
  -8.2599999999999993E-002    -2.1568911989788830E-008
  -8.1499999999999989E-002    -1.9278900253993925E-008
  -8.0399999999999999E-002     2.4960971956033973E-008
  -7.9299999999999995E-002     4.8645460992702283E-008
  -7.8199999999999992E-002    -1.2655534398220425E-008
  -7.7100000000000002E-002    -9.2711943011636322E-008
  -7.5999999999999984E-002    -4.0518433053193803E-008
  -7.4899999999999994E-002     1.3080824601274799E-007
  -7.3799999999999991E-002     1.6309513739543036E-007
  -7.2699999999999987E-002    -9.4740293832273892E-008
  -7.1599999999999997E-002    -3.3117052566922212E-007
  -7.0499999999999993E-002    -9.7096098272686504E-008
  -6.9399999999999989E-002     4.3069621824542992E-007
  -6.8300000000000000E-002     4.4948012600798393E-007
  -6.7199999999999996E-002    -3.1692158586338337E-007
  -6.6099999999999992E-002    -8.6647878561052494E-007
  -6.5000000000000002E-002    -1.2583930697473988E-007
  -6.3899999999999985E-002     1.1687210417221650E-006
  -6.2799999999999995E-002     9.8342968612996629E-007
  -6.1699999999999991E-002    -9.9593989943969063E-007
  -6.0599999999999994E-002    -2.1118626136740204E-006
  -5.9499999999999990E-002    -1.2706964014341793E-007
  -5.8399999999999994E-002     2.8147658213129034E-006
  -5.7299999999999990E-002     2.2112806163931964E-006
  -5.6199999999999986E-002    -2.1249970814096741E-006
  -5.5099999999999996E-002    -4.3690188249456696E-006
  -5.3999999999999992E-002    -3.4609038834787498E-007
  -5.2899999999999989E-002     5.2531436267599929E-006
  -5.1799999999999985E-002     4.0064765016722959E-006
  -5.0699999999999995E-002    -3.7736917875008658E-006
  -4.9599999999999991E-002    -7.4458152994338889E-006
  -4.8499999999999988E-002    -4.4196940507390536E-007
  -4.7399999999999998E-002     8.6319741967599839E-006
  -4.6299999999999994E-002     6.3836828303465154E-006
  -4.5199999999999990E-002    -5.6464450608473271E-006
  -4.4099999999999986E-002    -1.0993938303727191E-005
  -4.2999999999999997E-002    -1.1293338957329979E-006
  -4.1899999999999993E-002     1.0812206710397732E-005
  -4.0799999999999989E-002     7.6708265623892657E-006
  -3.9699999999999985E-002    -6.3286588556366041E-006
  -3.8599999999999995E-002    -1.0661326086847112E-005
  -3.7499999999999992E-002     1.1894520639543771E-006
  -3.6399999999999988E-002     1.1241623724345118E-005
  -3.5299999999999984E-002     3.9899960029288195E-006
  -3.4199999999999994E-002    -9.3059597929823212E-006
  -3.3099999999999991E-002    -7.8648390626767650E-006
  -3.1999999999999987E-002     5.1607398745545652E-006
  -3.0899999999999997E-002     7.0395162765635177E-006
  -2.9799999999999993E-002    -6.2833246374793816E-006
  -2.8699999999999989E-002    -1.0069698873849120E-005
  -2.7599999999999986E-002     8.7881426225067116E-006
  -2.6499999999999996E-002     2.3193029846879654E-005
  -2.5399999999999992E-002     3.1918032163957832E-006
  -2.4299999999999988E-002    -3.0491215511574410E-005
  -2.3199999999999985E-002    -2.6604426238918677E-005
  -2.2099999999999995E-002     1.8644195733941160E-005
  -2.0999999999999991E-002     4.3039333831984550E-005
  -1.9899999999999987E-002     3.6452236145123607E-006
  -1.8799999999999983E-002    -5.0555379857541993E-005
  -1.7699999999999994E-002    -3.7604087992804125E-005
  -1.6599999999999990E-002     3.6717054172186181E-005
  -1.5499999999999986E-002     7.3718416388146579E-005
  -1.4399999999999996E-002     1.5890347640379332E-005
  -1.3299999999999992E-002    -6.5934305894188583E-005
  -1.2199999999999989E-002    -6.6118525865022093E-005
  -1.1099999999999985E-002     9.7384399850852787E-006
  -9.9999999999999950E-003     5.5720483942423016E-005
  -8.8999999999999913E-003     1.7845581169240177E-005
  -7.7999999999999875E-003    -3.5719487641472369E-005
  -6.6999999999999837E-003    -2.5063502107514068E-005
  -5.5999999999999939E-003     2.3369806513073854E-005
  -4.4999999999999901E-003     3.2617957913316786E-005
  -3.3999999999999864E-003     3.1381520670947793E-007
  -2.2999999999999826E-003    -7.1348540586768650E-006
  -1.1999999999999927E-003     1.7260295862797648E-005
  -9.9999999999988987E-005    -3.3552657896507299E-006
   1.0000000000000148E-003    -8.3639228250831366E-005
   2.1000000000000185E-003    -1.0925879905698821E-004
   3.2000000000000084E-003     4.5635656533704605E-006
   4.3000000000000121E-003     1.4775263844057918E-004
   5.4000000000000159E-003     1.2600874470081180E-004
   6.5000000000000058E-003    -5.7398745411774144E-005
   7.6000000000000234E-003    -1.5330452879425138E-004
   8.7000000000000133E-003    -3.4090880944859236E-005
   9.8000000000000032E-003     1.4136421668808907E-004
   1.0900000000000021E-002     1.1891992471646518E-004
   1.2000000000000011E-002    -1.1152009392390028E-004
   1.3100000000000001E-002    -2.5024081696756184E-004
   1.4200000000000018E-002    -1.2542679905891418E-004
   1.5300000000000008E-002     1.0636388469720259E-004
   1.6400000000000026E-002     1.9805727060884237E-004
   1.7500000000000016E-002     8.8425826106686145E-005
   1.8600000000000005E-002    -3.8071713788667694E-005
   1.9700000000000023E-002    -2.8888587621622719E-005
   2.0800000000000013E-002    -8.1564121501287445E-006
   2.1900000000000003E-002    -4.0485567296855152E-005
   2.3000000000000020E-002    -3.8929429138079286E-005
   2.4100000000000010E-002    -1.6202340702875517E-005
   2.5200000000000000E-002    -1.6270036212517880E-005
   2.6300000000000018E-002    -4.7201479901559651E-005
   2.7400000000000008E-002    -9.2882502940483391E-005
   2.8500000000000025E-002     2.1877371182199568E-005
   2.9600000000000015E-002     1.3794591359328479E-004
   3.0700000000000005E-002     2.1845247829332948E-004
   3.1800000000000023E-002     1.1349631677148864E-004
   3.2900000000000013E-002    -1.9304318993818015E-004
   3.4000000000000002E-002    -1.7203154857270420E-004
   3.5100000000000020E-002     2.2329660714603961E-004
   3.6200000000000010E-002     2.9621840803883970E-004
   3.7300000000000028E-002    -4.0692022594157606E-005
   3.8400000000000017E-002    -3.7560056080110371E-004
   3.9500000000000007E-002    -8.2625738286878914E-005
   4.0600000000000025E-002     1.0658678365871310E-004
   4.1700000000000015E-002     3.3286388497799635E-004
   4.2800000000000005E-002     3.9020917029120028E-004
   4.3900000000000022E-002    -2.6738308952189982E-004
   4.5000000000000012E-002    -4.5341928489506245E-004
   4.6100000000000002E-002     3.3080868888646364E-004
   4.7200000000000020E-002     8.0228061415255070E-004
   4.8300000000000010E-002     1.7933273920789361E-004
   4.9400000000000027E-002    -2.9184418963268399E-004
   5.0500000000000017E-002    -3.6992094828747213E-004
   5.1600000000000007E-002    -2.8467251104302704E-004
   5.2700000000000025E-002    -2.6906168204732239E-004
   5.3800000000000014E-002     5.3326296620070934E-004
   5.4900000000000004E-002     8.7627850007265806E-004
   5.6000000000000022E-002     4.6629043936263770E-005
   5.7100000000000012E-002    -1.0744062019512057E-003
   5.8200000000000002E-002    -6.9494696799665689E-004
   5.9300000000000019E-002     3.7649029400199652E-004
   6.0400000000000009E-002     1.6174408374354243E-003
   6.1500000000000027E-002     5.7628098875284195E-004
   6.2600000000000017E-002    -1.1023432016372681E-003
   6.3700000000000007E-002    -1.2186720268800855E-003
   6.4800000000000024E-002    -8.9455739362165332E-004
   6.5900000000000014E-002     1.1944258585572243E-004
   6.7000000000000004E-002    -3.3289098064415157E-004
   6.8100000000000022E-002     1.0531349107623100E-003
   6.9200000000000012E-002     2.2682743147015572E-003
   7.0300000000000029E-002    -1.3972833403386176E-004
   7.1400000000000019E-002    -4.1954787448048592E-003
   7.2500000000000009E-002    -2.4985950440168381E-003
   7.3600000000000027E-002     2.1200329065322876E-003
   7.4700000000000016E-002     4.5952177606523037E-003
   7.5800000000000006E-002     1.5997471055015922E-003
   7.6900000000000024E-002    -4.2182924225926399E-003
   7.8000000000000014E-002    -4.7243623994290829E-003
   7.9100000000000004E-002    -8.2234886940568686E-004
   8.0200000000000021E-002     3.8430776912719011E-003
   8.1300000000000011E-002     3.7897552829235792E-003
   8.2400000000000029E-002     3.1338617554865777E-004
   8.3500000000000019E-002    -2.7355572674423456E-003
   8.4600000000000009E-002    -3.2438407652080059E-003
   8.5700000000000026E-002    -1.1143340962007642E-003
   8.6800000000000016E-002     1.3793425168842077E-003
   8.7900000000000006E-002     3.7984380032867193E-003
   8.9000000000000024E-002     3.1883448828011751E-003
   9.0100000000000013E-002    -8.5011165356263518E-004
   9.1200000000000003E-002    -4.8346123658120632E-003
   9.2300000000000021E-002    -3.6479649133980274E-003
   9.3400000000000011E-002     1.3628543820232153E-003
   9.4500000000000028E-002     5.9673902578651905E-003
   9.5600000000000018E-002     4.1310084052383900E-003
   9.6700000000000008E-002    -1.4315082225948572E-003
   9.7800000000000026E-002    -6.1586485244333744E-003
   9.8900000000000016E-002    -3.9767459966242313E-003
  0.10000000000000001          2.9338609892874956E-003
  0.10110000000000002          6.4226537942886353E-003
  0.10220000000000001          5.3751925006508827E-003
  0.10330000000000003         -1.6992284217849374E-003
  0.10440000000000002         -7.1484670042991638E-003
  0.10550000000000001         -6.7789833992719650E-003
  0.10660000000000003          1.2133405543863773E-003
  0.10770000000000002          8.2909949123859406E-003
  0.10880000000000001          6.5099466592073441E-003
  0.10990000000000003         -1.2906249612569809E-003
  0.11100000000000002         -7.0709418505430222E-003
  0.11210000000000001         -4.2550982907414436E-003
  0.11320000000000002          3.9390395977534354E-004
  0.11430000000000001          4.2438777163624763E-003
  0.11540000000000003          5.5150138214230537E-003
  0.11650000000000002          1.6177626093849540E-003
  0.11760000000000001         -3.6938784178346395E-003
  0.11870000000000003         -7.2650550864636898E-003
  0.11980000000000002         -6.0825948603451252E-003
  0.12090000000000001          2.6189323980361223E-003
  0.12200000000000003          1.0853867046535015E-002
  0.12310000000000001          8.5064955055713654E-003
  0.12420000000000003         -4.8126317560672760E-003
  0.12530000000000002         -1.4053343795239925E-002
  0.12640000000000001         -6.9823330268263817E-003
  0.12750000000000003          7.6635368168354034E-003
  0.12860000000000002          1.0894324630498886E-002
  0.12970000000000001          2.3657968267798424E-003
  0.13080000000000003         -6.1941929161548615E-003
  0.13190000000000002         -5.1891268230974674E-003
  0.13300000000000001          4.0659130900166929E-004
  0.13410000000000000          6.0676241992041469E-004
  0.13520000000000004         -1.8759197555482388E-003
  0.13630000000000003          1.3719382695853710E-003
  0.13740000000000002          6.9302190095186234E-003
  0.13850000000000001          3.8861825596541166E-003
  0.13960000000000000         -7.1077086031436920E-003
  0.14070000000000005         -1.1317444033920765E-002
  0.14180000000000004         -2.6034240727312863E-004
  0.14290000000000003          1.2449187226593494E-002
  0.14400000000000002          9.5706721767783165E-003
  0.14510000000000001         -5.1068416796624660E-003
  0.14620000000000000         -1.2093559838831425E-002
  0.14730000000000004         -3.3291387371718884E-003
  0.14840000000000003          6.8509094417095184E-003
  0.14950000000000002          5.5295480415225029E-003
  0.15060000000000001         -2.0365787204355001E-003
  0.15170000000000000         -1.9048949470743537E-003
  0.15280000000000005          4.2215986177325249E-003
  0.15390000000000004          2.1355350036174059E-003
  0.15500000000000003         -8.0097150057554245E-003
  0.15610000000000002         -9.3666156753897667E-003
  0.15720000000000001          3.6913675721734762E-003
  0.15830000000000000          1.5545844100415707E-002
  0.15940000000000004          7.9376203939318657E-003
  0.16050000000000003         -1.0952469892799854E-002
  0.16160000000000002         -1.6146101057529449E-002
  0.16270000000000001         -1.4783797087147832E-004
  0.16380000000000000          1.4226761646568775E-002
  0.16490000000000005          8.3596203476190567E-003
  0.16600000000000004         -6.4646406099200249E-003
  0.16710000000000003         -8.9617110788822174E-003
  0.16820000000000002          1.3774000108242035E-003
  0.16930000000000001          5.5577270686626434E-003
  0.17040000000000000         -2.4997373111546040E-003
  0.17150000000000004         -6.0155149549245834E-003
  0.17260000000000003          4.2878258973360062E-003
  0.17370000000000002          1.2326976284384727E-002
  0.17480000000000001          1.2347410665825009E-003
  0.17590000000000000         -1.5732625499367714E-002
  0.17700000000000005         -1.2974273413419724E-002
  0.17810000000000004          8.8344905525445938E-003
  0.17920000000000003          1.9924320280551910E-002
  0.18030000000000002          4.6333791688084602E-003
  0.18140000000000001         -1.5871502459049225E-002
  0.18250000000000000         -1.3963567093014717E-002
  0.18360000000000004          5.5606374517083168E-003
  0.18470000000000003          1.3880454003810883E-002
  0.18580000000000002          1.6627684235572815E-003
  0.18690000000000001         -9.1859558597207069E-003
  0.18800000000000000         -2.6662442833185196E-003
  0.18910000000000005          7.8600347042083740E-003
  0.19020000000000004          2.7181974146515131E-003
  0.19130000000000003         -1.0467592626810074E-002
  0.19240000000000002         -8.0377282574772835E-003
  0.19350000000000001          9.7014764323830605E-003
  0.19460000000000005          1.5842888504266739E-002
  0.19570000000000004         -1.5431226929649711E-003
  0.19680000000000003         -1.8494822084903717E-002
  0.19790000000000002         -9.5394514501094818E-003
  0.19900000000000001          1.3147539459168911E-002
  0.20010000000000000          1.7031807452440262E-002
  0.20120000000000005         -3.0009211041033268E-003
  0.20230000000000004         -1.7146773636341095E-002
  0.20340000000000003         -6.0006943531334400E-003
  0.20450000000000002          1.1745297349989414E-002
  0.20560000000000000          9.2714922502636909E-003
  0.20670000000000005         -7.0119709707796574E-003
  0.20780000000000004         -9.7119370475411415E-003
  0.20890000000000003          5.3365086205303669E-003
