 -0.12000000000000000          0.0000000000000000     
 -0.11889999999999999          0.0000000000000000     
 -0.11780000000000000          0.0000000000000000     
 -0.11670000000000000          0.0000000000000000     
 -0.11559999999999999          0.0000000000000000     
 -0.11449999999999999         -8.5705659962683617E-014
 -0.11340000000000000          1.3305605532296094E-013
 -0.11230000000000000          6.7464848811649158E-013
 -0.11119999999999999         -7.3736096438750676E-013
 -0.11009999999999999         -2.7094006291999984E-012
 -0.10900000000000000          2.6490983885685271E-012
 -0.10790000000000000          5.8820335754883324E-012
 -0.10679999999999999         -1.6333125824052885E-011
 -0.10569999999999999         -1.7093260834544211E-011
 -0.10460000000000000          9.0847579459207850E-011
 -0.10349999999999999          1.4495249445189984E-010
 -0.10239999999999999         -2.3322352382670886E-010
 -0.10130000000000000         -7.5218808959220951E-010
 -0.10020000000000000         -1.2709805430333176E-010
  -9.9099999999999994E-002     1.8372026122648322E-009
  -9.7999999999999990E-002     2.3119626213485844E-009
  -9.6899999999999986E-002    -1.1700918012280681E-009
  -9.5799999999999996E-002    -5.0252886296675570E-009
  -9.4699999999999993E-002    -3.0710491927266048E-009
  -9.3599999999999989E-002     2.0245738419077952E-009
  -9.2499999999999999E-002     8.9698470873145197E-010
  -9.1399999999999995E-002    -1.5438056388816790E-009
  -9.0299999999999991E-002     1.4648192880883926E-008
  -8.9200000000000002E-002     4.0671771728284511E-008
  -8.8099999999999984E-002     1.7324909507010489E-008
  -8.6999999999999994E-002    -8.3621024771218799E-008
  -8.5899999999999990E-002    -1.5872304004460602E-007
  -8.4799999999999986E-002    -5.4668774396304798E-008
  -8.3699999999999997E-002     1.8970737869494769E-007
  -8.2599999999999993E-002     3.0076938628553762E-007
  -8.1499999999999989E-002     1.1704643299026429E-007
  -8.0399999999999999E-002    -1.2511684133187373E-007
  -7.9299999999999995E-002    -1.2124154125103814E-007
  -7.8199999999999992E-002    -6.8302249189855502E-008
  -7.7100000000000002E-002    -4.3635373003780842E-007
  -7.5999999999999984E-002    -9.6957194273272762E-007
  -7.4899999999999994E-002    -5.4321139941748697E-007
  -7.3799999999999991E-002     1.2404974540913827E-006
  -7.2699999999999987E-002     2.7264045456831809E-006
  -7.1599999999999997E-002     1.7777082348402473E-006
  -7.0499999999999993E-002    -1.0722395700213383E-006
  -6.9399999999999989E-002    -2.5981833005062072E-006
  -6.8300000000000000E-002    -1.1921688383154105E-006
  -6.7199999999999996E-002     2.7667530844155408E-007
  -6.6099999999999992E-002    -1.6512567526660860E-006
  -6.5000000000000002E-002    -4.8865654207475018E-006
  -6.3899999999999985E-002    -3.2365162496716948E-006
  -6.2799999999999995E-002     4.4964499466004781E-006
  -6.1699999999999991E-002     1.0658533028617967E-005
  -6.0599999999999994E-002     8.1065481936093420E-006
  -5.9499999999999990E-002     1.0339158507122193E-006
  -5.8399999999999994E-002    -6.1115471794437326E-008
  -5.7299999999999990E-002     5.1251299737486988E-006
  -5.6199999999999986E-002     3.1513807243754854E-006
  -5.5099999999999996E-002    -1.4437066965911072E-005
  -5.3999999999999992E-002    -3.4609758586157113E-005
  -5.2899999999999989E-002    -3.5105236747767776E-005
  -5.1799999999999985E-002    -1.2448099369066767E-005
  -5.0699999999999995E-002     1.3307311746757478E-005
  -4.9599999999999991E-002     2.5746479877852835E-005
  -4.8499999999999988E-002     3.2649724744260311E-005
  -4.7399999999999998E-002     4.8957965191220865E-005
  -4.6299999999999994E-002     6.7354529164731503E-005
  -4.5199999999999990E-002     6.2842125771567225E-005
  -4.4099999999999986E-002     2.7296197004034184E-005
  -4.2999999999999997E-002    -1.7906353605212644E-005
  -4.1899999999999993E-002    -5.1406957936706021E-005
  -4.0799999999999989E-002    -7.7285221777856350E-005
  -3.9699999999999985E-002    -1.0477662726771086E-004
  -3.8599999999999995E-002    -1.1544649896677583E-004
  -3.7499999999999992E-002    -7.7490425610449165E-005
  -3.6399999999999988E-002     6.4812084019649774E-006
  -3.5299999999999984E-002     9.3498143542092294E-005
  -3.4199999999999994E-002     1.5325972344726324E-004
  -3.3099999999999991E-002     1.9918891484849155E-004
  -3.1999999999999987E-002     2.4083467724267393E-004
  -3.0899999999999997E-002     2.2889458341524005E-004
  -2.9799999999999993E-002     9.5438081189058721E-005
  -2.8699999999999989E-002    -1.4828343410044909E-004
  -2.7599999999999986E-002    -4.0307198651134968E-004
  -2.6499999999999996E-002    -5.9680588310584426E-004
  -2.5399999999999992E-002    -7.6695269672200084E-004
  -2.4299999999999988E-002    -9.7834470216184855E-004
  -2.3199999999999985E-002    -1.1842228705063462E-003
  -2.2099999999999995E-002    -1.2440182035788894E-003
  -2.0999999999999991E-002    -1.1020078090950847E-003
  -1.9899999999999987E-002    -8.8951335055753589E-004
  -1.8799999999999983E-002    -8.0206623533740640E-004
  -1.7699999999999994E-002    -9.1440579853951931E-004
  -1.6599999999999990E-002    -1.1780376080423594E-003
  -1.5499999999999986E-002    -1.5718424692749977E-003
  -1.4399999999999996E-002    -2.1669256966561079E-003
  -1.3299999999999992E-002    -3.0193082056939602E-003
  -1.2199999999999989E-002    -4.0827412158250809E-003
  -1.1099999999999985E-002    -5.2802148275077343E-003
  -9.9999999999999950E-003    -6.6100852563977242E-003
  -8.8999999999999913E-003    -8.1003159284591675E-003
  -7.7999999999999875E-003    -9.6970433369278908E-003
  -6.6999999999999837E-003    -1.1336464434862137E-002
  -5.5999999999999939E-003    -1.3132938183844090E-002
  -4.4999999999999901E-003    -1.5376013703644276E-002
  -3.3999999999999864E-003    -1.8273459747433662E-002
  -2.2999999999999826E-003    -2.1737219765782356E-002
  -1.1999999999999927E-003    -2.5585088878870010E-002
  -9.9999999999988987E-005    -2.9900869354605675E-002
   1.0000000000000148E-003    -3.5019144415855408E-002
   2.1000000000000185E-003    -4.1139792650938034E-002
   3.2000000000000084E-003    -4.8094540834426880E-002
   4.3000000000000121E-003    -5.5609364062547684E-002
   5.4000000000000159E-003    -6.3760057091712952E-002
   6.5000000000000058E-003    -7.2934806346893311E-002
   7.6000000000000234E-003    -8.3348706364631653E-002
   8.7000000000000133E-003    -9.4904281198978424E-002
   9.8000000000000032E-003   -0.10739160329103470     
   1.0900000000000021E-002   -0.12085618823766708     
   1.2000000000000011E-002   -0.13552889227867126     
   1.3100000000000001E-002   -0.15151946246623993     
   1.4200000000000018E-002   -0.16878089308738708     
   1.5300000000000008E-002   -0.18726211786270142     
   1.6400000000000026E-002   -0.20678047835826874     
   1.7500000000000016E-002   -0.22720213234424591     
   1.8600000000000005E-002   -0.24814549088478088     
   1.9700000000000023E-002   -0.26925802230834961     
   2.0800000000000013E-002   -0.29039618372917175     
   2.1900000000000003E-002   -0.31164282560348511     
   2.3000000000000020E-002   -0.33245661854743958     
   2.4100000000000010E-002   -0.35205122828483582     
   2.5200000000000000E-002   -0.36968123912811279     
   2.6300000000000018E-002   -0.38531953096389771     
   2.7400000000000008E-002   -0.39896202087402344     
   2.8500000000000025E-002   -0.41007301211357117     
   2.9600000000000015E-002   -0.41692116856575012     
   3.0700000000000005E-002   -0.41866680979728699     
   3.1800000000000023E-002   -0.41473546624183655     
   3.2900000000000013E-002   -0.40428450703620911     
   3.4000000000000002E-002   -0.38623616099357605     
   3.5100000000000020E-002   -0.36009225249290466     
   3.6200000000000010E-002   -0.32508105039596558     
   3.7300000000000028E-002   -0.28048849105834961     
   3.8400000000000017E-002   -0.22559101879596710     
   3.9500000000000007E-002   -0.16036505997180939     
   4.0600000000000025E-002    -8.3673745393753052E-002
   4.1700000000000015E-002     4.8222020268440247E-003
   4.2800000000000005E-002    0.10403063148260117     
   4.3900000000000022E-002    0.21547560393810272     
   4.5000000000000012E-002    0.33727940917015076     
   4.6100000000000002E-002    0.47047296166419983     
   4.7200000000000020E-002    0.61374425888061523     
   4.8300000000000010E-002    0.76564812660217285     
   4.9400000000000027E-002    0.92569398880004883     
   5.0500000000000017E-002     1.0900037288665771     
   5.1600000000000007E-002     1.2578859329223633     
   5.2700000000000025E-002     1.4261615276336670     
   5.3800000000000014E-002     1.5929330587387085     
   5.4900000000000004E-002     1.7568583488464355     
   5.6000000000000022E-002     1.9149965047836304     
   5.7100000000000012E-002     2.0599250793457031     
   5.8200000000000002E-002     2.1888422966003418     
   5.9300000000000019E-002     2.3015573024749756     
   6.0400000000000009E-002     2.3957364559173584     
   6.1500000000000027E-002     2.4663746356964111     
   6.2600000000000017E-002     2.5069787502288818     
   6.3700000000000007E-002     2.5171990394592285     
   6.4800000000000024E-002     2.4946241378784180     
   6.5900000000000014E-002     2.4367747306823730     
   6.7000000000000004E-002     2.3408854007720947     
   6.8100000000000022E-002     2.2083942890167236     
   6.9200000000000012E-002     2.0386559963226318     
   7.0300000000000029E-002     1.8293665647506714     
   7.1400000000000019E-002     1.5778112411499023     
   7.2500000000000009E-002     1.2887459993362427     
   7.3600000000000027E-002    0.96749073266983032     
   7.4700000000000016E-002    0.61781603097915649     
   7.5800000000000006E-002    0.24024219810962677     
   7.6900000000000024E-002   -0.16345930099487305     
   7.8000000000000014E-002   -0.58570891618728638     
   7.9100000000000004E-002    -1.0200781822204590     
   8.0200000000000021E-002    -1.4601508378982544     
   8.1300000000000011E-002    -1.8986853361129761     
   8.2400000000000029E-002    -2.3271539211273193     
   8.3500000000000019E-002    -2.7413451671600342     
   8.4600000000000009E-002    -3.1384301185607910     
   8.5700000000000026E-002    -3.5098628997802734     
   8.6800000000000016E-002    -3.8444862365722656     
   8.7900000000000006E-002    -4.1321272850036621     
   8.9000000000000024E-002    -4.3684124946594238     
   9.0100000000000013E-002    -4.5566601753234863     
   9.1200000000000003E-002    -4.6963438987731934     
   9.2300000000000021E-002    -4.7788200378417969     
   9.3400000000000011E-002    -4.7949132919311523     
   9.4500000000000028E-002    -4.7402892112731934     
   9.5600000000000018E-002    -4.6225643157958984     
   9.6700000000000008E-002    -4.4501156806945801     
   9.7800000000000026E-002    -4.2219963073730469     
   9.8900000000000016E-002    -3.9388394355773926     
  0.10000000000000001         -3.6012926101684570     
  0.10110000000000002         -3.2107520103454590     
  0.10220000000000001         -2.7764222621917725     
  0.10330000000000003         -2.3106088638305664     
  0.10440000000000002         -1.8265968561172485     
  0.10550000000000001         -1.3291896581649780     
  0.10660000000000003        -0.81515008211135864     
  0.10770000000000002        -0.28907501697540283     
  0.10880000000000001         0.23219457268714905     
  0.10990000000000003         0.73593002557754517     
  0.11100000000000002          1.2129694223403931     
  0.11210000000000001          1.6625593900680542     
  0.11320000000000002          2.0801966190338135     
  0.11430000000000001          2.4615397453308105     
  0.11540000000000003          2.8026483058929443     
  0.11650000000000002          3.0990028381347656     
  0.11760000000000001          3.3414704799652100     
  0.11870000000000003          3.5224153995513916     
  0.11980000000000002          3.6491861343383789     
  0.12090000000000001          3.7300429344177246     
  0.12200000000000003          3.7679209709167480     
  0.12310000000000001          3.7569296360015869     
  0.12420000000000003          3.6897354125976562     
  0.12530000000000002          3.5711133480072021     
  0.12640000000000001          3.4169399738311768     
  0.12750000000000003          3.2366144657135010     
  0.12860000000000002          3.0274813175201416     
  0.12970000000000001          2.7883114814758301     
  0.13080000000000003          2.5242028236389160     
  0.13190000000000002          2.2459874153137207     
  0.13300000000000001          1.9604686498641968     
  0.13410000000000000          1.6703475713729858     
  0.13520000000000004          1.3790210485458374     
  0.13630000000000003          1.0929383039474487     
  0.13740000000000002         0.81698393821716309     
  0.13850000000000001         0.55048823356628418     
  0.13960000000000000         0.29509043693542480     
  0.14070000000000005          5.7795137166976929E-002
  0.14180000000000004        -0.15474307537078857     
  0.14290000000000003        -0.34483984112739563     
  0.14400000000000002        -0.51882570981979370     
  0.14510000000000001        -0.67535859346389771     
  0.14620000000000000        -0.80548977851867676     
  0.14730000000000004        -0.90605521202087402     
  0.14840000000000003        -0.98493444919586182     
  0.14950000000000002         -1.0505316257476807     
  0.15060000000000001         -1.1000694036483765     
  0.15170000000000000         -1.1258649826049805     
  0.15280000000000005         -1.1273622512817383     
  0.15390000000000004         -1.1163761615753174     
  0.15500000000000003         -1.1001133918762207     
  0.15610000000000002         -1.0739039182662964     
  0.15720000000000001         -1.0320109128952026     
  0.15830000000000000        -0.97823482751846313     
  0.15940000000000004        -0.92180550098419189     
  0.16050000000000003        -0.86558866500854492     
  0.16160000000000002        -0.80317163467407227     
  0.16270000000000001        -0.73303037881851196     
  0.16380000000000000        -0.66403269767761230     
  0.16490000000000005        -0.60234171152114868     
  0.16600000000000004        -0.54198807477951050     
  0.16710000000000003        -0.47449332475662231     
  0.16820000000000002        -0.40608701109886169     
  0.16930000000000001        -0.35033899545669556     
  0.17040000000000000        -0.30773743987083435     
  0.17150000000000004        -0.26364770531654358     
  0.17260000000000003        -0.20887669920921326     
  0.17370000000000002        -0.15507563948631287     
  0.17480000000000001        -0.11929618567228317     
  0.17590000000000000         -9.9033124744892120E-002
  0.17700000000000005         -7.6411850750446320E-002
  0.17810000000000004         -4.2760644108057022E-002
  0.17920000000000003         -9.9934479221701622E-003
  0.18030000000000002          7.8901387751102448E-003
  0.18140000000000001          1.5247149392962456E-002
  0.18250000000000000          2.5558559224009514E-002
  0.18360000000000004          4.0231239050626755E-002
  0.18470000000000003          4.8508320003747940E-002
  0.18580000000000002          4.8119973391294479E-002
  0.18690000000000001          5.0846483558416367E-002
  0.18800000000000000          6.2521629035472870E-002
  0.18910000000000005          7.0420742034912109E-002
  0.19020000000000004          6.1077069491147995E-002
  0.19130000000000003          4.3642170727252960E-002
  0.19240000000000002          4.0236588567495346E-002
  0.19350000000000001          5.4183177649974823E-002
  0.19460000000000005          6.3043549656867981E-002
  0.19570000000000004          5.0118796527385712E-002
  0.19680000000000003          2.8086248785257339E-002
  0.19790000000000002          2.0581161603331566E-002
  0.19900000000000001          2.8755659237504005E-002
  0.20010000000000000          3.2520309090614319E-002
  0.20120000000000005          2.1660633385181427E-002
  0.20230000000000004          9.6893291920423508E-003
  0.20340000000000003          1.0096962563693523E-002
  0.20450000000000002          1.3936838135123253E-002
  0.20560000000000000          5.7760612107813358E-003
  0.20670000000000005         -9.4041461125016212E-003
  0.20780000000000004         -1.2051072902977467E-002
  0.20890000000000003          9.2692376347258687E-004
