 -0.12000000000000000          0.0000000000000000
 -0.11889999999999999          0.0000000000000000
 -0.11780000000000000          0.0000000000000000
 -0.11670000000000000          1.2546758770826116E-011
 -0.11559999999999999          1.3697731317263706E-011
 -0.11449999999999999         -3.8519867850972389E-011
 -0.11340000000000000         -6.0436995685808625E-011
 -0.11230000000000000          8.1728110390422160E-011
 -0.11119999999999999          2.1664800509135773E-010
 -0.11009999999999999         -3.4040520402456309E-011
 -0.10900000000000000         -4.8208020908546700E-010
 -0.10790000000000000         -2.7206739638963029E-010
 -0.10679999999999999          7.1667333179092907E-010
 -0.10569999999999999          1.0246075099473728E-009
 -0.10460000000000000         -4.2161327207246302E-010
 -0.10349999999999999         -1.8818469005310590E-009
 -0.10239999999999999         -6.0493343667644695E-010
 -0.10130000000000000          2.4258637321139531E-009
 -0.10020000000000000          2.5024646799209904E-009
  -9.9099999999999994E-002    -1.8537349433245254E-009
  -9.7999999999999990E-002    -4.8300936583700604E-009
  -9.6899999999999986E-002    -6.5601296617145977E-010
  -9.5799999999999996E-002     6.4044045622324575E-009
  -9.4699999999999993E-002     5.8165876559712615E-009
  -9.3599999999999989E-002    -3.7803609131970006E-009
  -9.2499999999999999E-002    -9.8755217337043177E-009
  -9.1399999999999995E-002    -2.5646735846152069E-009
  -9.0299999999999991E-002     9.5434895541757214E-009
  -8.9200000000000002E-002     9.3253706978657647E-009
  -8.8099999999999984E-002    -4.2171088843190319E-009
  -8.6999999999999994E-002    -1.2694439277538550E-008
  -8.5899999999999990E-002    -3.9121101913508483E-009
  -8.4799999999999986E-002     9.9854222668227521E-009
  -8.3699999999999997E-002     9.7386685382616633E-009
  -8.2599999999999993E-002    -2.9505253795747421E-009
  -8.1499999999999989E-002    -8.7989979746794234E-009
  -8.0399999999999999E-002    -8.1144507779740138E-010
  -7.9299999999999995E-002     5.8461280261212778E-009
  -7.8199999999999992E-002    -3.1210903306266857E-010
  -7.7100000000000002E-002    -7.3377419695930257E-009
  -7.5999999999999984E-002     3.1674864554159798E-012
  -7.4899999999999994E-002     1.1607330208107669E-008
  -7.3799999999999991E-002     4.7740180697530832E-009
  -7.2699999999999987E-002    -1.6707955907691030E-008
  -7.1599999999999997E-002    -2.0919548759934514E-008
  -7.0499999999999993E-002     5.0187098921128381E-009
  -6.9399999999999989E-002     2.8316048172882802E-008
  -6.8300000000000000E-002     1.2550323447158007E-008
  -6.7199999999999996E-002    -2.6888070436825728E-008
  -6.6099999999999992E-002    -3.8678408031955769E-008
  -6.5000000000000002E-002    -6.8551369025726672E-009
  -6.3899999999999985E-002     2.4601028769666300E-008
  -6.2799999999999995E-002     1.2652989767047984E-008
  -6.1699999999999991E-002    -2.5253639179823040E-008
  -6.0599999999999994E-002    -3.9294992149052632E-008
  -5.9499999999999990E-002    -1.9398857631358624E-008
  -5.8399999999999994E-002    -3.7799625651757651E-009
  -5.7299999999999990E-002    -1.5911945538960026E-008
  -5.6199999999999986E-002    -3.1371094166843250E-008
  -5.5099999999999996E-002    -2.4942425014273795E-008
  -5.3999999999999992E-002    -1.7670023666482848E-008
  -5.2899999999999989E-002    -4.2288789359190559E-008
  -5.1799999999999985E-002    -8.0368245392037352E-008
  -5.0699999999999995E-002    -7.9865834834436100E-008
  -4.9599999999999991E-002    -3.7826531240625627E-008
  -4.8499999999999988E-002    -1.9334242651325440E-008
  -4.7399999999999998E-002    -6.9026619087253493E-008
  -4.6299999999999994E-002    -1.3945614796284644E-007
  -4.5199999999999990E-002    -1.5010529352821322E-007
  -4.4099999999999986E-002    -1.0022376528695531E-007
  -4.2999999999999997E-002    -7.1628960540692788E-008
  -4.1899999999999993E-002    -1.1481756700959522E-007
  -4.0799999999999989E-002    -1.8240602628338820E-007
  -3.9699999999999985E-002    -2.0380555554311286E-007
  -3.8599999999999995E-002    -1.8461716422280006E-007
  -3.7499999999999992E-002    -1.8539435586717445E-007
  -3.6399999999999988E-002    -2.2213960448880243E-007
  -3.5299999999999984E-002    -2.4808218768157531E-007
  -3.4199999999999994E-002    -2.3942277493915753E-007
  -3.3099999999999991E-002    -2.4102789097923960E-007
  -3.1999999999999987E-002    -2.9296072057150013E-007
  -3.0899999999999997E-002    -3.5235132145317039E-007
  -2.9799999999999993E-002    -3.4702009088505292E-007
  -2.8699999999999989E-002    -2.9066583806525159E-007
  -2.7599999999999986E-002    -2.7511410394254199E-007
  -2.6499999999999996E-002    -3.4223225497953536E-007
  -2.5399999999999992E-002    -4.1563438912817219E-007
  -2.4299999999999988E-002    -4.0557796410212177E-007
  -2.3199999999999985E-002    -3.3558626455487683E-007
  -2.2099999999999995E-002    -3.0267491979429906E-007
  -2.0999999999999991E-002    -3.3746187000360806E-007
  -1.9899999999999987E-002    -3.6665525726675696E-007
  -1.8799999999999983E-002    -3.3259490805903624E-007
  -1.7699999999999994E-002    -2.7417283376962587E-007
  -1.6599999999999990E-002    -2.5789211122173583E-007
  -1.5499999999999986E-002    -2.6231694505440828E-007
  -1.4399999999999996E-002    -2.1656516935308900E-007
  -1.3299999999999992E-002    -1.2116021252950304E-007
  -1.2199999999999989E-002    -5.4208491917506763E-008
  -1.1099999999999985E-002    -5.2535167327505405E-008
  -9.9999999999999950E-003    -4.6219497562560719E-008
  -8.8999999999999913E-003     4.3425711027111902E-008
  -7.7999999999999875E-003     1.8325084738535224E-007
  -6.6999999999999837E-003     2.7374750288799987E-007
  -5.5999999999999939E-003     2.9017428460065275E-007
  -4.4999999999999901E-003     3.1779154596733861E-007
  -3.3999999999999864E-003     4.1801351358117245E-007
  -2.2999999999999826E-003     5.4568761242990149E-007
  -1.1999999999999927E-003     6.2245209164757398E-007
  -9.9999999999988987E-005     6.5508675106684677E-007
   1.0000000000000148E-003     7.1647951926934184E-007
   2.1000000000000185E-003     8.2024030234606471E-007
   3.2000000000000084E-003     8.9965828919957858E-007
   4.3000000000000121E-003     9.1531637735897675E-007
   5.4000000000000159E-003     9.2203595158935059E-007
   6.5000000000000058E-003     9.8255429747950984E-007
   7.6000000000000234E-003     1.0659842928362195E-006
   8.7000000000000133E-003     1.0897197171289008E-006
   9.8000000000000032E-003     1.0416132454338367E-006
   1.0900000000000021E-002     9.9983390100533143E-007
   1.2000000000000011E-002     1.0142783821720514E-006
   1.3100000000000001E-002     1.0342843097532750E-006
   1.4200000000000018E-002     9.8840484952233965E-007
   1.5300000000000008E-002     8.9032499772656593E-007
   1.6400000000000026E-002     8.1491799619470839E-007
   1.7500000000000016E-002     7.7888836358397384E-007
   1.8600000000000005E-002     7.2121298444471904E-007
   1.9700000000000023E-002     6.0303784721327247E-007
   2.0800000000000013E-002     4.7070398068171926E-007
   2.1900000000000003E-002     3.8144085579006060E-007
   2.3000000000000020E-002     3.1396470490108186E-007
   2.4100000000000010E-002     2.0499199138157564E-007
   2.5200000000000000E-002     5.1991264626849443E-008
   2.6300000000000018E-002    -8.0201566277082748E-008
   2.7400000000000008E-002    -1.5742780590244365E-007
   2.8500000000000025E-002    -2.2847572722639597E-007
   2.9600000000000015E-002    -3.4496235912229167E-007
   3.0700000000000005E-002    -4.8175132860706071E-007
   3.1800000000000023E-002    -5.7385750551475212E-007
   3.2900000000000013E-002    -6.1473718915294739E-007
   3.4000000000000002E-002    -6.6302487766733975E-007
   3.5100000000000020E-002    -7.4674386496553780E-007
   3.6200000000000010E-002    -8.2359781572449720E-007
   3.7300000000000028E-002    -8.4652270970764221E-007
   3.8400000000000017E-002    -8.4281094814286917E-007
   3.9500000000000007E-002    -8.5384698422785732E-007
   4.0600000000000025E-002    -8.7781995716795791E-007
   4.1700000000000015E-002    -8.7562563066967414E-007
   4.2800000000000005E-002    -8.3386225924186874E-007
   4.3900000000000022E-002    -7.8776730561003205E-007
   4.5000000000000012E-002    -7.6856355235577212E-007
   4.6100000000000002E-002    -7.5149426947973552E-007
   4.7200000000000020E-002    -6.8965272248533438E-007
   4.8300000000000010E-002    -5.9413724784462829E-007
   4.9400000000000027E-002    -5.2175477094351663E-007
   5.0500000000000017E-002    -4.8150405973501620E-007
   5.1600000000000007E-002    -4.3798698357022658E-007
   5.2700000000000025E-002    -3.5960709965365822E-007
   5.3800000000000014E-002    -2.6703739308686636E-007
   5.4900000000000004E-002    -1.9803441375643160E-007
   5.6000000000000022E-002    -1.5135222497519862E-007
   5.7100000000000012E-002    -9.4926058125111012E-008
   5.8200000000000002E-002    -2.6364924465838158E-008
   5.9300000000000019E-002     2.6375964523595030E-008
   6.0400000000000009E-002     5.6146923554933892E-008
   6.1500000000000027E-002     9.3785530452805688E-008
   6.2600000000000017E-002     1.5207076842216338E-007
   6.3700000000000007E-002     2.0177428439183132E-007
   6.4800000000000024E-002     2.1240319370008365E-007
   6.5900000000000014E-002     2.0474669781833654E-007
   6.7000000000000004E-002     2.1805610117553442E-007
   6.8100000000000022E-002     2.4965095235529589E-007
   6.9200000000000012E-002     2.6137661279790336E-007
   7.0300000000000029E-002     2.4157083089448861E-007
   7.1400000000000019E-002     2.2503034813325939E-007
   7.2500000000000009E-002     2.3426676420967851E-007
   7.3600000000000027E-002     2.4078721594378294E-007
   7.4700000000000016E-002     2.1246658832296816E-007
   7.5800000000000006E-002     1.7118283324180084E-007
   7.6900000000000024E-002     1.6223906129653187E-007
   7.8000000000000014E-002     1.8011905922321603E-007
   7.9100000000000004E-002     1.7252681061563635E-007
   8.0200000000000021E-002     1.2136730731526768E-007
   8.1300000000000011E-002     7.4893605983561429E-008
   8.2400000000000029E-002     7.4009470552027778E-008
   8.3500000000000019E-002     8.8316667756771494E-008
   8.4600000000000009E-002     6.6398371245668386E-008
   8.5700000000000026E-002     2.2028084245562241E-008
   8.6800000000000016E-002     1.0781870507514668E-008
   8.7900000000000006E-002     3.7392339891084703E-008
   8.9000000000000024E-002     4.1007020001870842E-008
   9.0100000000000013E-002    -1.1724218040853884E-008
   9.1200000000000003E-002    -6.1641621584840323E-008
   9.2300000000000021E-002    -4.4165027190956607E-008
   9.3400000000000011E-002     1.0834737551590479E-008
   9.4500000000000028E-002     1.6105325073567656E-008
   9.5600000000000018E-002    -4.3646476655112565E-008
   9.6700000000000008E-002    -8.6304517310509254E-008
   9.7800000000000026E-002    -5.4989683917483489E-008
   9.8900000000000016E-002    -3.6997322983012282E-009
  0.10000000000000001         -9.1433518534245195E-009
  0.10110000000000002         -5.3550181178252387E-008
  0.10220000000000001         -5.7986849100188920E-008
  0.10330000000000003         -1.2790030368137195E-008
  0.10440000000000002          4.4086641004525973E-009
  0.10550000000000001         -4.4754536077107332E-008
  0.10660000000000003         -8.6064950721720379E-008
  0.10770000000000002         -4.4864822967838336E-008
  0.10880000000000001          3.2323782761523034E-008
  0.10990000000000003          3.6190300534144626E-008
  0.11100000000000002         -3.9917726013527499E-008
  0.11210000000000001         -8.3822691010482231E-008
  0.11320000000000002         -3.0776522663700234E-008
  0.11430000000000001          4.0480635732365045E-008
  0.11540000000000003          2.8347651337412572E-008
  0.11650000000000002         -3.9604135082527137E-008
  0.11760000000000001         -5.3697807089747585E-008
  0.11870000000000003          6.0465645823626346E-009
  0.11980000000000002          4.0710236959284885E-008
  0.12090000000000001         -7.1412320501451632E-009
  0.12200000000000003         -5.9303967958612702E-008
  0.12310000000000001         -2.3456342645999939E-008
  0.12420000000000003          5.5421331524030393E-008
  0.12530000000000002          5.7599915948003400E-008
  0.12640000000000001         -2.6625995630524812E-008
  0.12750000000000003         -7.4584036724445468E-008
  0.12860000000000002         -1.5435652755968476E-008
  0.12970000000000001          6.2277948131850280E-008
  0.13080000000000003          4.4601655702081189E-008
  0.13190000000000002         -3.5722120372838617E-008
  0.13300000000000001         -5.2814481676932701E-008
  0.13410000000000000          1.6638145083902600E-008
  0.13520000000000004          5.9572904831384221E-008
  0.13630000000000003          5.9927143247762160E-009
  0.13740000000000002         -5.9421928710889915E-008
  0.13850000000000001         -2.9382499988628297E-008
  0.13960000000000000          5.5228518647254532E-008
  0.14070000000000005          6.3787780391066917E-008
  0.14180000000000004         -2.2437792068785711E-008
  0.14290000000000003         -7.7747003501826839E-008
  0.14400000000000002         -2.0903872410826807E-008
  0.14510000000000001          6.2206076734128146E-008
  0.14620000000000000          5.0036945253850718E-008
  0.14730000000000004         -3.1670069233769027E-008
  0.14840000000000003         -5.4916650782388388E-008
  0.14950000000000002          1.1231533925126769E-008
  0.15060000000000001          5.6914799984042475E-008
  0.15170000000000000          7.3337038664078591E-009
  0.15280000000000005         -5.8648403467032040E-008
  0.15390000000000004         -3.3083509265452449E-008
  0.15500000000000003          4.9152987458001007E-008
  0.15610000000000002          6.0668327250823495E-008
  0.15720000000000001         -2.1307002384673979E-008
  0.15830000000000000         -7.5608198812915361E-008
  0.15940000000000004         -1.9956404528898020E-008
  0.16050000000000003          6.4200847305073694E-008
  0.16160000000000002          5.4569248675306881E-008
  0.16270000000000001         -2.9331227224815848E-008
  0.16380000000000000         -6.0984255867424508E-008
  0.16490000000000005         -1.8049865421754241E-011
  0.16600000000000004          5.2977853215452342E-008
  0.16710000000000003          1.7461491808035134E-008
  0.16820000000000002         -4.4459831372023473E-008
  0.16930000000000001         -3.0801874828512155E-008
  0.17040000000000000          3.7846877631864118E-008
  0.17150000000000004          5.1104283471659073E-008
  0.17260000000000003         -1.6718805895266087E-008
  0.17370000000000002         -6.3632519697875978E-008
  0.17480000000000001         -1.6233133948162504E-008
  0.17590000000000000          5.6125166736364918E-008
  0.17700000000000005          4.5910461210496578E-008
  0.17810000000000004         -3.0344018853156740E-008
  0.17920000000000003         -5.8996043605930026E-008
  0.18030000000000002         -1.4762981948024390E-009
  0.18140000000000001          5.2036064346339117E-008
  0.18250000000000000          2.3816374650209582E-008
  0.18360000000000004         -3.6712489048795760E-008
  0.18470000000000003         -3.5230840467193048E-008
  0.18580000000000002          2.1607629463460398E-008
  0.18690000000000001          4.1467959732699455E-008
  0.18800000000000000         -6.9819163783790827E-009
  0.18910000000000005         -4.6822563604109746E-008
  0.19020000000000004         -1.4668858128175088E-008
  0.19130000000000003          4.0722628824596541E-008
  0.19240000000000002          3.4774863877373718E-008
  0.19350000000000001         -2.2640490371372834E-008
  0.19460000000000005         -4.3861827947466736E-008
  0.19570000000000004          1.9255743666235503E-009
  0.19680000000000003          4.3873342292499729E-008
  0.19790000000000002          1.9666135386842143E-008
  0.19900000000000001         -3.1539144629277871E-008
  0.20010000000000000         -3.2648348025077212E-008
  0.20120000000000005          1.4318470853424969E-008
  0.20230000000000004          3.6042976603312127E-008
  0.20340000000000003          2.2774306884798534E-009
  0.20450000000000002         -3.1590861482300170E-008
  0.20560000000000000         -1.3829414946542329E-008
  0.20670000000000005          2.5101975609231886E-008
  0.20780000000000004          2.3591418596424774E-008
  0.20890000000000003         -1.5018191135141024E-008
