 -0.12000000000000000          0.0000000000000000     
 -0.11889999999999999          0.0000000000000000     
 -0.11780000000000000          0.0000000000000000     
 -0.11670000000000000          0.0000000000000000     
 -0.11559999999999999          0.0000000000000000     
 -0.11449999999999999          0.0000000000000000     
 -0.11340000000000000          0.0000000000000000     
 -0.11230000000000000         -1.8783080974925700E-020
 -0.11119999999999999          9.6245669595418413E-020
 -0.11009999999999999          1.7260413365686622E-019
 -0.10900000000000000         -1.5471532410452014E-018
 -0.10790000000000000         -1.2718100441349813E-018
 -0.10679999999999999          1.4097897260092367E-017
 -0.10569999999999999          1.2991644934018037E-017
 -0.10460000000000000         -9.0682606179216547E-017
 -0.10349999999999999         -1.2876258697958932E-016
 -0.10239999999999999          4.1496956708221946E-016
 -0.10130000000000000          9.6186721561681556E-016
 -0.10020000000000000         -1.1413875902161288E-015
  -9.9099999999999994E-002    -5.1850380712343148E-015
  -9.7999999999999990E-002    -2.5498807205413560E-016
  -9.6899999999999986E-002     1.9469677402955167E-014
  -9.5799999999999996E-002     2.0868152515794540E-014
  -9.4699999999999993E-002    -4.3772443487780435E-014
  -9.3599999999999989E-002    -1.1435688821673923E-013
  -9.2499999999999999E-002     5.7318719540698504E-015
  -9.1399999999999995E-002     3.3578923062244082E-013
  -9.0299999999999991E-002     3.7095917700472048E-013
  -8.9200000000000002E-002    -4.3907829845937774E-013
  -8.8099999999999984E-002    -1.4344209414013376E-012
  -8.6999999999999994E-002    -6.8824931647934462E-013
  -8.5899999999999990E-002     2.3469570471085222E-012
  -8.4799999999999986E-002     4.3081246035858722E-012
  -8.3699999999999997E-002     7.0297516722647724E-013
  -8.2599999999999993E-002    -7.0571634473715061E-012
  -8.1499999999999989E-002    -1.0216770138238296E-011
  -8.0399999999999999E-002    -2.2866626127326928E-012
  -7.9299999999999995E-002     1.1688939746679061E-011
  -7.8199999999999992E-002     2.0796428815139656E-011
  -7.7100000000000002E-002     2.0186888619044829E-011
  -7.5999999999999984E-002     6.5488682185477209E-012
  -7.4899999999999994E-002    -3.3666285037536881E-011
  -7.3799999999999991E-002    -1.0018631063646311E-010
  -7.2699999999999987E-002    -1.2547972383369910E-010
  -7.1599999999999997E-002     5.3611503257611215E-012
  -7.0499999999999993E-002     2.9590480066232772E-010
  -6.9399999999999989E-002     4.9699760973354046E-010
  -6.8300000000000000E-002     2.5667346026381210E-010
  -6.7199999999999996E-002    -4.5634032663777191E-010
  -6.6099999999999992E-002    -1.1279349676485140E-009
  -6.5000000000000002E-002    -1.0833824948264237E-009
  -6.3899999999999985E-002    -1.6936850533166847E-010
  -6.2799999999999995E-002     1.0750574874762719E-009
  -6.1699999999999991E-002     1.9899821790403394E-009
  -6.0599999999999994E-002     2.3132566973060875E-009
  -5.9499999999999990E-002     1.9120254268756298E-009
  -5.8399999999999994E-002     2.9167013249065121E-010
  -5.7299999999999990E-002    -2.9310074367572270E-009
  -5.6199999999999986E-002    -6.7778103129967349E-009
  -5.5099999999999996E-002    -8.6977092195184014E-009
  -5.3999999999999992E-002    -6.3408718276036780E-009
  -5.2899999999999989E-002     4.3356773726799247E-010
  -5.1799999999999985E-002     9.6549275241386567E-009
  -5.0699999999999995E-002     1.8844652061034139E-008
  -4.9599999999999991E-002     2.5264542458103278E-008
  -4.8499999999999988E-002     2.4449672508808362E-008
  -4.7399999999999998E-002     1.0782630788241931E-008
  -4.6299999999999994E-002    -1.7433050558679497E-008
  -4.5199999999999990E-002    -5.2580396925350215E-008
  -4.4099999999999986E-002    -7.9019272902769444E-008
  -4.2999999999999997E-002    -8.1517875116787764E-008
  -4.1899999999999993E-002    -5.3148369261180051E-008
  -4.0799999999999989E-002     3.4846723284687187E-009
  -3.9699999999999985E-002     7.8818537474489858E-008
  -3.8599999999999995E-002     1.5688432597471547E-007
  -3.7499999999999992E-002     2.1522778581584134E-007
  -3.6399999999999988E-002     2.3038846563849802E-007
  -3.5299999999999984E-002     1.8811607560564880E-007
  -3.4199999999999994E-002     8.9489198273895454E-008
  -3.3099999999999991E-002    -5.0184720379320424E-008
  -3.1999999999999987E-002    -2.0151192359207926E-007
  -3.0899999999999997E-002    -3.1673968692302878E-007
  -2.9799999999999993E-002    -3.3552629474797868E-007
  -2.8699999999999989E-002    -2.1478807354924356E-007
  -2.7599999999999986E-002     3.3933265086716347E-008
  -2.6499999999999996E-002     3.3844247582237585E-007
  -2.5399999999999992E-002     6.0311151628411608E-007
  -2.4299999999999988E-002     7.5050667192044784E-007
  -2.3199999999999985E-002     7.2375274839941994E-007
  -2.2099999999999995E-002     4.6187415136955678E-007
  -2.0999999999999991E-002    -9.7418343614208425E-008
  -1.9899999999999987E-002    -9.6972689789254218E-007
  -1.8799999999999983E-002    -2.0832103473367169E-006
  -1.7699999999999994E-002    -3.3012602216331288E-006
  -1.6599999999999990E-002    -4.4920921027369332E-006
  -1.5499999999999986E-002    -5.5788282224966679E-006
  -1.4399999999999996E-002    -6.5433764575573150E-006
  -1.3299999999999992E-002    -7.4200847848260310E-006
  -1.2199999999999989E-002    -8.3063332567689940E-006
  -1.1099999999999985E-002    -9.3638482212554663E-006
  -9.9999999999999950E-003    -1.0786420716613065E-005
  -8.8999999999999913E-003    -1.2769619388564024E-005
  -7.7999999999999875E-003    -1.5523550246143714E-005
  -6.6999999999999837E-003    -1.9291597709525377E-005
  -5.5999999999999939E-003    -2.4301878511323594E-005
  -4.4999999999999901E-003    -3.0677721952088177E-005
  -3.3999999999999864E-003    -3.8436890463344753E-005
  -2.2999999999999826E-003    -4.7624638682464138E-005
  -1.1999999999999927E-003    -5.8437060943106189E-005
  -9.9999999999988987E-005    -7.1174086770042777E-005
   1.0000000000000148E-003    -8.6099120380822569E-005
   2.1000000000000185E-003    -1.0344798647565767E-004
   3.2000000000000084E-003    -1.2363864516373724E-004
   4.3000000000000121E-003    -1.4742284838575870E-004
   5.4000000000000159E-003    -1.7573610239196569E-004
   6.5000000000000058E-003    -2.0938745001330972E-004
   7.6000000000000234E-003    -2.4894616217352450E-004
   8.7000000000000133E-003    -2.9494785121642053E-004
   9.8000000000000032E-003    -3.4813757520169020E-004
   1.0900000000000021E-002    -4.0943708154372871E-004
   1.2000000000000011E-002    -4.7974821063689888E-004
   1.3100000000000001E-002    -5.5989355314522982E-004
   1.4200000000000018E-002    -6.5074057783931494E-004
   1.5300000000000008E-002    -7.5334851862862706E-004
   1.6400000000000026E-002    -8.6900900350883603E-004
   1.7500000000000016E-002    -9.9923112429678440E-004
   1.8600000000000005E-002    -1.1456529609858990E-003
   1.9700000000000023E-002    -1.3098121853545308E-003
   2.0800000000000013E-002    -1.4927549054846168E-003
   2.1900000000000003E-002    -1.6948446864262223E-003
   2.3000000000000020E-002    -1.9162868848070502E-003
   2.4100000000000010E-002    -2.1578629966825247E-003
   2.5200000000000000E-002    -2.4208456743508577E-003
   2.6300000000000018E-002    -2.7059754356741905E-003
   2.7400000000000008E-002    -3.0127514619380236E-003
   2.8500000000000025E-002    -3.3398510422557592E-003
   2.9600000000000015E-002    -3.6862695124000311E-003
   3.0700000000000005E-002    -4.0518729947507381E-003
   3.1800000000000023E-002    -4.4362079352140427E-003
   3.2900000000000013E-002    -4.8370547592639923E-003
   3.4000000000000002E-002    -5.2503175102174282E-003
   3.5100000000000020E-002    -5.6710438802838326E-003
   3.6200000000000010E-002    -6.0944468714296818E-003
   3.7300000000000028E-002    -6.5158363431692123E-003
   3.8400000000000017E-002    -6.9297798909246922E-003
   3.9500000000000007E-002    -7.3295719921588898E-003
   4.0600000000000025E-002    -7.7070463448762894E-003
   4.1700000000000015E-002    -8.0526433885097504E-003
   4.2800000000000005E-002    -8.3560077473521233E-003
   4.3900000000000022E-002    -8.6074229329824448E-003
   4.5000000000000012E-002    -8.7980274111032486E-003
   4.6100000000000002E-002    -8.9176995679736137E-003
   4.7200000000000020E-002    -8.9541217312216759E-003
   4.8300000000000010E-002    -8.8933845981955528E-003
   4.9400000000000027E-002    -8.7217679247260094E-003
   5.0500000000000017E-002    -8.4290653467178345E-003
   5.1600000000000007E-002    -8.0073056742548943E-003
   5.2700000000000025E-002    -7.4470355175435543E-003
   5.3800000000000014E-002    -6.7369430325925350E-003
   5.4900000000000004E-002    -5.8661634102463722E-003
   5.6000000000000022E-002    -4.8271859996020794E-003
   5.7100000000000012E-002    -3.6180077586323023E-003
   5.8200000000000002E-002    -2.2397022694349289E-003
   5.9300000000000019E-002    -6.9295958383008838E-004
   6.0400000000000009E-002     1.0211829794570804E-003
   6.1500000000000027E-002     2.8992036823183298E-003
   6.2600000000000017E-002     4.9318997189402580E-003
   6.3700000000000007E-002     7.1045910008251667E-003
   6.4800000000000024E-002     9.3992520123720169E-003
   6.5900000000000014E-002     1.1795189231634140E-002
   6.7000000000000004E-002     1.4269451610743999E-002
   6.8100000000000022E-002     1.6797717660665512E-002
   6.9200000000000012E-002     1.9353987649083138E-002
   7.0300000000000029E-002     2.1905628964304924E-002
   7.1400000000000019E-002     2.4412222206592560E-002
   7.2500000000000009E-002     2.6831265538930893E-002
   7.3600000000000027E-002     2.9126331210136414E-002
   7.4700000000000016E-002     3.1266592442989349E-002
   7.5800000000000006E-002     3.3215641975402832E-002
   7.6900000000000024E-002     3.4928772598505020E-002
   7.8000000000000014E-002     3.6360818892717361E-002
   7.9100000000000004E-002     3.7474945187568665E-002
   8.0200000000000021E-002     3.8243036717176437E-002
   8.1300000000000011E-002     3.8640316575765610E-002
   8.2400000000000029E-002     3.8641244173049927E-002
   8.3500000000000019E-002     3.8221865892410278E-002
   8.4600000000000009E-002     3.7364333868026733E-002
   8.5700000000000026E-002     3.6058474332094193E-002
   8.6800000000000016E-002     3.4302379935979843E-002
   8.7900000000000006E-002     3.2103117555379868E-002
   8.9000000000000024E-002     2.9477687552571297E-002
   9.0100000000000013E-002     2.6448464021086693E-002
   9.1200000000000003E-002     2.3037092760205269E-002
   9.2300000000000021E-002     1.9267003983259201E-002
   9.3400000000000011E-002     1.5175268985331059E-002
   9.4500000000000028E-002     1.0816328227519989E-002
   9.5600000000000018E-002     6.2515516765415668E-003
   9.6700000000000008E-002     1.5359972603619099E-003
   9.7800000000000026E-002    -3.2824939116835594E-003
   9.8900000000000016E-002    -8.1499489024281502E-003
  0.10000000000000001         -1.2999500147998333E-002
  0.10110000000000002         -1.7757331952452660E-002
  0.10220000000000001         -2.2355761379003525E-002
  0.10330000000000003         -2.6738712564110756E-002
  0.10440000000000002         -3.0853630974888802E-002
  0.10550000000000001         -3.4646835178136826E-002
  0.10660000000000003         -3.8066022098064423E-002
  0.10770000000000002         -4.1065644472837448E-002
  0.10880000000000001         -4.3607819825410843E-002
  0.10990000000000003         -4.5662306249141693E-002
  0.11100000000000002         -4.7207139432430267E-002
  0.11210000000000001         -4.8229139298200607E-002
  0.11320000000000002         -4.8726372420787811E-002
  0.11430000000000001         -4.8702713102102280E-002
  0.11540000000000003         -4.8162221908569336E-002
  0.11650000000000002         -4.7116186469793320E-002
  0.11760000000000001         -4.5593492686748505E-002
  0.11870000000000003         -4.3635834008455276E-002
  0.11980000000000002         -4.1284143924713135E-002
  0.12090000000000001         -3.8571603596210480E-002
  0.12200000000000003         -3.5534128546714783E-002
  0.12310000000000001         -3.2226223498582840E-002
  0.12420000000000003         -2.8714548796415329E-002
  0.12530000000000002         -2.5055913254618645E-002
  0.12640000000000001         -2.1292759105563164E-002
  0.12750000000000003         -1.7469150945544243E-002
  0.12860000000000002         -1.3639727607369423E-002
  0.12970000000000001         -9.8622860386967659E-003
  0.13080000000000003         -6.1850002966821194E-003
  0.13190000000000002         -2.6453277096152306E-003
  0.13300000000000001          7.2286382783204317E-004
  0.13410000000000000          3.8852393627166748E-003
  0.13520000000000004          6.8119913339614868E-003
  0.13630000000000003          9.4831334426999092E-003
  0.13740000000000002          1.1882922612130642E-002
  0.13850000000000001          1.3994154520332813E-002
  0.13960000000000000          1.5804147347807884E-002
  0.14070000000000005          1.7314478754997253E-002
  0.14180000000000004          1.8538208678364754E-002
  0.14290000000000003          1.9485702738165855E-002
  0.14400000000000002          2.0157834514975548E-002
  0.14510000000000001          2.0557370036840439E-002
  0.14620000000000000          2.0703028887510300E-002
  0.14730000000000004          2.0625503733754158E-002
  0.14840000000000003          2.0350741222500801E-002
  0.14950000000000002          1.9893167540431023E-002
  0.15060000000000001          1.9267050549387932E-002
  0.15170000000000000          1.8497901037335396E-002
  0.15280000000000005          1.7616577446460724E-002
  0.15390000000000004          1.6645587980747223E-002
  0.15500000000000003          1.5598875470459461E-002
  0.15610000000000002          1.4494784176349640E-002
  0.15720000000000001          1.3360316865146160E-002
  0.15830000000000000          1.2219006195664406E-002
  0.15940000000000004          1.1080864816904068E-002
  0.16050000000000003          9.9501144140958786E-003
  0.16160000000000002          8.8394479826092720E-003
  0.16270000000000001          7.7691366896033287E-003
  0.16380000000000000          6.7532570101320744E-003
  0.16490000000000005          5.7936655357480049E-003
  0.16600000000000004          4.8894132487475872E-003
  0.16710000000000003          4.0470072999596596E-003
  0.16820000000000002          3.2748989760875702E-003
  0.16930000000000001          2.5719676632434130E-003
  0.17040000000000000          1.9303483422845602E-003
  0.17150000000000004          1.3496915344148874E-003
  0.17260000000000003          8.3943264326080680E-004
  0.17370000000000002          4.0286305011250079E-004
  0.17480000000000001          2.6978519599651918E-005
  0.17590000000000000         -3.0509731732308865E-004
  0.17700000000000005         -5.9511361178010702E-004
  0.17810000000000004         -8.3147105760872364E-004
  0.17920000000000003         -1.0098008206114173E-003
  0.18030000000000002         -1.1436376953497529E-003
  0.18140000000000001         -1.2503806501626968E-003
  0.18250000000000000         -1.3335450785234571E-003
  0.18360000000000004         -1.3865641085430980E-003
  0.18470000000000003         -1.4095983933657408E-003
  0.18580000000000002         -1.4127354370430112E-003
  0.18690000000000001         -1.4026558492332697E-003
  0.18800000000000000         -1.3763899914920330E-003
  0.18910000000000005         -1.3325216714292765E-003
  0.19020000000000004         -1.2804322177544236E-003
  0.19130000000000003         -1.2307645520195365E-003
  0.19240000000000002         -1.1813872260972857E-003
  0.19350000000000001         -1.1217209976166487E-003
  0.19460000000000005         -1.0506308171898127E-003
  0.19570000000000004         -9.8115985747426748E-004
  0.19680000000000003         -9.2381163267418742E-004
  0.19790000000000002         -8.7305717170238495E-004
  0.19900000000000001         -8.1762118497863412E-004
  0.20010000000000000         -7.5865635881200433E-004
  0.20120000000000005         -7.0856785168871284E-004
  0.20230000000000004         -6.7250954452902079E-004
  0.20340000000000003         -6.4081198070198298E-004
  0.20450000000000002         -6.0411827871575952E-004
  0.20560000000000000         -5.6794320698827505E-004
  0.20670000000000005         -5.4466794244945049E-004
  0.20780000000000004         -5.3540698718279600E-004
  0.20890000000000003         -5.2864762255921960E-004
