 -0.12000000000000000          0.0000000000000000     
 -0.11889999999999999          0.0000000000000000     
 -0.11780000000000000          1.0369223673478700E-005
 -0.11670000000000000         -5.7232368817494716E-006
 -0.11559999999999999         -4.2934650991810486E-005
 -0.11449999999999999         -3.8957938386374735E-007
 -0.11340000000000000          9.4690716650802642E-005
 -0.11230000000000000          3.1441515602637082E-005
 -0.11119999999999999         -1.4012589235790074E-004
 -0.11009999999999999         -9.9468052212614566E-006
 -0.10900000000000000          3.5118305822834373E-004
 -0.10790000000000000          7.0352543843910098E-005
 -0.10679999999999999         -1.0058366460725665E-003
 -0.10569999999999999         -1.1534411460161209E-003
 -0.10460000000000000          9.8876503761857748E-004
 -0.10349999999999999          3.2284290064126253E-003
 -0.10239999999999999          1.7115187365561724E-003
 -0.10130000000000000         -2.9275352135300636E-003
 -0.10020000000000000         -4.6732625924050808E-003
  -9.9099999999999994E-002    -3.8570162723772228E-004
  -9.7999999999999990E-002     4.0956581942737103E-003
  -9.6899999999999986E-002     1.4647929929196835E-003
  -9.5799999999999996E-002    -4.8546516336500645E-003
  -9.4699999999999993E-002    -3.7123099900782108E-003
  -9.3599999999999989E-002     6.4507853239774704E-003
  -9.2499999999999999E-002     1.1895681731402874E-002
  -9.1399999999999995E-002     2.4195099249482155E-003
  -9.0299999999999991E-002    -1.0690496303141117E-002
  -8.9200000000000002E-002    -7.6328422874212265E-003
  -8.8099999999999984E-002     1.0320319794118404E-002
  -8.6999999999999994E-002     1.8833955749869347E-002
  -8.5899999999999990E-002     4.0515661239624023E-003
  -8.4799999999999986E-002    -1.5296828001737595E-002
  -8.3699999999999997E-002    -1.2509934604167938E-002
  -8.2599999999999993E-002     8.8678151369094849E-003
  -8.1499999999999989E-002     1.9944021478295326E-002
  -8.0399999999999999E-002     8.7499916553497314E-003
  -7.9299999999999995E-002    -3.2657007686793804E-003
  -7.8199999999999992E-002     4.3235621415078640E-003
  -7.7100000000000002E-002     1.9254690036177635E-002
  -7.5999999999999984E-002     1.8021937459707260E-002
  -7.4899999999999994E-002     6.3531855121254921E-003
  -7.3799999999999991E-002     1.1512287892401218E-002
  -7.2699999999999987E-002     3.5368539392948151E-002
  -7.1599999999999997E-002     4.5220341533422470E-002
  -7.0499999999999993E-002     2.4615025147795677E-002
  -6.9399999999999989E-002     6.7414576187729836E-003
  -6.8300000000000000E-002     3.0033474788069725E-002
  -6.7199999999999996E-002     7.6328597962856293E-002
  -6.6099999999999992E-002     9.0159378945827484E-002
  -6.5000000000000002E-002     6.0222923755645752E-002
  -6.3899999999999985E-002     4.2104501277208328E-002
  -6.2799999999999995E-002     8.0374293029308319E-002
  -6.1699999999999991E-002    0.14099857211112976     
  -6.0599999999999994E-002    0.15796442329883575     
  -5.9499999999999990E-002    0.12972638010978699     
  -5.8399999999999994E-002    0.12231674045324326     
  -5.7299999999999990E-002    0.17255882918834686     
  -5.6199999999999986E-002    0.23566071689128876     
  -5.5099999999999996E-002    0.25512737035751343     
  -5.3999999999999992E-002    0.24714265763759613     
  -5.2899999999999989E-002    0.27072954177856445     
  -5.1799999999999985E-002    0.33316937088966370     
  -5.0699999999999995E-002    0.38101887702941895     
  -4.9599999999999991E-002    0.39013993740081787     
  -4.8499999999999988E-002    0.40864282846450806     
  -4.7399999999999998E-002    0.47824978828430176     
  -4.6299999999999994E-002    0.55755019187927246     
  -4.5199999999999990E-002    0.57790875434875488     
  -4.4099999999999986E-002    0.55553269386291504     
  -4.2999999999999997E-002    0.58032470941543579     
  -4.1899999999999993E-002    0.68313527107238770     
  -4.0799999999999989E-002    0.77865856885910034     
  -3.9699999999999985E-002    0.78003686666488647     
  -3.8599999999999995E-002    0.72472494840621948     
  -3.7499999999999992E-002    0.72224479913711548     
  -3.6399999999999988E-002    0.79713302850723267     
  -3.5299999999999984E-002    0.85599452257156372     
  -3.4199999999999994E-002    0.82507127523422241     
  -3.3099999999999991E-002    0.74988496303558350     
  -3.1999999999999987E-002    0.71408212184906006     
  -3.0899999999999997E-002    0.70765173435211182     
  -2.9799999999999993E-002    0.65054708719253540     
  -2.8699999999999989E-002    0.52566164731979370     
  -2.7599999999999986E-002    0.40665146708488464     
  -2.6499999999999996E-002    0.33221235871315002     
  -2.5399999999999992E-002    0.23243680596351624     
  -2.4299999999999988E-002     2.9646551236510277E-002
  -2.3199999999999985E-002   -0.23393326997756958     
  -2.2099999999999995E-002   -0.44917851686477661     
  -2.0999999999999991E-002   -0.60146194696426392     
  -1.9899999999999987E-002   -0.79780536890029907     
  -1.8799999999999983E-002    -1.1134747266769409     
  -1.7699999999999994E-002    -1.4762719869613647     
  -1.6599999999999990E-002    -1.7721315622329712     
  -1.5499999999999986E-002    -2.0095798969268799     
  -1.4399999999999996E-002    -2.2959380149841309     
  -1.3299999999999992E-002    -2.6651203632354736     
  -1.2199999999999989E-002    -3.0235238075256348     
  -1.1099999999999985E-002    -3.2912604808807373     
  -9.9999999999999950E-003    -3.5216088294982910     
  -8.8999999999999913E-003    -3.8059115409851074     
  -7.7999999999999875E-003    -4.1213531494140625     
  -6.6999999999999837E-003    -4.3521509170532227     
  -5.5999999999999939E-003    -4.4591569900512695     
  -4.4999999999999901E-003    -4.5317015647888184     
  -3.3999999999999864E-003    -4.6405911445617676     
  -2.2999999999999826E-003    -4.7266154289245605     
  -1.1999999999999927E-003    -4.6799917221069336     
  -9.9999999999988987E-005    -4.5096950531005859     
   1.0000000000000148E-003    -4.3107800483703613     
   2.1000000000000185E-003    -4.1112747192382812     
   3.2000000000000084E-003    -3.8296246528625488     
   4.3000000000000121E-003    -3.4012553691864014     
   5.4000000000000159E-003    -2.8857755661010742     
   6.5000000000000058E-003    -2.3707048892974854     
   7.6000000000000234E-003    -1.8466567993164062     
   8.7000000000000133E-003    -1.2207629680633545     
   9.8000000000000032E-003   -0.46987923979759216     
   1.0900000000000021E-002    0.31642222404479980     
   1.2000000000000011E-002     1.0580078363418579     
   1.3100000000000001E-002     1.7851481437683105     
   1.4200000000000018E-002     2.5795516967773438     
   1.5300000000000008E-002     3.4246933460235596     
   1.6400000000000026E-002     4.2259316444396973     
   1.7500000000000016E-002     4.9362382888793945     
   1.8600000000000005E-002     5.6108913421630859     
   1.9700000000000023E-002     6.2945523262023926     
   2.0800000000000013E-002     6.9339747428894043     
   2.1900000000000003E-002     7.4409408569335938     
   2.3000000000000020E-002     7.8130364418029785     
   2.4100000000000010E-002     8.1238250732421875     
   2.5200000000000000E-002     8.3996324539184570     
   2.6300000000000018E-002     8.5718650817871094     
   2.7400000000000008E-002     8.5767965316772461     
   2.8500000000000025E-002     8.4378137588500977     
   2.9600000000000015E-002     8.2198781967163086     
   3.0700000000000005E-002     7.9331240653991699     
   3.1800000000000023E-002     7.5303292274475098     
   3.2900000000000013E-002     6.9959263801574707     
   3.4000000000000002E-002     6.3762812614440918     
   3.5100000000000020E-002     5.7100615501403809     
   3.6200000000000010E-002     4.9751429557800293     
   3.7300000000000028E-002     4.1434154510498047     
   3.8400000000000017E-002     3.2492363452911377     
   3.9500000000000007E-002     2.3599257469177246     
   4.0600000000000025E-002     1.4901556968688965     
   4.1700000000000015E-002    0.61344224214553833     
   4.2800000000000005E-002   -0.29249942302703857     
   4.3900000000000022E-002    -1.1968445777893066     
   4.5000000000000012E-002    -2.0435273647308350     
   4.6100000000000002E-002    -2.8127887248992920     
   4.7200000000000020E-002    -3.5144646167755127     
   4.8300000000000010E-002    -4.1652536392211914     
   4.9400000000000027E-002    -4.7476878166198730     
   5.0500000000000017E-002    -5.2498354911804199     
   5.1600000000000007E-002    -5.6676411628723145     
   5.2700000000000025E-002    -5.9891452789306641     
   5.3800000000000014E-002    -6.2107977867126465     
   5.4900000000000004E-002    -6.3393964767456055     
   5.6000000000000022E-002    -6.3878707885742188     
   5.7100000000000012E-002    -6.3629779815673828     
   5.8200000000000002E-002    -6.2524566650390625     
   5.9300000000000019E-002    -6.0593509674072266     
   6.0400000000000009E-002    -5.8035850524902344     
   6.1500000000000027E-002    -5.5075774192810059     
   6.2600000000000017E-002    -5.1543421745300293     
   6.3700000000000007E-002    -4.7376160621643066     
   6.4800000000000024E-002    -4.2779340744018555     
   6.5900000000000014E-002    -3.8184409141540527     
   6.7000000000000004E-002    -3.3683238029479980     
   6.8100000000000022E-002    -2.8968324661254883     
   6.9200000000000012E-002    -2.3925762176513672     
   7.0300000000000029E-002    -1.8935431241989136     
   7.1400000000000019E-002    -1.4431651830673218     
   7.2500000000000009E-002    -1.0267605781555176     
   7.3600000000000027E-002   -0.60292088985443115     
   7.4700000000000016E-002   -0.17879712581634521     
   7.5800000000000006E-002    0.18563449382781982     
   7.6900000000000024E-002    0.46760010719299316     
   7.8000000000000014E-002    0.72271388769149780     
   7.9100000000000004E-002     1.0047726631164551     
   8.0200000000000021E-002     1.2750704288482666     
   8.1300000000000011E-002     1.4511773586273193     
   8.2400000000000029E-002     1.5310319662094116     
   8.3500000000000019E-002     1.6023463010787964     
   8.4600000000000009E-002     1.7174066305160522     
   8.5700000000000026E-002     1.8165725469589233     
   8.6800000000000016E-002     1.8201338052749634     
   8.7900000000000006E-002     1.7571244239807129     
   8.9000000000000024E-002     1.7212703227996826     
   9.0100000000000013E-002     1.7289093732833862     
   9.1200000000000003E-002     1.6940828561782837     
   9.2300000000000021E-002     1.5683693885803223     
   9.3400000000000011E-002     1.4276309013366699     
   9.4500000000000028E-002     1.3661457300186157     
   9.5600000000000018E-002     1.3454647064208984     
   9.6700000000000008E-002     1.2504087686538696     
   9.7800000000000026E-002     1.0653164386749268     
   9.8900000000000016E-002    0.90899604558944702     
  0.10000000000000001         0.85910356044769287     
  0.10110000000000002         0.83785450458526611     
  0.10220000000000001         0.73094797134399414     
  0.10330000000000003         0.56328487396240234     
  0.10440000000000002         0.45963627099990845     
  0.10550000000000001         0.44925850629806519     
  0.10660000000000003         0.42035445570945740     
  0.10770000000000002         0.29744708538055420     
  0.10880000000000001         0.16664554178714752     
  0.10990000000000003         0.14554496109485626     
  0.11100000000000002         0.19462315738201141     
  0.11210000000000001         0.16786934435367584     
  0.11320000000000002          3.3770900219678879E-002
  0.11430000000000001         -6.6777147352695465E-002
  0.11540000000000003         -2.9581317678093910E-002
  0.11650000000000002          5.2559521049261093E-002
  0.11760000000000001          2.7023309841752052E-002
  0.11870000000000003         -9.0241946280002594E-002
  0.11980000000000002        -0.14280836284160614     
  0.12090000000000001         -7.2782091796398163E-002
  0.12200000000000003         -7.0356396026909351E-003
  0.12310000000000001         -5.7953607290983200E-002
  0.12420000000000003        -0.14879609644412994     
  0.12530000000000002        -0.13677500188350677     
  0.12640000000000001         -3.9344251155853271E-002
  0.12750000000000003         -9.1277919709682465E-003
  0.12860000000000002         -9.6823222935199738E-002
  0.12970000000000001        -0.16656136512756348     
  0.13080000000000003        -0.10385893285274506     
  0.13190000000000002          4.2449184693396091E-003
  0.13300000000000001         -6.9573661312460899E-004
  0.13410000000000000        -0.10638011246919632     
  0.13520000000000004        -0.14658471941947937     
  0.13630000000000003         -5.5230084806680679E-002
  0.13740000000000002          3.2010857015848160E-002
  0.13850000000000001         -1.3172388076782227E-002
  0.13960000000000000        -0.11427733302116394     
  0.14070000000000005        -0.10849446803331375     
  0.14180000000000004          2.1116847638040781E-003
  0.14290000000000003          5.2410572767257690E-002
  0.14400000000000002         -3.1286008656024933E-002
  0.14510000000000001        -0.11800479888916016     
  0.14620000000000000         -7.2250142693519592E-002
  0.14730000000000004          3.8760654628276825E-002
  0.14840000000000003          5.0095260143280029E-002
  0.14950000000000002         -4.9281876534223557E-002
  0.15060000000000001        -0.10262243449687958     
  0.15170000000000000         -2.7807572856545448E-002
  0.15280000000000005          5.8725371956825256E-002
  0.15390000000000004          2.5586197152733803E-002
  0.15500000000000003         -7.1013517677783966E-002
  0.15610000000000002         -7.6973952353000641E-002
  0.15720000000000001          1.9003121182322502E-002
  0.15830000000000000          6.8079851567745209E-002
  0.15940000000000004         -6.5322839654982090E-003
  0.16050000000000003         -8.9946210384368896E-002
  0.16160000000000002         -5.1897447556257248E-002
  0.16270000000000001          5.2011836320161819E-002
  0.16380000000000000          6.5281063318252563E-002
  0.16490000000000005         -3.0369888991117477E-002
  0.16600000000000004         -8.8602066040039062E-002
  0.16710000000000003         -2.2425577044487000E-002
  0.16820000000000002          6.5512910485267639E-002
  0.16930000000000001          4.2842812836170197E-002
  0.17040000000000000         -5.1656279712915421E-002
  0.17150000000000004         -7.1848571300506592E-002
  0.17260000000000003          1.0528768412768841E-002
  0.17370000000000002          6.7023053765296936E-002
  0.17480000000000001          1.2604596093297005E-002
  0.17590000000000000         -6.5811485052108765E-002
  0.17700000000000005         -4.6994455158710480E-002
  0.17810000000000004          3.8362942636013031E-002
  0.17920000000000003          5.8565560728311539E-002
  0.18030000000000002         -1.5544136986136436E-002
  0.18140000000000001         -6.8658560514450073E-002
  0.18250000000000000         -2.0557889714837074E-002
  0.18360000000000004          5.2832182496786118E-002
  0.18470000000000003          3.9557136595249176E-002
  0.18580000000000002         -3.6867149174213409E-002
  0.18690000000000001         -5.7783443480730057E-002
  0.18800000000000000          7.1541182696819305E-003
  0.18910000000000005          5.6397616863250732E-002
  0.19020000000000004          1.5600442886352539E-002
  0.19130000000000003         -5.0267785787582397E-002
  0.19240000000000002         -3.9941139519214630E-002
  0.19350000000000001          2.8811005875468254E-002
  0.19460000000000005          4.9779642373323441E-002
  0.19570000000000004         -7.9003535211086273E-003
  0.19680000000000003         -5.5044017732143402E-002
  0.19790000000000002         -2.0965479314327240E-002
  0.19900000000000001          4.1029423475265503E-002
  0.20010000000000000          3.8288600742816925E-002
  0.20120000000000005         -2.1418578922748566E-002
  0.20230000000000004         -4.6853214502334595E-002
  0.20340000000000003         -3.4961095079779625E-003
  0.20450000000000002          3.9192903786897659E-002
  0.20560000000000000          1.8253965303301811E-002
  0.20670000000000005         -2.9472937807440758E-002
  0.20780000000000004         -3.0033616349101067E-002
  0.20890000000000003          1.3607257977128029E-002
