 -0.12000000000000000          0.0000000000000000     
 -0.11889999999999999          0.0000000000000000     
 -0.11780000000000000          0.0000000000000000     
 -0.11670000000000000          0.0000000000000000     
 -0.11559999999999999          0.0000000000000000     
 -0.11449999999999999          0.0000000000000000     
 -0.11340000000000000          0.0000000000000000     
 -0.11230000000000000          0.0000000000000000     
 -0.11119999999999999          0.0000000000000000     
 -0.11009999999999999          0.0000000000000000     
 -0.10900000000000000          1.6194572854936465E-024
 -0.10790000000000000         -6.9243985672547693E-024
 -0.10679999999999999         -1.6400598079831226E-023
 -0.10569999999999999          1.0020320108484994E-022
 -0.10460000000000000          1.0828910740489946E-022
 -0.10349999999999999         -8.1234083888304864E-022
 -0.10239999999999999         -7.0387758885559983E-022
 -0.10130000000000000          4.7393753443719706E-021
 -0.10020000000000000          4.5866668173021713E-021
  -9.9099999999999994E-002    -2.1571745926737772E-020
  -9.7999999999999990E-002    -2.6296809996380939E-020
  -9.6899999999999986E-002     7.9709301637066234E-020
  -9.5799999999999996E-002     1.2618083190052671E-019
  -9.4699999999999993E-002    -2.4727468397961130E-019
  -9.3599999999999989E-002    -5.2137157820065535E-019
  -9.2499999999999999E-002     6.5384563897557671E-019
  -9.1399999999999995E-002     1.9570818255450961E-018
  -9.0299999999999991E-002    -1.3332334778934487E-018
  -8.9200000000000002E-002    -6.8042264186417578E-018
  -8.8099999999999984E-002     7.5265086388017561E-019
  -8.6999999999999994E-002     2.0919083362833300E-017
  -8.5899999999999990E-002     1.0266519085477401E-017
  -8.4799999999999986E-002    -5.2016422331062142E-017
  -8.3699999999999997E-002    -6.1562513425120159E-017
  -8.2599999999999993E-002     9.2077609886340276E-017
  -8.1499999999999989E-002     2.1153033201120447E-016
  -8.0399999999999999E-002    -7.8229170446659200E-017
  -7.9299999999999995E-002    -5.2477846837801372E-016
  -7.8199999999999992E-002    -1.3824175916209180E-016
  -7.7100000000000002E-002     1.0487342560060067E-015
  -7.5999999999999984E-002     8.3987059547099559E-016
  -7.4899999999999994E-002    -1.8489344339692616E-015
  -7.3799999999999991E-002    -2.8076554515826194E-015
  -7.2699999999999987E-002     2.6290155677319771E-015
  -7.1599999999999997E-002     7.9975571860000684E-015
  -7.0499999999999993E-002    -5.9825794127761384E-016
  -6.9399999999999989E-002    -1.8130216769616896E-014
  -6.8300000000000000E-002    -1.2416831309620870E-014
  -6.7199999999999996E-002     2.7658758055691852E-014
  -6.6099999999999992E-002     4.5755046073573530E-014
  -6.5000000000000002E-002    -1.7418990308861772E-014
  -6.3899999999999985E-002    -9.5111303544375553E-014
  -6.2799999999999995E-002    -3.4474867757630992E-014
  -6.1699999999999991E-002     1.4073114960704014E-013
  -6.0599999999999994E-002     1.4105878195103810E-013
  -5.9499999999999990E-002    -1.6820580843977806E-013
  -5.8399999999999994E-002    -3.4917644405225989E-013
  -5.7299999999999990E-002     1.1233630806172304E-013
  -5.6199999999999986E-002     7.4918391802791806E-013
  -5.5099999999999996E-002     3.2213259295275909E-013
  -5.3999999999999992E-002    -1.1738098557381726E-012
  -5.2899999999999989E-002    -1.5429056686791509E-012
  -5.1799999999999985E-002     7.9778946036196396E-013
  -5.0699999999999995E-002     3.2541387119666698E-012
  -4.9599999999999991E-002     1.3189293407434022E-012
  -4.8499999999999988E-002    -4.0152347592636861E-012
  -4.7399999999999998E-002    -4.8802008441317657E-012
  -4.6299999999999994E-002     2.5639750739214762E-012
  -4.5199999999999990E-002     8.7029749726297290E-012
  -4.4099999999999986E-002     1.3364102576310377E-012
  -4.2999999999999997E-002    -1.2549932447425416E-011
  -4.1899999999999993E-002    -9.5268142333293504E-012
  -4.0799999999999989E-002     1.4673694551103900E-011
  -3.9699999999999985E-002     2.6001676506348659E-011
  -3.8599999999999995E-002    -5.4570740287696040E-012
  -3.7499999999999992E-002    -4.7131951119716575E-011
  -3.6399999999999988E-002    -2.9009966304172075E-011
  -3.5299999999999984E-002     5.0127704070979107E-011
  -3.4199999999999994E-002     8.5364056101600028E-011
  -3.3099999999999991E-002    -3.3245112392166210E-012
  -3.1999999999999987E-002    -1.2331013987676442E-010
  -3.0899999999999997E-002    -9.2827481812385315E-011
  -2.9799999999999993E-002     9.1039981109375390E-011
  -2.8699999999999989E-002     1.8216610164767388E-010
  -2.7599999999999986E-002     6.8761264043759596E-012
  -2.6499999999999996E-002    -2.2197121918310359E-010
  -2.5399999999999992E-002    -1.3141748800293840E-010
  -2.4299999999999988E-002     2.3441423802061934E-010
  -2.3199999999999985E-002     3.3703551061137205E-010
  -2.2099999999999995E-002    -1.2507289648411302E-010
  -2.0999999999999991E-002    -6.1660154759834995E-010
  -1.9899999999999987E-002    -3.4037819784948908E-010
  -1.8799999999999983E-002     5.6265603287641852E-010
  -1.7699999999999994E-002     9.3354257657551898E-010
  -1.6599999999999990E-002     1.0052660093240462E-010
  -1.5499999999999986E-002    -9.6913688185651381E-010
  -1.4399999999999996E-002    -7.7109413298970253E-010
  -1.3299999999999992E-002     5.5418836186760245E-010
  -1.2199999999999989E-002     1.1077654349378463E-009
  -1.1099999999999985E-002    -1.7408184616041211E-010
  -9.9999999999999950E-003    -1.6661723112321170E-009
  -8.8999999999999913E-003    -9.7532348863893503E-010
  -7.7999999999999875E-003     1.5466993241730620E-009
  -6.6999999999999837E-003     2.7319577711182319E-009
  -5.5999999999999939E-003     6.9290978510494483E-010
  -4.4999999999999901E-003    -2.3276338634303784E-009
  -3.3999999999999864E-003    -2.6667108521394312E-009
  -2.2999999999999826E-003    -1.2835156548707261E-010
  -1.1999999999999927E-003     1.7765050541740379E-009
  -9.9999999999988987E-005     7.9402723285326715E-010
   1.0000000000000148E-003    -9.3958263391868968E-010
   2.1000000000000185E-003    -2.3038168595057584E-010
   3.2000000000000084E-003     2.1999846389064714E-009
   4.3000000000000121E-003     2.5239375034402656E-009
   5.4000000000000159E-003    -6.8584549151040619E-010
   6.5000000000000058E-003    -4.2961079138592595E-009
   7.6000000000000234E-003    -4.7766786082092949E-009
   8.7000000000000133E-003    -2.2445736380660719E-009
   9.8000000000000032E-003     1.2982031005748240E-009
   1.0900000000000021E-002     5.3853774772960605E-009
   1.2000000000000011E-002     9.7391410491809438E-009
   1.3100000000000001E-002     1.0580246900815382E-008
   1.4200000000000018E-002     3.2837716990030685E-009
   1.5300000000000008E-002    -9.8465919862178453E-009
   1.6400000000000026E-002    -1.9267901052444358E-008
   1.7500000000000016E-002    -1.8114494793053382E-008
   1.8600000000000005E-002    -1.0296707486645573E-008
   1.9700000000000023E-002    -2.8601923052207212E-009
   2.0800000000000013E-002     5.8222950904962545E-009
   2.1900000000000003E-002     2.3106787594429079E-008
   2.3000000000000020E-002     4.4307068236548730E-008
   2.4100000000000010E-002     4.7425313454141360E-008
   2.5200000000000000E-002     1.6165467187079230E-008
   2.6300000000000018E-002    -3.6091112320946195E-008
   2.7400000000000008E-002    -7.2317668298182980E-008
   2.8500000000000025E-002    -6.8612045822646905E-008
   2.9600000000000015E-002    -3.3094998741489690E-008
   3.0700000000000005E-002     9.9826618082943241E-009
   3.1800000000000023E-002     4.8781071626535777E-008
   3.2900000000000013E-002     8.1349917024908791E-008
   3.4000000000000002E-002     9.2642949311994016E-008
   3.5100000000000020E-002     5.3582002834673403E-008
   3.6200000000000010E-002    -4.0830155256799117E-008
   3.7300000000000028E-002    -1.5564958744107571E-007
   3.8400000000000017E-002    -2.2390274523331755E-007
   3.9500000000000007E-002    -1.9507076842728566E-007
   4.0600000000000025E-002    -7.1658476485936262E-008
   4.1700000000000015E-002     1.1014255107966164E-007
   4.2800000000000005E-002     2.7789789669441234E-007
   4.3900000000000022E-002     3.9447274957638001E-007
   4.5000000000000012E-002     3.4201551102341909E-007
   4.6100000000000002E-002     1.4671935844035033E-007
   4.7200000000000020E-002    -2.2290355161658226E-007
   4.8300000000000010E-002    -5.4730799092794769E-007
   4.9400000000000027E-002    -7.2692927233219962E-007
   5.0500000000000017E-002    -7.0753043246440939E-007
   5.1600000000000007E-002    -3.5486669958118000E-007
   5.2700000000000025E-002     2.0368119635350013E-007
   5.3800000000000014E-002     7.5656782883015694E-007
   5.4900000000000004E-002     9.8654277280729730E-007
   5.6000000000000022E-002     8.8721947122394340E-007
   5.7100000000000012E-002     2.7143133252138796E-007
   5.8200000000000002E-002    -6.2149547375156544E-007
   5.9300000000000019E-002    -1.3938807796876063E-006
   6.0400000000000009E-002    -2.0973845948901726E-006
   6.1500000000000027E-002    -1.9197254914615769E-006
   6.2600000000000017E-002    -1.0509430694582989E-006
   6.3700000000000007E-002     3.4834610573852842E-007
   6.4800000000000024E-002     1.1445171139712329E-006
   6.5900000000000014E-002     2.8716829092445550E-006
   6.7000000000000004E-002     2.8462416139518609E-006
   6.8100000000000022E-002     2.4588365477029583E-007
   6.9200000000000012E-002    -2.0319091618148377E-006
   7.0300000000000029E-002    -2.8475512863224139E-006
   7.1400000000000019E-002    -4.4382909436535556E-006
   7.2500000000000009E-002    -5.1256411097710952E-006
   7.3600000000000027E-002    -3.9108108467189595E-006
   7.4700000000000016E-002    -1.4802451460127486E-006
   7.5800000000000006E-002     2.5989215828303713E-006
   7.6900000000000024E-002     7.7690465332125314E-006
   7.8000000000000014E-002     3.8184189179446548E-006
   7.9100000000000004E-002     5.0776070565916598E-006
   8.0200000000000021E-002     7.9818437370704487E-007
   8.1300000000000011E-002    -4.2134493014600594E-006
   8.2400000000000029E-002    -1.5097709365363698E-005
   8.3500000000000019E-002    -1.2306540156714618E-005
   8.4600000000000009E-002    -3.7766328659927240E-006
   8.5700000000000026E-002    -1.5954375385263120E-006
   8.6800000000000016E-002    -5.8439845815883018E-006
   8.7900000000000006E-002     9.4279885161085986E-006
   8.9000000000000024E-002     2.2872050976729952E-005
   9.0100000000000013E-002     1.2316080756136216E-005
   9.1200000000000003E-002    -8.4205348684918135E-006
   9.2300000000000021E-002     1.1886121455972898E-006
   9.3400000000000011E-002    -1.3207538358983584E-005
   9.4500000000000028E-002    -1.5146514442676562E-006
   9.5600000000000018E-002    -4.5748943193757441E-006
   9.6700000000000008E-002    -3.0195749786798842E-005
   9.7800000000000026E-002    -3.2317995646735653E-005
   9.8900000000000016E-002     5.9009042161051184E-005
  0.10000000000000001          5.3309922805055976E-005
  0.10110000000000002          5.9822599723702297E-005
  0.10220000000000001          2.4684715754119679E-005
  0.10330000000000003         -4.7459590859944001E-005
  0.10440000000000002         -1.4429347356781363E-004
  0.10550000000000001          1.5739856462460011E-004
  0.10660000000000003          1.0517773625906557E-004
  0.10770000000000002         -5.8745557907968760E-005
  0.10880000000000001         -2.0563044017762877E-005
  0.10990000000000003         -1.9241767859057290E-006
  0.11100000000000002         -2.2307732433546335E-004
  0.11210000000000001          2.2832238755654544E-004
  0.11320000000000002          1.3558949285652488E-004
  0.11430000000000001          2.6607079780660570E-004
  0.11540000000000003         -3.3018598333001137E-004
  0.11650000000000002          1.6684716683812439E-004
  0.11760000000000001         -9.9137403594795614E-005
  0.11870000000000003         -3.7225472624413669E-004
  0.11980000000000002         -7.0509486249648035E-005
  0.12090000000000001          4.2724076774902642E-004
  0.12200000000000003          3.2786403608042747E-005
  0.12310000000000001          1.6082290676422417E-004
  0.12420000000000003         -7.6459673437057063E-006
  0.12530000000000002         -6.0886959545314312E-004
  0.12640000000000001          4.4973421609029174E-004
  0.12750000000000003         -8.1903031968977302E-005
  0.12860000000000002         -1.2635479833988938E-005
  0.12970000000000001         -2.7317970307194628E-005
  0.13080000000000003          1.8710516451392323E-004
  0.13190000000000002          5.3642997954739258E-005
  0.13300000000000001          1.0741422011051327E-004
  0.13410000000000000         -2.2651981271337718E-004
  0.13520000000000004         -5.8193347649648786E-004
  0.13630000000000003          1.2736586540995631E-005
  0.13740000000000002         -1.0494066373212263E-005
  0.13850000000000001          6.0896767536178231E-004
  0.13960000000000000          1.6760938160587102E-004
  0.14070000000000005         -1.6324245370924473E-004
  0.14180000000000004         -7.4627029243856668E-004
  0.14290000000000003         -9.6385563665535301E-005
  0.14400000000000002          3.9294775342568755E-004
  0.14510000000000001          1.2856785906478763E-004
  0.14620000000000000         -2.3985696316231042E-004
  0.14730000000000004          4.9321450205752626E-005
  0.14840000000000003         -4.7057450865395367E-004
  0.14950000000000002          1.7764483345672488E-005
  0.15060000000000001          6.3079083338379860E-004
  0.15170000000000000          6.2057230388745666E-004
  0.15280000000000005         -5.6489374401280656E-005
  0.15390000000000004         -7.2401046054437757E-004
  0.15500000000000003         -5.6129106087610126E-004
  0.15610000000000002         -2.6125326257897541E-005
  0.15720000000000001          5.7077134260907769E-004
  0.15830000000000000          8.4629189223051071E-004
  0.15940000000000004         -5.8641078794607893E-005
  0.16050000000000003         -7.7283411519601941E-004
  0.16160000000000002         -2.5886140065267682E-004
  0.16270000000000001          1.5092446119524539E-004
  0.16380000000000000          7.1559328353032470E-004
  0.16490000000000005          7.7593169407919049E-004
  0.16600000000000004         -5.7799444766715169E-004
  0.16710000000000003         -6.6404527751728892E-004
  0.16820000000000002         -5.5249541765078902E-004
  0.16930000000000001          4.4908089330419898E-004
  0.17040000000000000          1.7636305419728160E-003
  0.17150000000000004          7.2651833761483431E-004
  0.17260000000000003         -1.1141290888190269E-003
  0.17370000000000002         -1.7691013636067510E-003
  0.17480000000000001         -1.7212557140737772E-003
  0.17590000000000000          1.4117328682914376E-003
  0.17700000000000005          2.2853750269860029E-003
  0.17810000000000004          7.4267119634896517E-004
  0.17920000000000003         -1.1227298527956009E-003
  0.18030000000000002         -1.4019531663507223E-003
  0.18140000000000001         -8.8586081983521581E-004
  0.18250000000000000          1.5352789778262377E-003
  0.18360000000000004          7.6116435229778290E-004
  0.18470000000000003          7.4319390114396811E-004
  0.18580000000000002         -4.1794660501182079E-004
  0.18690000000000001         -2.0942033734172583E-003
  0.18800000000000000         -5.4353929590433836E-004
  0.18910000000000005          7.8379729529842734E-004
  0.19020000000000004          1.2577413581311703E-003
  0.19130000000000003          5.6423534260829911E-005
  0.19240000000000002         -3.5261295852251351E-004
  0.19350000000000001         -6.2166660791262984E-004
  0.19460000000000005         -2.1234882296994328E-004
  0.19570000000000004          2.5734468363225460E-004
  0.19680000000000003          5.6693947408348322E-004
  0.19790000000000002          2.8172697057016194E-004
  0.19900000000000001         -2.8112906147725880E-004
  0.20010000000000000         -8.1684818724170327E-004
  0.20120000000000005         -4.0370019269175828E-004
  0.20230000000000004          3.4477384178899229E-004
  0.20340000000000003          8.6556322639808059E-004
  0.20450000000000002          4.7941732918843627E-004
  0.20560000000000000         -3.1408213544636965E-004
  0.20670000000000005         -1.0981010273098946E-003
  0.20780000000000004         -6.3552457140758634E-004
  0.20890000000000003          5.0666189054027200E-004
