 -0.12000000000000000          0.0000000000000000     
 -0.11889999999999999          0.0000000000000000     
 -0.11780000000000000          5.7030726807738574E-009
 -0.11670000000000000          8.2583655469647965E-009
 -0.11559999999999999         -1.8503472531961052E-008
 -0.11449999999999999         -4.2331798510986118E-008
 -0.11340000000000000          9.5338297256830629E-009
 -0.11230000000000000          7.8906559508595819E-008
 -0.11119999999999999          1.9130149908619387E-008
 -0.11009999999999999         -6.3409835604488762E-008
 -0.10900000000000000          1.2427011597537785E-007
 -0.10790000000000000          3.5611469684226904E-007
 -0.10679999999999999         -1.5840153366752929E-007
 -0.10569999999999999         -1.3460042964652530E-006
 -0.10460000000000000         -1.4365760989676346E-006
 -0.10349999999999999          8.8288072674913565E-007
 -0.10239999999999999          3.5998518796986900E-006
 -0.10130000000000000          2.9310426725714933E-006
 -0.10020000000000000         -1.2493960639403667E-006
  -9.9099999999999994E-002    -4.0318263927474618E-006
  -9.7999999999999990E-002    -1.9913502455892740E-006
  -9.6899999999999986E-002     1.0668976528904750E-006
  -9.5799999999999996E-002    -7.9752464898774633E-007
  -9.4699999999999993E-002    -5.5093532864702865E-006
  -9.3599999999999989E-002    -4.0031914068094920E-006
  -9.2499999999999999E-002     6.0873658185300883E-006
  -9.1399999999999995E-002     1.3960720934846904E-005
  -9.0299999999999991E-002     9.4116785476217046E-006
  -8.9200000000000002E-002    -6.6615768901101546E-007
  -8.8099999999999984E-002     8.1195440770898131E-007
  -8.6999999999999994E-002     1.6846805010573007E-005
  -8.5899999999999990E-002     2.9433842428261414E-005
  -8.4799999999999986E-002     2.3248945581144653E-005
  -8.3699999999999997E-002     7.9552219176548533E-006
  -8.2599999999999993E-002     5.9520525610423647E-006
  -8.1499999999999989E-002     2.1798556190333329E-005
  -8.0399999999999999E-002     3.7580262869596481E-005
  -7.9299999999999995E-002     4.0596627513878047E-005
  -7.8199999999999992E-002     4.1178449464496225E-005
  -7.7100000000000002E-002     5.4146486945683137E-005
  -7.5999999999999984E-002     7.4648625741247088E-005
  -7.4899999999999994E-002     8.8054941443260759E-005
  -7.3799999999999991E-002     9.7880954854190350E-005
  -7.2699999999999987E-002     1.2366540613584220E-004
  -7.1599999999999997E-002     1.6798928845673800E-004
  -7.0499999999999993E-002     2.0639873400796205E-004
  -6.9399999999999989E-002     2.2364486358128488E-004
  -6.8300000000000000E-002     2.4387105077039450E-004
  -6.7199999999999996E-002     3.0237014289014041E-004
  -6.6099999999999992E-002     3.9393841871060431E-004
  -6.5000000000000002E-002     4.7664868179708719E-004
  -6.3899999999999985E-002     5.3292879601940513E-004
  -6.2799999999999995E-002     6.0029223095625639E-004
  -6.1699999999999991E-002     7.2204729076474905E-004
  -6.0599999999999994E-002     8.8647718075662851E-004
  -5.9499999999999990E-002     1.0447071399539709E-003
  -5.8399999999999994E-002     1.1833306634798646E-003
  -5.7299999999999990E-002     1.3455119915306568E-003
  -5.6199999999999986E-002     1.5700323274359107E-003
  -5.5099999999999996E-002     1.8399655818939209E-003
  -5.3999999999999992E-002     2.1162137854844332E-003
  -5.2899999999999989E-002     2.4010436609387398E-003
  -5.1799999999999985E-002     2.7331889141350985E-003
  -5.0699999999999995E-002     3.1259921379387379E-003
  -4.9599999999999991E-002     3.5501283127814531E-003
  -4.8499999999999988E-002     3.9894580841064453E-003
  -4.7399999999999998E-002     4.4772480614483356E-003
  -4.6299999999999994E-002     5.0469394773244858E-003
  -4.5199999999999990E-002     5.6714415550231934E-003
  -4.4099999999999986E-002     6.2948334962129593E-003
  -4.2999999999999997E-002     6.9195544347167015E-003
  -4.1899999999999993E-002     7.6144565828144550E-003
  -4.0799999999999989E-002     8.4184417501091957E-003
  -3.9699999999999985E-002     9.2757232487201691E-003
  -3.8599999999999995E-002     1.0103343985974789E-002
  -3.7499999999999992E-002     1.0899175889790058E-002
  -3.6399999999999988E-002     1.1734827421605587E-002
  -3.5299999999999984E-002     1.2644041329622269E-002
  -3.4199999999999994E-002     1.3568626716732979E-002
  -3.3099999999999991E-002     1.4434857293963432E-002
  -3.1999999999999987E-002     1.5240038745105267E-002
  -3.0899999999999997E-002     1.6021979972720146E-002
  -2.9799999999999993E-002     1.6768980771303177E-002
  -2.8699999999999989E-002     1.7415884882211685E-002
  -2.7599999999999986E-002     1.7928658053278923E-002
  -2.6499999999999996E-002     1.8335040658712387E-002
  -2.5399999999999992E-002     1.8645603209733963E-002
  -2.4299999999999988E-002     1.8789758905768394E-002
  -2.3199999999999985E-002     1.8677406013011932E-002
  -2.2099999999999995E-002     1.8301704898476601E-002
  -2.0999999999999991E-002     1.7723878845572472E-002
  -1.9899999999999987E-002     1.6954300925135612E-002
  -1.8799999999999983E-002     1.5903100371360779E-002
  -1.7699999999999994E-002     1.4478726312518120E-002
  -1.6599999999999990E-002     1.2692095711827278E-002
  -1.5499999999999986E-002     1.0612161830067635E-002
  -1.4399999999999996E-002     8.2441382110118866E-003
  -1.3299999999999992E-002     5.5155605077743530E-003
  -1.2199999999999989E-002     2.3867958225309849E-003
  -1.1099999999999985E-002    -1.0863537900149822E-003
  -9.9999999999999950E-003    -4.8334398306906223E-003
  -8.8999999999999913E-003    -8.8635701686143875E-003
  -7.7999999999999875E-003    -1.3223543763160706E-002
  -6.6999999999999837E-003    -1.7883952707052231E-002
  -5.5999999999999939E-003    -2.2730171680450439E-002
  -4.4999999999999901E-003    -2.7675140649080276E-002
  -3.3999999999999864E-003    -3.2719906419515610E-002
  -2.2999999999999826E-003    -3.7871874868869781E-002
  -1.1999999999999927E-003    -4.3045513331890106E-002
  -9.9999999999988987E-005    -4.8099856823682785E-002
   1.0000000000000148E-003    -5.2951138466596603E-002
   2.1000000000000185E-003    -5.7583291083574295E-002
   3.2000000000000084E-003    -6.1950806528329849E-002
   4.3000000000000121E-003    -6.5927788615226746E-002
   5.4000000000000159E-003    -6.9385461509227753E-002
   6.5000000000000058E-003    -7.2276465594768524E-002
   7.6000000000000234E-003    -7.4596963822841644E-002
   8.7000000000000133E-003    -7.6284758746623993E-002
   9.8000000000000032E-003    -7.7214144170284271E-002
   1.0900000000000021E-002    -7.7297933399677277E-002
   1.2000000000000011E-002    -7.6541580259799957E-002
   1.3100000000000001E-002    -7.4977189302444458E-002
   1.4200000000000018E-002    -7.2576336562633514E-002
   1.5300000000000008E-002    -6.9274216890335083E-002
   1.6400000000000026E-002    -6.5067045390605927E-002
   1.7500000000000016E-002    -6.0028906911611557E-002
   1.8600000000000005E-002    -5.4227843880653381E-002
   1.9700000000000023E-002    -4.7678481787443161E-002
   2.0800000000000013E-002    -4.0402408689260483E-002
   2.1900000000000003E-002    -3.2497551292181015E-002
   2.3000000000000020E-002    -2.4109121412038803E-002
   2.4100000000000010E-002    -1.5343450009822845E-002
   2.5200000000000000E-002    -6.2538757920265198E-003
   2.6300000000000018E-002     3.0816085636615753E-003
   2.7400000000000008E-002     1.2512912973761559E-002
   2.8500000000000025E-002     2.1869106218218803E-002
   2.9600000000000015E-002     3.1029753386974335E-002
   3.0700000000000005E-002     3.9914857596158981E-002
   3.1800000000000023E-002     4.8420846462249756E-002
   3.2900000000000013E-002     5.6410048156976700E-002
   3.4000000000000002E-002     6.3764065504074097E-002
   3.5100000000000020E-002     7.0410773158073425E-002
   3.6200000000000010E-002     7.6287508010864258E-002
   3.7300000000000028E-002     8.1304043531417847E-002
   3.8400000000000017E-002     8.5371434688568115E-002
   3.9500000000000007E-002     8.8455922901630402E-002
   4.0600000000000025E-002     9.0573281049728394E-002
   4.1700000000000015E-002     9.1730751097202301E-002
   4.2800000000000005E-002     9.1905683279037476E-002
   4.3900000000000022E-002     9.1084837913513184E-002
   4.5000000000000012E-002     8.9304216206073761E-002
   4.6100000000000002E-002     8.6638607084751129E-002
   4.7200000000000020E-002     8.3158716559410095E-002
   4.8300000000000010E-002     7.8926503658294678E-002
   4.9400000000000027E-002     7.4017509818077087E-002
   5.0500000000000017E-002     6.8522416055202484E-002
   5.1600000000000007E-002     6.2530435621738434E-002
   5.2700000000000025E-002     5.6125432252883911E-002
   5.3800000000000014E-002     4.9406085163354874E-002
   5.4900000000000004E-002     4.2491003870964050E-002
   5.6000000000000022E-002     3.5491865128278732E-002
   5.7100000000000012E-002     2.8491804376244545E-002
   5.8200000000000002E-002     2.1560259163379669E-002
   5.9300000000000019E-002     1.4782018028199673E-002
   6.0400000000000009E-002     8.2478318363428116E-003
   6.1500000000000027E-002     2.0267348736524582E-003
   6.2600000000000017E-002    -3.8309157826006413E-003
   6.3700000000000007E-002    -9.2709669843316078E-003
   6.4800000000000024E-002    -1.4234634116292000E-002
   6.5900000000000014E-002    -1.8687570467591286E-002
   6.7000000000000004E-002    -2.2632038220763206E-002
   6.8100000000000022E-002    -2.6073809713125229E-002
   6.9200000000000012E-002    -2.8991397470235825E-002
   7.0300000000000029E-002    -3.1358927488327026E-002
   7.1400000000000019E-002    -3.3190809190273285E-002
   7.2500000000000009E-002    -3.4536466002464294E-002
   7.3600000000000027E-002    -3.5428714007139206E-002
   7.4700000000000016E-002    -3.5869091749191284E-002
   7.5800000000000006E-002    -3.5875882953405380E-002
   7.6900000000000024E-002    -3.5513307899236679E-002
   7.8000000000000014E-002    -3.4847237169742584E-002
   7.9100000000000004E-002    -3.3893335610628128E-002
   8.0200000000000021E-002    -3.2645933330059052E-002
   8.1300000000000011E-002    -3.1150942668318748E-002
   8.2400000000000029E-002    -2.9507018625736237E-002
   8.3500000000000019E-002    -2.7780659496784210E-002
   8.4600000000000009E-002    -2.5959545746445656E-002
   8.5700000000000026E-002    -2.4021919816732407E-002
   8.6800000000000016E-002    -2.2018810734152794E-002
   8.7900000000000006E-002    -2.0042244344949722E-002
   8.9000000000000024E-002    -1.8126979470252991E-002
   9.0100000000000013E-002    -1.6237499192357063E-002
   9.1200000000000003E-002    -1.4361320994794369E-002
   9.2300000000000021E-002    -1.2561733834445477E-002
   9.3400000000000011E-002    -1.0903672315180302E-002
   9.4500000000000028E-002    -9.3663102015852928E-003
   9.5600000000000018E-002    -7.8846318647265434E-003
   9.6700000000000008E-002    -6.4640305936336517E-003
   9.7800000000000026E-002    -5.1871449686586857E-003
   9.8900000000000016E-002    -4.0948088280856609E-003
  0.10000000000000001         -3.1219332013279200E-003
  0.10110000000000002         -2.1912809461355209E-003
  0.10220000000000001         -1.3270764611661434E-003
  0.10330000000000003         -6.1183550860732794E-004
  0.10440000000000002         -5.1388371502980590E-005
  0.10550000000000001          4.4170787441544235E-004
  0.10660000000000003          9.1836106730625033E-004
  0.10770000000000002          1.3205587165430188E-003
  0.10880000000000001          1.5830891206860542E-003
  0.10990000000000003          1.7516880761831999E-003
  0.11100000000000002          1.9290201598778367E-003
  0.11210000000000001          2.1246285177767277E-003
  0.11320000000000002          2.2419251035898924E-003
  0.11430000000000001          2.2315497044473886E-003
  0.11540000000000003          2.1785474382340908E-003
  0.11650000000000002          2.1851735655218363E-003
  0.11760000000000001          2.2252050694078207E-003
  0.11870000000000003          2.1918264683336020E-003
  0.11980000000000002          2.0663700997829437E-003
  0.12090000000000001          1.9488546531647444E-003
  0.12200000000000003          1.9053993746638298E-003
  0.12310000000000001          1.8706300761550665E-003
  0.12420000000000003          1.7558274557814002E-003
  0.12530000000000002          1.5943837352097034E-003
  0.12640000000000001          1.4947350136935711E-003
  0.12750000000000003          1.4714329736307263E-003
  0.12860000000000002          1.4193421229720116E-003
  0.12970000000000001          1.2761231046169996E-003
  0.13080000000000003          1.1228027287870646E-003
  0.13190000000000002          1.0632644407451153E-003
  0.13300000000000001          1.0656862286850810E-003
  0.13410000000000000          1.0105964029207826E-003
  0.13520000000000004          8.7333406554535031E-004
  0.13630000000000003          7.6090730726718903E-004
  0.13740000000000002          7.4650306487455964E-004
  0.13850000000000001          7.5712613761425018E-004
  0.13960000000000000          6.8778084823861718E-004
  0.14070000000000005          5.6500616483390331E-004
  0.14180000000000004          5.0603068666532636E-004
  0.14290000000000003          5.3643062710762024E-004
  0.14400000000000002          5.4855155758559704E-004
  0.14510000000000001          4.6599507913924754E-004
  0.14620000000000000          3.6088569322600961E-004
  0.14730000000000004          3.4303739084862173E-004
  0.14840000000000003          3.9235502481460571E-004
  0.14950000000000002          3.9151599048636854E-004
  0.15060000000000001          3.0651781708002090E-004
  0.15170000000000000          2.3621240688953549E-004
  0.15280000000000005          2.5680186809040606E-004
  0.15390000000000004          3.0426564626395702E-004
  0.15500000000000003          2.7566062635742128E-004
  0.15610000000000002          1.8991404795087874E-004
  0.15720000000000001          1.5810276090633124E-004
  0.15830000000000000          2.1011629723943770E-004
  0.15940000000000004          2.4713616585358977E-004
  0.16050000000000003          1.9345369946677238E-004
  0.16160000000000002          1.1301342601655051E-004
  0.16270000000000001          1.1142244329676032E-004
  0.16380000000000000          1.7511892656330019E-004
  0.16490000000000005          1.9415377755649388E-004
  0.16600000000000004          1.3066806423012167E-004
  0.16710000000000003          7.3525436164345592E-005
  0.16820000000000002          9.8756041552405804E-005
  0.16930000000000001          1.5395745867863297E-004
  0.17040000000000000          1.4272634871304035E-004
  0.17150000000000004          7.4373434472363442E-005
  0.17260000000000003          4.7450444981222972E-005
  0.17370000000000002          9.5940384198911488E-005
  0.17480000000000001          1.3750400103162974E-004
  0.17590000000000000          1.0154876508750021E-004
  0.17700000000000005          3.7266065191943198E-005
  0.17810000000000004          3.6456258385442197E-005
  0.17920000000000003          9.3033566372469068E-005
  0.18030000000000002          1.1496364459162578E-004
  0.18140000000000001          6.6091357439290732E-005
  0.18250000000000000          1.8507031199987978E-005
  0.18360000000000004          3.9085749449441209E-005
  0.18470000000000003          8.8557491835672408E-005
  0.18580000000000002          8.5976069385651499E-005
  0.18690000000000001          3.3898249967023730E-005
  0.18800000000000000          1.1032997463189531E-005
  0.18910000000000005          4.8633723054081202E-005
  0.19020000000000004          8.4017236076761037E-005
  0.19130000000000003          5.9732952649937943E-005
  0.19240000000000002          1.1540695595613215E-005
  0.19350000000000001          1.0919094165728893E-005
  0.19460000000000005          5.4842206736793742E-005
  0.19570000000000004          7.2788396209944040E-005
  0.19680000000000003          3.6206260119797662E-005
  0.19790000000000002          2.0167325942566094E-007
  0.19900000000000001          1.6814283299027011E-005
  0.20010000000000000          5.6619323004269972E-005
  0.20120000000000005          5.6857537856558338E-005
  0.20230000000000004          1.7422828022972681E-005
  0.20340000000000003         -2.5256249500671402E-006
  0.20450000000000002          2.3329668692895211E-005
  0.20560000000000000          5.1319460908416659E-005
  0.20670000000000005          3.8054455217206851E-005
  0.20780000000000004          5.3927533372188918E-006
  0.20890000000000003          2.4137877971952548E-006
