 -0.12000000000000000          0.0000000000000000     
 -0.11889999999999999          0.0000000000000000     
 -0.11780000000000000          5.7030726807738574E-009
 -0.11670000000000000          6.2262417444003404E-009
 -0.11559999999999999         -2.3212104238723441E-008
 -0.11449999999999999         -3.3697602930260473E-008
 -0.11340000000000000          5.4658176651400936E-008
 -0.11230000000000000          1.2594773579621688E-007
 -0.11119999999999999         -5.2622109336653011E-008
 -0.11009999999999999         -3.1760373531142250E-007
 -0.10900000000000000         -1.0819401552453201E-007
 -0.10790000000000000          5.4488799605678651E-007
 -0.10679999999999999          5.8939764358001412E-007
 -0.10569999999999999         -5.1740300932578975E-007
 -0.10460000000000000         -1.3211156328907236E-006
 -0.10349999999999999         -8.3327350353101792E-008
 -0.10239999999999999          1.9580502339522354E-006
 -0.10130000000000000          1.4124537983661867E-006
 -0.10020000000000000         -1.9452720607660012E-006
  -9.9099999999999994E-002    -3.3329808957205387E-006
  -9.7999999999999990E-002     5.4441932206827914E-007
  -9.6899999999999986E-002     5.1065903790004086E-006
  -9.5799999999999996E-002     2.9420912142086308E-006
  -9.4699999999999993E-002    -4.6294389903778210E-006
  -9.3599999999999989E-002    -7.1327772275253665E-006
  -9.2499999999999999E-002     5.5258504971789080E-007
  -9.1399999999999995E-002     8.8268234321731143E-006
  -9.0299999999999991E-002     5.4045653996581677E-006
  -8.9200000000000002E-002    -6.2548174355470110E-006
  -8.8099999999999984E-002    -1.0009005563915707E-005
  -8.6999999999999994E-002     1.3863201786534773E-007
  -8.5899999999999990E-002     1.0309024219168350E-005
  -8.4799999999999986E-002     6.2048861764196772E-006
  -8.3699999999999997E-002    -5.8799928410735447E-006
  -8.2599999999999993E-002    -8.4262137534096837E-006
  -8.1499999999999989E-002     9.7230145001958590E-007
  -8.0399999999999999E-002     6.6568600232130848E-006
  -7.9299999999999995E-002     2.2702403157381923E-007
  -7.8199999999999992E-002    -5.9926128415099811E-006
  -7.7100000000000002E-002     1.4327805786251702E-007
  -7.5999999999999984E-002     8.6113077486515976E-006
  -7.4899999999999994E-002     2.1684843432012713E-006
  -7.3799999999999991E-002    -1.2870582395407837E-005
  -7.2699999999999987E-002    -1.1678883311105892E-005
  -7.1599999999999997E-002     9.8757491286960430E-006
  -7.0499999999999993E-002     2.2379776055458933E-005
  -6.9399999999999989E-002     3.4233373753522756E-006
  -6.8300000000000000E-002    -2.5092758733080700E-005
  -6.7199999999999996E-002    -2.3285509087145329E-005
  -6.6099999999999992E-002     9.1063648142153397E-006
  -6.5000000000000002E-002     2.8764241505996324E-005
  -6.3899999999999985E-002     8.8684328147792257E-006
  -6.2799999999999995E-002    -2.2660409740637988E-005
  -6.1699999999999991E-002    -2.3612719814991578E-005
  -6.0599999999999994E-002     2.6613602130964864E-006
  -5.9499999999999990E-002     1.6143583707162179E-005
  -5.8399999999999994E-002     1.5838758145036991E-006
  -5.7299999999999990E-002    -1.2541636351670604E-005
  -5.6199999999999986E-002    -4.1029693420568947E-006
  -5.5099999999999996E-002     6.2280764723254833E-006
  -5.3999999999999992E-002    -7.8856319305486977E-006
  -5.2899999999999989E-002    -2.8500619009719230E-005
  -5.1799999999999985E-002    -1.7080341422115453E-005
  -5.0699999999999995E-002     1.9343420717632398E-005
  -4.9599999999999991E-002     2.7514275643625297E-005
  -4.8499999999999988E-002    -1.4185400686983485E-005
  -4.7399999999999998E-002    -5.4597356211161241E-005
  -4.6299999999999994E-002    -3.6851972254225984E-005
  -4.5199999999999990E-002     1.7838077837950550E-005
  -4.4099999999999986E-002     3.5668177588377148E-005
  -4.2999999999999997E-002    -6.6439870352041908E-006
  -4.1899999999999993E-002    -5.0375027058180422E-005
  -4.0799999999999989E-002    -4.0476319554727525E-005
  -3.9699999999999985E-002    -1.0292734486938571E-006
  -3.8599999999999995E-002     8.3659715528483503E-006
  -3.7499999999999992E-002    -1.7048729205271229E-005
  -3.6399999999999988E-002    -2.8502818167908117E-005
  -3.5299999999999984E-002    -7.8046023190836422E-006
  -3.4199999999999994E-002     3.2549078241572715E-006
  -3.3099999999999991E-002    -2.4369401216972619E-005
  -3.1999999999999987E-002    -5.0630875193746760E-005
  -3.0899999999999997E-002    -2.4606861188658513E-005
  -2.9799999999999993E-002     2.8080034098820761E-005
  -2.8699999999999989E-002     3.2670930522726849E-005
  -2.7599999999999986E-002    -2.3469534426112659E-005
  -2.6499999999999996E-002    -6.3741121266502887E-005
  -2.5399999999999992E-002    -2.8755852326867171E-005
  -2.4299999999999988E-002     3.6374891351442784E-005
  -2.3199999999999985E-002     4.6773042413406074E-005
  -2.2099999999999995E-002    -7.2556480290586478E-007
  -2.0999999999999991E-002    -2.8875741918454878E-005
  -1.9899999999999987E-002     2.3605698515893891E-006
  -1.8799999999999983E-002     4.1888517444022000E-005
  -1.7699999999999994E-002     3.3734177122823894E-005
  -1.6599999999999990E-002     5.3540065891866107E-006
  -1.5499999999999986E-002     1.8633361833053641E-005
  -1.4399999999999996E-002     6.4199710323009640E-005
  -1.3299999999999992E-002     7.3853334470186383E-005
  -1.2199999999999989E-002     3.1005114578874782E-005
  -1.1099999999999985E-002     3.2866007586562773E-006
  -9.9999999999999950E-003     4.3273656046949327E-005
  -8.8999999999999913E-003     1.0416730947326869E-004
  -7.7999999999999875E-003     1.0471745918039232E-004
  -6.6999999999999837E-003     4.8841946409083903E-005
  -5.5999999999999939E-003     2.0175237295916304E-005
  -4.4999999999999901E-003     5.7899964303942397E-005
  -3.3999999999999864E-003     1.0338515130570158E-004
  -2.2999999999999826E-003     9.2848102212883532E-005
  -1.1999999999999927E-003     4.9823356675915420E-005
  -9.9999999999988987E-005     4.2960888094967231E-005
   1.0000000000000148E-003     7.4952615250367671E-005
   2.1000000000000185E-003     8.2888189353980124E-005
   3.2000000000000084E-003     4.3152442231075838E-005
   4.3000000000000121E-003     1.0402204679849092E-005
   5.4000000000000159E-003     3.0669256375404075E-005
   6.5000000000000058E-003     6.5566251578275114E-005
   7.6000000000000234E-003     4.8844784032553434E-005
   8.7000000000000133E-003    -1.0925939022854436E-005
   9.8000000000000032E-003    -4.0534647268941626E-005
   1.0900000000000021E-002    -1.2165231964900158E-005
   1.2000000000000011E-002     1.5817100575077347E-005
   1.3100000000000001E-002    -1.1719445865310263E-005
   1.4200000000000018E-002    -6.5371510572731495E-005
   1.5300000000000008E-002    -7.8829303674865514E-005
   1.6400000000000026E-002    -5.0734273827401921E-005
   1.7500000000000016E-002    -4.2713894799817353E-005
   1.8600000000000005E-002    -8.0044046626426280E-005
   1.9700000000000023E-002    -1.1386675760149956E-004
   2.0800000000000013E-002    -1.0074130841530859E-004
   2.1900000000000003E-002    -7.1383787144441158E-005
   2.3000000000000020E-002    -8.0219200754072517E-005
   2.4100000000000010E-002    -1.1894106137333438E-004
   2.5200000000000000E-002    -1.2955650163348764E-004
   2.6300000000000018E-002    -9.5220573712140322E-005
   2.7400000000000008E-002    -6.7330955062061548E-005
   2.8500000000000025E-002    -8.4985447756480426E-005
   2.9600000000000015E-002    -1.1491076293168589E-004
   3.0700000000000005E-002    -1.0384862252976745E-004
   3.1800000000000023E-002    -6.0033671616110951E-005
   3.2900000000000013E-002    -3.9927170291775838E-005
   3.4000000000000002E-002    -5.9760659496532753E-005
   3.5100000000000020E-002    -7.3082315793726593E-005
   3.6200000000000010E-002    -4.6263932745205238E-005
   3.7300000000000028E-002    -9.3967337306821719E-006
   3.8400000000000017E-002    -2.7232024422119139E-006
   3.9500000000000007E-002    -1.5436244211741723E-005
   4.0600000000000025E-002    -9.4194883786258288E-006
   4.1700000000000015E-002     2.0995054001105018E-005
   4.2800000000000005E-002     4.0485327190253884E-005
   4.3900000000000022E-002     2.8726715754601173E-005
   4.5000000000000012E-002     1.5929381333990023E-005
   4.6100000000000002E-002     3.6443165299715474E-005
   4.7200000000000020E-002     7.1759648562874645E-005
   4.8300000000000010E-002     7.6901960710529238E-005
   4.9400000000000027E-002     5.1552673539845273E-005
   5.0500000000000017E-002     3.7770882045151666E-005
   5.1600000000000007E-002     5.5786797020118684E-005
   5.2700000000000025E-002     7.8148288594093174E-005
   5.3800000000000014E-002     7.3221788625232875E-005
   5.4900000000000004E-002     5.2359449909999967E-005
   5.6000000000000022E-002     4.6941513573983684E-005
   5.7100000000000012E-002     5.6775254051899537E-005
   5.8200000000000002E-002     5.5043288739398122E-005
   5.9300000000000019E-002     3.7724530557170510E-005
   6.0400000000000009E-002     3.0819330277154222E-005
   6.1500000000000027E-002     4.3553074647206813E-005
   6.2600000000000017E-002     4.8915153456619009E-005
   6.3700000000000007E-002     2.7366133508621715E-005
   6.4800000000000024E-002     1.5361706573457923E-006
   6.5900000000000014E-002     2.6503705612412887E-006
   6.7000000000000004E-002     2.0461635358515196E-005
   6.8100000000000022E-002     1.9682995116454549E-005
   6.9200000000000012E-002    -3.7032682485005353E-006
   7.0300000000000029E-002    -1.6524716556887142E-005
   7.1400000000000019E-002    -3.3139840525109321E-006
   7.2500000000000009E-002     7.1684312388242688E-006
   7.3600000000000027E-002    -9.8847440312965773E-006
   7.4700000000000016E-002    -3.1603740353602916E-005
   7.5800000000000006E-002    -2.2811091184848920E-005
   7.6900000000000024E-002     4.0880736378312577E-006
   7.8000000000000014E-002     4.7438420551770832E-006
   7.9100000000000004E-002    -2.6628682462614961E-005
   8.0200000000000021E-002    -4.4322845496935770E-005
   8.1300000000000011E-002    -2.1564463168033399E-005
   8.2400000000000029E-002     5.9040030464529991E-006
   8.3500000000000019E-002    -3.5473537991492776E-006
   8.4600000000000009E-002    -3.0137603971525095E-005
   8.5700000000000026E-002    -2.5405743144801818E-005
   8.6800000000000016E-002     6.9904981501167640E-006
   8.7900000000000006E-002     1.3687646060134284E-005
   8.9000000000000024E-002    -2.2309757696348242E-005
   9.0100000000000013E-002    -4.6520086470991373E-005
   9.1200000000000003E-002    -1.4718162674398627E-005
   9.2300000000000021E-002     3.2989893952617422E-005
   9.3400000000000011E-002     2.7425050575402565E-005
   9.4500000000000028E-002    -2.4691622456884943E-005
   9.5600000000000018E-002    -4.6432101953541860E-005
   9.6700000000000008E-002    -5.2111217883066274E-006
   9.7800000000000026E-002     3.7506208172999322E-005
   9.8900000000000016E-002     2.0932608094881289E-005
  0.10000000000000001         -2.2677953893435188E-005
  0.10110000000000002         -2.2221274775802158E-005
  0.10220000000000001          1.8671560610528104E-005
  0.10330000000000003          2.8469687094911933E-005
  0.10440000000000002         -1.4503251804853790E-005
  0.10550000000000001         -4.1182756831403822E-005
  0.10660000000000003         -1.0445949527593257E-007
  0.10770000000000002          5.3851537813898176E-005
  0.10880000000000001          3.6829111195402220E-005
  0.10990000000000003         -3.2797903259051964E-005
  0.11100000000000002         -5.4540232667932287E-005
  0.11210000000000001          4.1053317545447499E-006
  0.11320000000000002          5.6553897593403235E-005
  0.11430000000000001          2.6972442356054671E-005
  0.11540000000000003         -3.6382152757141739E-005
  0.11650000000000002         -3.7273635825840756E-005
  0.11760000000000001          2.0789806512766518E-005
  0.11870000000000003          4.2970550566678867E-005
  0.11980000000000002         -5.9563676586549263E-006
  0.12090000000000001         -4.5460245019057766E-005
  0.12200000000000003         -7.3835412877087947E-006
  0.12310000000000001          5.2195584430592135E-005
  0.12420000000000003          3.6856919905403629E-005
  0.12530000000000002         -3.7271460314514115E-005
  0.12640000000000001         -6.0075228248024359E-005
  0.12750000000000003          5.0646717681956943E-006
  0.12860000000000002          6.2239712860900909E-005
  0.12970000000000001          2.7306434276397340E-005
  0.13080000000000003         -4.4545326090883464E-005
  0.13190000000000002         -4.4271291699260473E-005
  0.13300000000000001          2.3796535970177501E-005
  0.13410000000000000          5.1082599384244531E-005
  0.13520000000000004         -4.8298679757863283E-006
  0.13630000000000003         -5.4072839702712372E-005
  0.13740000000000002         -1.6077523468993604E-005
  0.13850000000000001          5.2099887398071587E-005
  0.13960000000000000          4.2332660086685792E-005
  0.14070000000000005         -3.5327848308952525E-005
  0.14180000000000004         -6.4349522290285677E-005
  0.14290000000000003          6.9609546926585608E-007
  0.14400000000000002          6.3606828916817904E-005
  0.14510000000000001          3.2229883800027892E-005
  0.14620000000000000         -4.2668681999202818E-005
  0.14730000000000004         -4.7700483264634386E-005
  0.14840000000000003          1.9489998521748930E-005
  0.14950000000000002          5.0821385229937732E-005
  0.15060000000000001         -1.7599601278561749E-006
  0.15170000000000000         -5.2512077672872692E-005
  0.15280000000000005         -1.8365504729445092E-005
  0.15390000000000004          4.9009195208782330E-005
  0.15500000000000003          4.2611081880750135E-005
  0.15610000000000002         -3.2025309337768704E-005
  0.15720000000000001         -6.1939754232298583E-005
  0.15830000000000000          6.1202081269584596E-007
  0.15940000000000004          6.3548308389727026E-005
  0.16050000000000003          3.3870197512442246E-005
  0.16160000000000002         -4.2521438444964588E-005
  0.16270000000000001         -5.2539613534463570E-005
  0.16380000000000000          1.3304850654094480E-005
  0.16490000000000005          5.1786806579912081E-005
  0.16600000000000004          7.9433839346165769E-006
  0.16710000000000003         -4.4275679101701826E-005
  0.16820000000000002         -2.1920177459833212E-005
  0.16930000000000001          3.7420224543893710E-005
  0.17040000000000000          3.7230594898574054E-005
  0.17150000000000004         -2.4810076865833253E-005
  0.17260000000000003         -5.2154875447740778E-005
  0.17370000000000002          2.2733766513738374E-007
  0.17480000000000001          5.4436488426290452E-005
  0.17590000000000000          2.8238642698852345E-005
  0.17700000000000005         -3.9299735362874344E-005
  0.17810000000000004         -4.7672063374193385E-005
  0.17920000000000003          1.3110368854540866E-005
  0.18030000000000002          5.0474685849621892E-005
  0.18140000000000001          1.1510748663567938E-005
  0.18250000000000000         -4.0350834751734510E-005
  0.18360000000000004         -2.6839943529921584E-005
  0.18470000000000003          2.6517272999626584E-005
  0.18580000000000002          3.4866283385781571E-005
  0.18690000000000001         -1.2989374226890504E-005
  0.18800000000000000         -4.0126124076778069E-005
  0.18910000000000005         -3.4929573757835897E-006
  0.19020000000000004          3.9795337215764448E-005
  0.19130000000000003          2.2476064259535633E-005
  0.19240000000000002         -2.8805556212319061E-005
  0.19350000000000001         -3.5745448258239776E-005
  0.19460000000000005          1.1166909644089174E-005
  0.19570000000000004          3.9882088458398357E-005
  0.19680000000000003          8.0703139246907085E-006
  0.19790000000000002         -3.4278069506399333E-005
  0.19900000000000001         -2.3784834411344491E-005
  0.20010000000000000          2.0838351701968350E-005
  0.20120000000000005          3.1223586120177060E-005
  0.20230000000000004         -5.4675083447364159E-006
  0.20340000000000003         -3.0738487112103030E-005
  0.20450000000000002         -7.3172641350538470E-006
  0.20560000000000000          2.5771616492420435E-005
  0.20670000000000005          1.7008638678817078E-005
  0.20780000000000004         -1.8237182302982546E-005
  0.20890000000000003         -2.4389330064877868E-005
