 -0.12000000000000000          0.0000000000000000     
 -0.11889999999999999          0.0000000000000000     
 -0.11780000000000000          0.0000000000000000     
 -0.11670000000000000          0.0000000000000000     
 -0.11559999999999999          0.0000000000000000     
 -0.11449999999999999          0.0000000000000000     
 -0.11340000000000000          0.0000000000000000     
 -0.11230000000000000          0.0000000000000000     
 -0.11119999999999999          0.0000000000000000     
 -0.11009999999999999          0.0000000000000000     
 -0.10900000000000000          0.0000000000000000     
 -0.10790000000000000          0.0000000000000000     
 -0.10679999999999999          0.0000000000000000     
 -0.10569999999999999          0.0000000000000000     
 -0.10460000000000000          0.0000000000000000     
 -0.10349999999999999         -3.5285791707617382E-037
 -0.10239999999999999          5.2947672801436254E-036
 -0.10130000000000000         -2.2576620266177184E-035
 -0.10020000000000000         -5.9564571684695218E-035
  -9.9099999999999994E-002     6.7888458404509000E-034
  -9.7999999999999990E-002    -2.0257406646203274E-034
  -9.6899999999999986E-002    -9.9784644462312463E-033
  -9.5799999999999996E-002     1.1447994015232344E-032
  -9.4699999999999993E-002     1.0939600643088572E-031
  -9.3599999999999989E-002    -1.5500485810437225E-031
  -9.2499999999999999E-002    -1.0221536518253179E-030
  -9.1399999999999995E-002     1.3214950750136266E-030
  -9.0299999999999991E-002     8.5210686473028113E-030
  -8.9200000000000002E-002    -7.5853992181725752E-030
  -8.8099999999999984E-002    -6.3433102723818536E-029
  -8.6999999999999994E-002     2.1140911934679921E-029
  -8.5899999999999990E-002     4.1342811447143326E-028
  -8.4799999999999986E-002     1.2401148375050694E-028
  -8.3699999999999997E-002    -2.2878790107066677E-027
  -8.2599999999999993E-002    -2.3229864024769138E-027
  -8.1499999999999989E-002     1.0222252973220287E-026
  -8.0399999999999999E-002     1.9951984029902538E-026
  -7.9299999999999995E-002    -3.2585837946049924E-026
  -7.8199999999999992E-002    -1.2173838307433903E-025
  -7.7100000000000002E-002     3.5296117497356439E-026
  -7.5999999999999984E-002     5.6214011169300365E-025
  -7.4899999999999994E-002     3.9721850891668655E-025
  -7.3799999999999991E-002    -1.8917385433874678E-024
  -7.2699999999999987E-002    -3.4938203785827163E-024
  -7.1599999999999997E-002     3.6040222748898286E-024
  -7.0499999999999993E-002     1.6803764378106149E-023
  -6.9399999999999989E-002     5.1199269726464707E-024
  -6.8300000000000000E-002    -5.3389411867761484E-023
  -6.7199999999999996E-002    -7.6920589934201475E-023
  -6.6099999999999992E-002     9.0785817463644956E-023
  -6.5000000000000002E-002     3.5300402170711244E-022
  -6.3899999999999985E-002     1.2175349893118204E-022
  -6.2799999999999995E-002    -9.4400190066927828E-022
  -6.1699999999999991E-002    -1.4816124503564724E-021
  -6.0599999999999994E-002     9.9373684181840015E-022
  -5.9499999999999990E-002     5.4293376792949615E-021
  -5.8399999999999994E-002     3.8380921928519061E-021
  -5.7299999999999990E-002    -1.0050870482533670E-020
  -5.6199999999999986E-002    -2.2631973367767678E-020
  -5.5099999999999996E-002    -2.2369375027231203E-021
  -5.3999999999999992E-002     5.4386097761944414E-020
  -5.2899999999999989E-002     7.4617145474447118E-020
  -5.1799999999999985E-002    -3.5276051031687255E-020
  -5.0699999999999995E-002    -2.2092629313280657E-019
  -4.9599999999999991E-002    -2.0778502983754147E-019
  -4.8499999999999988E-002     2.1989914160716884E-019
  -4.7399999999999998E-002     7.4775369615992027E-019
  -4.6299999999999994E-002     5.4362697597897113E-019
  -4.5199999999999990E-002    -8.1225868789287733E-019
  -4.4099999999999986E-002    -2.2478258846901347E-018
  -4.2999999999999997E-002    -1.5823391261589461E-018
  -4.1899999999999993E-002     2.1307539786197390E-018
  -4.0799999999999989E-002     6.3049935540542600E-018
  -3.9699999999999985E-002     5.5898074061766244E-018
  -3.8599999999999995E-002    -3.4979482871397413E-018
  -3.7499999999999992E-002    -1.6924861449747469E-017
  -3.6399999999999988E-002    -2.1426686054448915E-017
  -3.5299999999999984E-002    -1.5993012917999585E-018
  -3.4199999999999994E-002     4.2612983496722570E-017
  -3.3099999999999991E-002     7.7512018090465526E-017
  -3.1999999999999987E-002     4.2643920051632054E-017
  -3.0899999999999997E-002    -9.2272043652404540E-017
  -2.9799999999999993E-002    -2.4622967197018733E-016
  -2.8699999999999989E-002    -2.2155979767673643E-016
  -2.7599999999999986E-002     1.3202379617541639E-016
  -2.6499999999999996E-002     6.5706267424515160E-016
  -2.5399999999999992E-002     8.1975753344064621E-016
  -2.4299999999999988E-002     9.3186422336410458E-017
  -2.3199999999999985E-002    -1.3671803159327604E-015
  -2.2099999999999995E-002    -2.4074641477404846E-015
  -2.0999999999999991E-002    -1.5266824432522575E-015
  -1.9899999999999987E-002     1.6925370000388067E-015
  -1.8799999999999983E-002     5.4933661108478790E-015
  -1.7699999999999994E-002     6.4258689176448745E-015
  -1.6599999999999990E-002     1.6347122841912421E-015
  -1.5499999999999986E-002    -8.2152971694871534E-015
  -1.4399999999999996E-002    -1.7408487100315818E-014
  -1.3299999999999992E-002    -1.6948865000279006E-014
  -1.2199999999999989E-002    -2.5481040689344901E-016
  -1.1099999999999985E-002     2.9249016674382650E-014
  -9.9999999999999950E-003     5.3980657563259399E-014
  -8.8999999999999913E-003     4.7943362469068593E-014
  -7.7999999999999875E-003    -5.7695865195628217E-015
  -6.6999999999999837E-003    -9.3741109167579106E-014
  -5.5999999999999939E-003    -1.6374472307581489E-013
  -4.4999999999999901E-003    -1.4367276628384634E-013
  -3.3999999999999864E-003     1.2080354247587678E-014
  -2.2999999999999826E-003     2.6926293768443632E-013
  -1.1999999999999927E-003     4.8901675894427732E-013
  -9.9999999999988987E-005     4.6719859968583077E-013
   1.0000000000000148E-003     5.0462113193551136E-014
   2.1000000000000185E-003    -7.0663857794708851E-013
   3.2000000000000084E-003    -1.4391182473136310E-012
   4.3000000000000121E-003    -1.5470538261910805E-012
   5.4000000000000159E-003    -5.1325670059540474E-013
   6.5000000000000058E-003     1.6320556017745957E-012
   7.6000000000000234E-003     3.9782725724801793E-012
   8.7000000000000133E-003     4.8757048745629028E-012
   9.8000000000000032E-003     2.7223971774820166E-012
   1.0900000000000021E-002    -2.8222944814526585E-012
   1.2000000000000011E-002    -9.8426683470265175E-012
   1.3100000000000001E-002    -1.4219581241647905E-011
   1.4200000000000018E-002    -1.1264498014917912E-011
   1.5300000000000008E-002     1.3421466629054413E-012
   1.6400000000000026E-002     2.0619653554043715E-011
   1.7500000000000016E-002     3.7349515841222924E-011
   1.8600000000000005E-002     3.8806537844271460E-011
   1.9700000000000023E-002     1.5272621708972700E-011
   2.0800000000000013E-002    -3.1940269873409477E-011
   2.1900000000000003E-002    -8.5336487876119804E-011
   2.3000000000000020E-002    -1.1374253622298269E-010
   2.4100000000000010E-002    -8.4906942587892331E-011
   2.5200000000000000E-002     1.4477888506114756E-011
   2.6300000000000018E-002     1.6012398351694657E-010
   2.7400000000000008E-002     2.8540117491537842E-010
   2.8500000000000025E-002     3.0068003642469421E-010
   2.9600000000000015E-002     1.3689302469366282E-010
   3.0700000000000005E-002    -2.0151988411321042E-010
   3.1800000000000023E-002    -6.0177623995016916E-010
   3.2900000000000013E-002    -8.5525697635091547E-010
   3.4000000000000002E-002    -7.3206374295864407E-010
   3.5100000000000020E-002    -1.0352024792936732E-010
   3.6200000000000010E-002     9.3423613289900231E-010
   3.7300000000000028E-002     2.0032533409874986E-009
   3.8400000000000017E-002     2.5142996573634946E-009
   3.9500000000000007E-002     1.8841586069129335E-009
   4.0600000000000025E-002    -1.4982395879492572E-010
   4.1700000000000015E-002    -3.2383558057347273E-009
   4.2800000000000005E-002    -6.3100666913840087E-009
   4.3900000000000022E-002    -7.7735133885425967E-009
   4.5000000000000012E-002    -6.0607527885281343E-009
   4.6100000000000002E-002    -3.8937228441504601E-010
   4.7200000000000020E-002     8.5271762984007182E-009
   4.8300000000000010E-002     1.8162630510687450E-008
   4.9400000000000027E-002     2.4534584142088534E-008
   5.0500000000000017E-002     2.3313681651870866E-008
   5.1600000000000007E-002     1.1474064365302183E-008
   5.2700000000000025E-002    -1.1002771138635126E-008
   5.3800000000000014E-002    -4.0006778334600313E-008
   5.4900000000000004E-002    -6.7337474263240438E-008
   5.6000000000000022E-002    -8.2195967365805700E-008
   5.7100000000000012E-002    -7.3988125848245545E-008
   5.8200000000000002E-002    -3.5827838473778684E-008
   5.9300000000000019E-002     3.2201921129626498E-008
   6.0400000000000009E-002     1.2104035818083503E-007
   6.1500000000000027E-002     2.1266960459342954E-007
   6.2600000000000017E-002     2.8243275096428988E-007
   6.3700000000000007E-002     3.0334066991599684E-007
   6.4800000000000024E-002     2.5151959448521666E-007
   6.5900000000000014E-002     1.1162267554709615E-007
   6.7000000000000004E-002    -1.1905157037972458E-007
   6.8100000000000022E-002    -4.2882254547293996E-007
   6.9200000000000012E-002    -7.9298280297734891E-007
   7.0300000000000029E-002    -1.1783762374761864E-006
   7.1400000000000019E-002    -1.5507400803471683E-006
   7.2500000000000009E-002    -1.8836234403352137E-006
   7.3600000000000027E-002    -2.1670787191396812E-006
   7.4700000000000016E-002    -2.4141397716448409E-006
   7.5800000000000006E-002    -2.6631450964487158E-006
   7.6900000000000024E-002    -2.9746961445198394E-006
   7.8000000000000014E-002    -3.4235702059959294E-006
   7.9100000000000004E-002    -4.0871491364669055E-006
   8.0200000000000021E-002    -5.0333624130871613E-006
   8.1300000000000011E-002    -6.3123957261268515E-006
   8.2400000000000029E-002    -7.9546971392119303E-006
   8.3500000000000019E-002    -9.9768885775119998E-006
   8.4600000000000009E-002    -1.2395103112794459E-005
   8.5700000000000026E-002    -1.5241769688145723E-005
   8.6800000000000016E-002    -1.8579708921606652E-005
   8.7900000000000006E-002    -2.2510348571813665E-005
   8.9000000000000024E-002    -2.7172340196557343E-005
   9.0100000000000013E-002    -3.2732630643295124E-005
   9.1200000000000003E-002    -3.9372709579765797E-005
   9.2300000000000021E-002    -4.7275836550397798E-005
   9.3400000000000011E-002    -5.6622655392857268E-005
   9.4500000000000028E-002    -6.7595567088574171E-005
   9.5600000000000018E-002    -8.0393081589136273E-005
   9.6700000000000008E-002    -9.5246199634857476E-005
   9.7800000000000026E-002    -1.1243232438573614E-004
   9.8900000000000016E-002    -1.3228162424638867E-004
  0.10000000000000001         -1.5517228166572750E-004
  0.10110000000000002         -1.8151471158489585E-004
  0.10220000000000001         -2.1173116692807525E-004
  0.10330000000000003         -2.4624067009426653E-004
  0.10440000000000002         -2.8545755776576698E-004
  0.10550000000000001         -3.2978988019749522E-004
  0.10660000000000003         -3.7965123192407191E-004
  0.10770000000000002         -4.3547444511204958E-004
  0.10880000000000001         -4.9769936595112085E-004
  0.10990000000000003         -5.6677078828215599E-004
  0.11100000000000002         -6.4313533948734403E-004
  0.11210000000000001         -7.2720454772934318E-004
  0.11320000000000002         -8.1932795001193881E-004
  0.11430000000000001         -9.1976730618625879E-004
  0.11540000000000003         -1.0286365868523717E-003
  0.11650000000000002         -1.1459522647783160E-003
  0.11760000000000001         -1.2716152705252171E-003
  0.11870000000000003         -1.4053558697924018E-003
  0.11980000000000002         -1.5467109624296427E-003
  0.12090000000000001         -1.6950182616710663E-003
  0.12200000000000003         -1.8493582028895617E-003
  0.12310000000000001         -2.0086511503905058E-003
  0.12420000000000003         -2.1715129259973764E-003
  0.12530000000000002         -2.3361744824796915E-003
  0.12640000000000001         -2.5006290525197983E-003
  0.12750000000000003         -2.6626095641404390E-003
  0.12860000000000002         -2.8195532504469156E-003
  0.12970000000000001         -2.9684358742088079E-003
  0.13080000000000003         -3.1059454195201397E-003
  0.13190000000000002         -3.2284602057188749E-003
  0.13300000000000001         -3.3320116344839334E-003
  0.13410000000000000         -3.4124485682696104E-003
  0.13520000000000004         -3.4654492046684027E-003
  0.13630000000000003         -3.4866847563534975E-003
  0.13740000000000002         -3.4716061782091856E-003
  0.13850000000000001         -3.4154222812503576E-003
  0.13960000000000000         -3.3136180136352777E-003
  0.14070000000000005         -3.1620687805116177E-003
  0.14180000000000004         -2.9569678008556366E-003
  0.14290000000000003         -2.6945413555949926E-003
  0.14400000000000002         -2.3714371491223574E-003
  0.14510000000000001         -1.9850016105920076E-003
  0.14620000000000000         -1.5332311158999801E-003
  0.14730000000000004         -1.0155925992876291E-003
  0.14840000000000003         -4.3233932228758931E-004
  0.14950000000000002          2.1570042008534074E-004
  0.15060000000000001          9.2614343157038093E-004
  0.15170000000000000          1.6955526079982519E-003
  0.15280000000000005          2.5192149914801121E-003
  0.15390000000000004          3.3907429315149784E-003
  0.15500000000000003          4.3028788641095161E-003
  0.15610000000000002          5.2468758076429367E-003
  0.15720000000000001          6.2127052806317806E-003
  0.15830000000000000          7.1889366954565048E-003
  0.15940000000000004          8.1630097702145576E-003
  0.16050000000000003          9.1216601431369781E-003
  0.16160000000000002          1.0050227865576744E-002
  0.16270000000000001          1.0934941470623016E-002
  0.16380000000000000          1.1761265806853771E-002
  0.16490000000000005          1.2512983754277229E-002
  0.16600000000000004          1.3175447471439838E-002
  0.16710000000000003          1.3734103180468082E-002
  0.16820000000000002          1.4174545183777809E-002
  0.16930000000000001          1.4485318213701248E-002
  0.17040000000000000          1.4655630104243755E-002
  0.17150000000000004          1.4674690552055836E-002
  0.17260000000000003          1.4534180983901024E-002
  0.17370000000000002          1.4228544197976589E-002
  0.17480000000000001          1.3755138963460922E-002
  0.17590000000000000          1.3113643042743206E-002
  0.17700000000000005          1.2305930256843567E-002
  0.17810000000000004          1.1335919611155987E-002
  0.17920000000000003          1.0210317559540272E-002
  0.18030000000000002          8.9391898363828659E-003
  0.18140000000000001          7.5353230349719524E-003
  0.18250000000000000          6.0138143599033356E-003
  0.18360000000000004          4.3919347226619720E-003
  0.18470000000000003          2.6887152343988419E-003
  0.18580000000000002          9.2467770446091890E-004
  0.18690000000000001         -8.7795522995293140E-004
  0.18800000000000000         -2.6959585957229137E-003
  0.18910000000000005         -4.5050405897200108E-003
  0.19020000000000004         -6.2812226824462414E-003
  0.19130000000000003         -8.0016814172267914E-003
  0.19240000000000002         -9.6439709886908531E-003
  0.19350000000000001         -1.1186226271092892E-002
  0.19460000000000005         -1.2607774697244167E-002
  0.19570000000000004         -1.3890131376683712E-002
  0.19680000000000003         -1.5016865916550159E-002
  0.19790000000000002         -1.5974134206771851E-002
  0.19900000000000001         -1.6751615330576897E-002
  0.20010000000000000         -1.7341233789920807E-002
  0.20120000000000005         -1.7737433314323425E-002
  0.20230000000000004         -1.7938343808054924E-002
  0.20340000000000003         -1.7944719642400742E-002
  0.20450000000000002         -1.7760902643203735E-002
  0.20560000000000000         -1.7393833026289940E-002
  0.20670000000000005         -1.6852390021085739E-002
  0.20780000000000004         -1.6148498281836510E-002
  0.20890000000000003         -1.5295679681003094E-002
