 -0.12000000000000000          0.0000000000000000     
 -0.11889999999999999          0.0000000000000000     
 -0.11780000000000000          0.0000000000000000     
 -0.11670000000000000          0.0000000000000000     
 -0.11559999999999999          0.0000000000000000     
 -0.11449999999999999          0.0000000000000000     
 -0.11340000000000000          0.0000000000000000     
 -0.11230000000000000          0.0000000000000000     
 -0.11119999999999999          0.0000000000000000     
 -0.11009999999999999          0.0000000000000000     
 -0.10900000000000000          0.0000000000000000     
 -0.10790000000000000          0.0000000000000000     
 -0.10679999999999999          0.0000000000000000     
 -0.10569999999999999          0.0000000000000000     
 -0.10460000000000000          0.0000000000000000     
 -0.10349999999999999          0.0000000000000000     
 -0.10239999999999999          0.0000000000000000     
 -0.10130000000000000          0.0000000000000000     
 -0.10020000000000000         -6.9823603094662737E-029
  -9.9099999999999994E-002    -4.3627823205571162E-029
  -9.7999999999999990E-002     2.2054195497657504E-027
  -9.6899999999999986E-002    -4.5674518707491821E-027
  -9.5799999999999996E-002    -2.5776446078964548E-026
  -9.4699999999999993E-002     9.0412032437696409E-026
  -9.3599999999999989E-002     2.2908076953358996E-025
  -9.2499999999999999E-002    -1.0806579902643221E-024
  -9.1399999999999995E-002    -1.8687099186270298E-024
  -9.0299999999999991E-002     9.8693969755921020E-024
  -8.9200000000000002E-002     1.5558135653822257E-023
  -8.8099999999999984E-002    -7.3903064443099027E-023
  -8.6999999999999994E-002    -1.3120114956759855E-022
  -8.5899999999999990E-002     4.5954765129690919E-022
  -8.4799999999999986E-002     1.0463648956275402E-021
  -8.3699999999999997E-002    -2.3016514609583236E-021
  -8.2599999999999993E-002    -7.4450617215034001E-021
  -8.1499999999999989E-002     8.2504149440839714E-021
  -8.0399999999999999E-002     4.5616193198337968E-020
  -7.9299999999999995E-002    -9.5039304220192249E-021
  -7.8199999999999992E-002    -2.3391677691203973E-019
  -7.7100000000000002E-002    -1.4333094848634763E-019
  -7.5999999999999984E-002     9.6053163987362010E-019
  -7.4899999999999994E-002     1.4816662825275673E-018
  -7.3799999999999991E-002    -2.8131105687560637E-018
  -7.2699999999999987E-002    -8.8372808543419399E-018
  -7.1599999999999997E-002     2.9636135996682495E-018
  -7.0499999999999993E-002     3.7808529901834923E-017
  -6.9399999999999989E-002     2.6624918979942431E-017
  -6.8300000000000000E-002    -1.1380442188244181E-016
  -6.7199999999999996E-002    -2.1560592368114715E-016
  -6.6099999999999992E-002     1.7349401311228470E-016
  -6.5000000000000002E-002     9.3050783244797482E-016
  -6.3899999999999985E-002     4.3583839425975649E-016
  -6.2799999999999995E-002    -2.5667997272067278E-015
  -6.1699999999999991E-002    -4.2783375820765798E-015
  -6.0599999999999994E-002     3.1524541888061121E-015
  -5.9499999999999990E-002     1.6667712742228676E-014
  -5.8399999999999994E-002     9.9554696084136474E-015
  -5.7299999999999990E-002    -3.6831780979079340E-014
  -5.6199999999999986E-002    -7.1839500223169067E-014
  -5.5099999999999996E-002     1.6690172667858071E-014
  -5.3999999999999992E-002     2.1509839265645980E-013
  -5.2899999999999989E-002     2.1611939939481656E-013
  -5.1799999999999985E-002    -2.9422970136694371E-013
  -5.0699999999999995E-002    -9.0894474022093497E-013
  -4.9599999999999991E-002    -3.9525969845223552E-013
  -4.8499999999999988E-002     1.7064852135539876E-012
  -4.7399999999999998E-002     3.0715590661201109E-012
  -4.6299999999999994E-002    -6.1853950780732525E-014
  -4.5199999999999990E-002    -6.9923559130324886E-012
  -4.4099999999999986E-002    -8.8071347090212804E-012
  -4.2999999999999997E-002     3.6228756539885554E-012
  -4.1899999999999993E-002     2.3092633708032828E-011
  -4.0799999999999989E-002     2.2935637764009975E-011
  -3.9699999999999985E-002    -1.5316690624156415E-011
  -3.8599999999999995E-002    -6.4859582982190744E-011
  -3.7499999999999992E-002    -5.9799325213827359E-011
  -3.6399999999999988E-002     3.5813935150841303E-011
  -3.5299999999999984E-002     1.5877288372934117E-010
  -3.4199999999999994E-002     1.7021127562966143E-010
  -3.3099999999999991E-002    -2.0362685496100319E-011
  -3.1999999999999987E-002    -3.3558833489877316E-010
  -3.0899999999999997E-002    -5.2181370335802058E-010
  -2.9799999999999993E-002    -2.6917257311964704E-010
  -2.8699999999999989E-002     5.5213905669759811E-010
  -2.7599999999999986E-002     1.5573303757676626E-009
  -2.6499999999999996E-002     1.6672163649644745E-009
  -2.5399999999999992E-002    -3.0765537339938476E-010
  -2.4299999999999988E-002    -4.0543062240772088E-009
  -2.3199999999999985E-002    -6.3895226887211720E-009
  -2.2099999999999995E-002    -2.6856674661956959E-009
  -2.0999999999999991E-002     8.0706152871812264E-009
  -1.9899999999999987E-002     1.8565559756211769E-008
  -1.8799999999999983E-002     1.5676054232471870E-008
  -1.7699999999999994E-002    -7.7528454767161747E-009
  -1.6599999999999990E-002    -4.0538591150607317E-008
  -1.5499999999999986E-002    -5.4210037347957041E-008
  -1.4399999999999996E-002    -2.2500129759350784E-008
  -1.3299999999999992E-002     5.2869978617309243E-008
  -1.2199999999999989E-002     1.3059927539416094E-007
  -1.1099999999999985E-002     1.4421853222756909E-007
  -9.9999999999999950E-003     3.9089915304657552E-008
  -8.8999999999999913E-003    -1.8027449755209091E-007
  -7.7999999999999875E-003    -4.1184270571648085E-007
  -6.6999999999999837E-003    -4.6135752995724033E-007
  -5.5999999999999939E-003    -1.3366167195272283E-007
  -4.4999999999999901E-003     5.8901463262372999E-007
  -3.3999999999999864E-003     1.3786211638944224E-006
  -2.2999999999999826E-003     1.5794390719747753E-006
  -1.1999999999999927E-003     5.4172460295376368E-007
  -9.9999999999988987E-005    -1.8049894379146281E-006
   1.0000000000000148E-003    -4.4671378418570384E-006
   2.1000000000000185E-003    -5.4405641094490420E-006
   3.2000000000000084E-003    -2.6113575586350635E-006
   4.3000000000000121E-003     4.6185714381863363E-006
   5.4000000000000159E-003     1.3731273611483630E-005
   6.5000000000000058E-003     1.8796250515151769E-005
   7.6000000000000234E-003     1.2671587683144026E-005
   8.7000000000000133E-003    -8.2434571595513262E-006
   9.8000000000000032E-003    -3.8663867599098012E-005
   1.0900000000000021E-002    -6.2212144257500768E-005
   1.2000000000000011E-002    -5.6048022088361904E-005
   1.3100000000000001E-002    -3.2688299143046606E-006
   1.4200000000000018E-002     9.0883506345562637E-005
   1.5300000000000008E-002     1.8788753368426114E-004
   1.6400000000000026E-002     2.2064300719648600E-004
   1.7500000000000016E-002     1.2079544831067324E-004
   1.8600000000000005E-002    -1.3536690676119179E-004
   1.9700000000000023E-002    -4.8139496357180178E-004
   2.0800000000000013E-002    -7.4592692544683814E-004
   2.1900000000000003E-002    -6.9726607762277126E-004
   2.3000000000000020E-002    -1.5457128756679595E-004
   2.4100000000000010E-002     8.6476269643753767E-004
   2.5200000000000000E-002     2.0313668064773083E-003
   2.6300000000000018E-002     2.7126627974212170E-003
   2.7400000000000008E-002     2.1702509839087725E-003
   2.8500000000000025E-002    -6.2036640883889049E-005
   2.9600000000000015E-002    -3.7377413827925920E-003
   3.0700000000000005E-002    -7.6152905821800232E-003
   3.1800000000000023E-002    -9.5823099836707115E-003
   3.2900000000000013E-002    -7.3374924249947071E-003
   3.4000000000000002E-002     4.4974318007007241E-004
   3.5100000000000020E-002     1.2876889668405056E-002
   3.6200000000000010E-002     2.6052789762616158E-002
   3.7300000000000028E-002     3.3488411456346512E-002
   3.8400000000000017E-002     2.8001578524708748E-002
   3.9500000000000007E-002     4.9317395314574242E-003
   4.0600000000000025E-002    -3.4264218062162399E-002
   4.1700000000000015E-002    -7.9567097127437592E-002
   4.2800000000000005E-002   -0.11277913302183151     
   4.3900000000000022E-002   -0.11184168606996536     
   4.5000000000000012E-002    -5.8888826519250870E-002
   4.6100000000000002E-002     4.9889557063579559E-002
   4.7200000000000020E-002    0.19605201482772827     
   4.8300000000000010E-002    0.33650073409080505     
   4.9400000000000027E-002    0.41013735532760620     
   5.0500000000000017E-002    0.35440981388092041     
   5.1600000000000007E-002    0.12899485230445862     
   5.2700000000000025E-002   -0.25976774096488953     
   5.3800000000000014E-002   -0.74234890937805176     
   5.4900000000000004E-002    -1.1859586238861084     
   5.6000000000000022E-002    -1.4162323474884033     
   5.7100000000000012E-002    -1.2601424455642700     
   5.8200000000000002E-002   -0.60245829820632935     
   5.9300000000000019E-002    0.55836635828018188     
   6.0400000000000009E-002     2.0722012519836426     
   6.1500000000000027E-002     3.6327815055847168     
   6.2600000000000017E-002     4.8153033256530762     
   6.3700000000000007E-002     5.1536107063293457     
   6.4800000000000024E-002     4.2425246238708496     
   6.5900000000000014E-002     1.8409924507141113     
   6.7000000000000004E-002    -2.0518646240234375     
   6.8100000000000022E-002    -7.1726889610290527     
   6.9200000000000012E-002    -13.035702705383301     
   7.0300000000000029E-002    -19.038261413574219     
   7.1400000000000019E-002    -24.610490798950195     
   7.2500000000000009E-002    -29.375299453735352     
   7.3600000000000027E-002    -33.279541015625000     
   7.4700000000000016E-002    -36.660346984863281     
   7.5800000000000006E-002    -40.229354858398438     
   7.6900000000000024E-002    -44.973770141601562     
   7.8000000000000014E-002    -52.002132415771484     
   7.9100000000000004E-002    -62.380409240722656     
   8.0200000000000021E-002    -76.993339538574219     
   8.1300000000000011E-002    -96.484947204589844     
   8.2400000000000029E-002    -121.28937530517578     
   8.3500000000000019E-002    -151.74432373046875     
   8.4600000000000009E-002    -188.26243591308594     
   8.5700000000000026E-002    -231.51609802246094     
   8.6800000000000016E-002    -282.56878662109375     
   8.7900000000000006E-002    -342.92684936523438     
   8.9000000000000024E-002    -414.53631591796875     
   9.0100000000000013E-002    -499.66793823242188     
   9.1200000000000003E-002    -600.82214355468750     
   9.2300000000000021E-002    -720.67712402343750     
   9.3400000000000011E-002    -862.02215576171875     
   9.4500000000000028E-002    -1027.8352050781250     
   9.5600000000000018E-002    -1221.4375000000000     
   9.6700000000000008E-002    -1446.5915527343750     
   9.7800000000000026E-002    -1707.5573730468750     
   9.8900000000000016E-002    -2009.2332763671875     
  0.10000000000000001         -2357.0368652343750     
  0.10110000000000002         -2756.7604980468750     
  0.10220000000000001         -3214.5051269531250     
  0.10330000000000003         -3736.4763183593750     
  0.10440000000000002         -4328.8979492187500     
  0.10550000000000001         -4998.1025390625000     
  0.10660000000000003         -5750.3510742187500     
  0.10770000000000002         -6592.3427734375000     
  0.10880000000000001         -7530.4248046875000     
  0.10990000000000003         -8571.1250000000000     
  0.11100000000000002         -9720.5283203125000     
  0.11210000000000001         -10984.391601562500     
  0.11320000000000002         -12367.357421875000     
  0.11430000000000001         -13872.642578125000     
  0.11540000000000003         -15502.038085937500     
  0.11650000000000002         -17255.439453125000     
  0.11760000000000001         -19130.177734375000     
  0.11870000000000003         -21121.078125000000     
  0.11980000000000002         -23220.941406250000     
  0.12090000000000001         -25418.923828125000     
  0.12200000000000003         -27700.833984375000     
  0.12310000000000001         -30047.740234375000     
  0.12420000000000003         -32437.539062500000     
  0.12530000000000002         -34843.238281250000     
  0.12640000000000001         -37235.238281250000     
  0.12750000000000003         -39573.929687500000     
  0.12860000000000002         -41821.007812500000     
  0.12970000000000001         -43928.023437500000     
  0.13080000000000003         -45844.476562500000     
  0.13190000000000002         -47516.863281250000     
  0.13300000000000001         -48883.695312500000     
  0.13410000000000000         -49883.488281250000     
  0.13520000000000004         -50448.207031250000     
  0.13630000000000003         -50510.101562500000     
  0.13740000000000002         -49999.609375000000     
  0.13850000000000001         -48850.500000000000     
  0.13960000000000000         -46991.371093750000     
  0.14070000000000005         -44366.160156250000     
  0.14180000000000004         -40907.617187500000     
  0.14290000000000003         -36565.164062500000     
  0.14400000000000002         -31295.382812500000     
  0.14510000000000001         -25061.255859375000     
  0.14620000000000000         -17844.513671875000     
  0.14730000000000004         -9629.7529296875000     
  0.14840000000000003         -432.24105834960938     
  0.14950000000000002          9735.2734375000000     
  0.15060000000000001          20824.257812500000     
  0.15170000000000000          32784.812500000000     
  0.15280000000000005          45521.097656250000     
  0.15390000000000004          58949.265625000000     
  0.15500000000000003          72931.289062500000     
  0.15610000000000002          87336.617187500000     
  0.15720000000000001          102001.76562500000     
  0.15830000000000000          116751.57031250000     
  0.15940000000000004          131383.93750000000     
  0.16050000000000003          145688.35937500000     
  0.16160000000000002          159449.14062500000     
  0.16270000000000001          172446.18750000000     
  0.16380000000000000          184444.26562500000     
  0.16490000000000005          195197.59375000000     
  0.16600000000000004          204485.25000000000     
  0.16710000000000003          212093.68750000000     
  0.16820000000000002          217820.07812500000     
  0.16930000000000001          221459.62500000000     
  0.17040000000000000          222857.23437500000     
  0.17150000000000004          221873.81250000000     
  0.17260000000000003          218406.46875000000     
  0.17370000000000002          212371.93750000000     
  0.17480000000000001          203731.20312500000     
  0.17590000000000000          192495.53125000000     
  0.17700000000000005          178698.84375000000     
  0.17810000000000004          162436.75000000000     
  0.17920000000000003          143826.85937500000     
  0.18030000000000002          123041.39062500000     
  0.18140000000000001          100294.37500000000     
  0.18250000000000000          75830.117187500000     
  0.18360000000000004          49931.644531250000     
  0.18470000000000003          22901.345703125000     
  0.18580000000000002         -4919.4086914062500     
  0.18690000000000001         -33182.968750000000     
  0.18800000000000000         -61519.332031250000     
  0.18910000000000005         -89548.406250000000     
  0.19020000000000004         -116915.17187500000     
  0.19130000000000003         -143244.71875000000     
  0.19240000000000002         -168170.87500000000     
  0.19350000000000001         -191392.46875000000     
  0.19460000000000005         -212558.70312500000     
  0.19570000000000004         -231422.03125000000     
  0.19680000000000003         -247728.45312500000     
  0.19790000000000002         -261296.35937500000     
  0.19900000000000001         -271951.06250000000     
  0.20010000000000000         -279581.84375000000     
  0.20120000000000005         -284138.37500000000     
  0.20230000000000004         -285597.96875000000     
  0.20340000000000003         -283998.75000000000     
  0.20450000000000002         -279423.78125000000     
  0.20560000000000000         -271982.56250000000     
  0.20670000000000005         -261857.04687500000     
  0.20780000000000004         -249232.35937500000     
  0.20890000000000003         -234368.81250000000     
