 -0.12000000000000000          0.0000000000000000     
 -0.11889999999999999          0.0000000000000000     
 -0.11780000000000000          0.0000000000000000     
 -0.11670000000000000          0.0000000000000000     
 -0.11559999999999999          0.0000000000000000     
 -0.11449999999999999          0.0000000000000000     
 -0.11340000000000000          0.0000000000000000     
 -0.11230000000000000          0.0000000000000000     
 -0.11119999999999999          0.0000000000000000     
 -0.11009999999999999          3.0857417645648911E-023
 -0.10900000000000000         -7.4452300959750105E-023
 -0.10790000000000000         -3.3264348387803467E-022
 -0.10679999999999999          7.9409328707671070E-022
 -0.10569999999999999          1.4314969374631230E-021
 -0.10460000000000000         -5.6828883279848547E-021
 -0.10349999999999999          1.0169782744297961E-021
 -0.10239999999999999          4.8475553011954914E-020
 -0.10130000000000000         -2.5586248925500817E-020
 -0.10020000000000000         -3.7711696623811863E-019
  -9.9099999999999994E-002    -1.3696147682393032E-019
  -9.7999999999999990E-002     1.8826932662630492E-018
  -9.6899999999999986E-002     2.6257376164005519E-018
  -9.5799999999999996E-002    -4.5959697525288629E-018
  -9.4699999999999993E-002    -1.4268483409096728E-017
  -9.3599999999999989E-002    -2.3587979541284112E-018
  -9.2499999999999999E-002     3.3525461481929251E-017
  -9.1399999999999995E-002     4.1664458797030464E-017
  -9.0299999999999991E-002    -4.9103232007173900E-018
  -8.9200000000000002E-002    -3.4561118078625243E-017
  -8.8099999999999984E-002    -6.3588212570813519E-017
  -8.6999999999999994E-002    -3.2830470286962607E-016
  -8.5899999999999990E-002    -6.1217215150216023E-016
  -8.4799999999999986E-002     4.2937751810567630E-016
  -8.3699999999999997E-002     3.3405408193592449E-015
  -8.2599999999999993E-002     4.2001018074199099E-015
  -8.1499999999999989E-002    -3.1499501476557916E-015
  -8.0399999999999999E-002    -1.5762554700067891E-014
  -7.9299999999999995E-002    -1.6444795693367972E-014
  -7.8199999999999992E-002     7.5907289554997225E-015
  -7.7100000000000002E-002     4.0690375195792314E-014
  -7.5999999999999984E-002     5.1601213265414086E-014
  -7.4899999999999994E-002     3.1169667270413565E-014
  -7.3799999999999991E-002    -1.9180571505530118E-014
  -7.2699999999999987E-002    -1.3699021843109616E-013
  -7.1599999999999997E-002    -3.2686771041581797E-013
  -7.0499999999999993E-002    -3.5160744216340689E-013
  -6.9399999999999989E-002     2.1141855627293538E-013
  -6.8300000000000000E-002     1.3206892177097806E-012
  -6.7199999999999996E-002     1.8816085842199293E-012
  -6.6099999999999992E-002     4.7746518110763914E-013
  -6.5000000000000002E-002    -2.7429692631836256E-012
  -6.3899999999999985E-002    -5.3588140869198497E-012
  -6.2799999999999995E-002    -4.6869955833139798E-012
  -6.1699999999999991E-002    -1.5832367155580590E-013
  -6.0599999999999994E-002     7.1933756694286810E-012
  -5.9499999999999990E-002     1.6027547344865667E-011
  -5.8399999999999994E-002     2.1587807930156799E-011
  -5.7299999999999990E-002     1.1740906857848898E-011
  -5.6199999999999986E-002    -2.4292097847156136E-011
  -5.5099999999999996E-002    -7.3197600758412307E-011
  -5.3999999999999992E-002    -8.8944990261907719E-011
  -5.2899999999999989E-002    -2.7235750113541179E-011
  -5.1799999999999985E-002     9.9362615357811990E-011
  -5.0699999999999995E-002     2.1193850840983686E-010
  -4.9599999999999991E-002     2.2488851059154769E-010
  -4.8499999999999988E-002     1.0621908907992861E-010
  -4.7399999999999998E-002    -1.2961431927749345E-010
  -4.6299999999999994E-002    -4.4443945745875624E-010
  -4.5199999999999990E-002    -7.1662970002606130E-010
  -4.4099999999999986E-002    -6.7124272806751151E-010
  -4.2999999999999997E-002    -3.1320238069731943E-011
  -4.1899999999999993E-002     1.0943415063024986E-009
  -4.0799999999999989E-002     2.0195758398955377E-009
  -3.9699999999999985E-002     1.9127339712099456E-009
  -3.8599999999999995E-002     5.6101834289279395E-010
  -3.7499999999999992E-002    -1.4003053161459889E-009
  -3.6399999999999988E-002    -3.1065470196267597E-009
  -3.5299999999999984E-002    -4.0859604588661114E-009
  -3.4199999999999994E-002    -4.0049958904830874E-009
  -3.3099999999999991E-002    -2.1138266692588559E-009
  -3.1999999999999987E-002     2.1881647604971022E-009
  -3.0899999999999997E-002     7.8045845341989661E-009
  -2.9799999999999993E-002     1.1658343623821565E-008
  -2.8699999999999989E-002     1.0970851782587943E-008
  -2.7599999999999986E-002     5.7498121819321568E-009
  -2.6499999999999996E-002    -1.9761667857665088E-009
  -2.5399999999999992E-002    -1.1331832361349825E-008
  -2.4299999999999988E-002    -2.2992507453523103E-008
  -2.3199999999999985E-002    -3.4674176419002833E-008
  -2.2099999999999995E-002    -3.7613894221522060E-008
  -2.0999999999999991E-002    -2.1332093425030507E-008
  -1.9899999999999987E-002     1.5877947845410745E-008
  -1.8799999999999983E-002     6.2324261307367124E-008
  -1.7699999999999994E-002     9.9997578217880800E-008
  -1.6599999999999990E-002     1.1448378245404456E-007
  -1.5499999999999986E-002     9.6015895678647212E-008
  -1.4399999999999996E-002     3.5054416258617493E-008
  -1.3299999999999992E-002    -7.2837330833408487E-008
  -1.2199999999999989E-002    -2.1044719744622853E-007
  -1.1099999999999985E-002    -3.3021819945133757E-007
  -9.9999999999999950E-003    -3.7104581451785634E-007
  -8.8999999999999913E-003    -2.8955136599506659E-007
  -7.7999999999999875E-003    -7.7450870605844102E-008
  -6.6999999999999837E-003     2.4279623289658048E-007
  -5.5999999999999939E-003     6.2134080280884518E-007
  -4.4999999999999901E-003     9.6757730716490187E-007
  -3.3999999999999864E-003     1.1431908433223725E-006
  -2.2999999999999826E-003     9.9765452432620805E-007
  -1.1999999999999927E-003     4.4136666588201479E-007
  -9.9999999999988987E-005    -4.9295312010144698E-007
   1.0000000000000148E-003    -1.6383150978072081E-006
   2.1000000000000185E-003    -2.7190462787984870E-006
   3.2000000000000084E-003    -3.3876449379022233E-006
   4.3000000000000121E-003    -3.2832363103807438E-006
   5.4000000000000159E-003    -2.1392440885392716E-006
   6.5000000000000058E-003     8.0504911181833450E-008
   7.6000000000000234E-003     3.0930818866181653E-006
   8.7000000000000133E-003     6.3085458350542467E-006
   9.8000000000000032E-003     8.9212680904893205E-006
   1.0900000000000021E-002     1.0037110769189894E-005
   1.2000000000000011E-002     8.8468495960114524E-006
   1.3100000000000001E-002     4.8774818424135447E-006
   1.4200000000000018E-002    -1.7333121604679036E-006
   1.5300000000000008E-002    -1.0084841960633639E-005
   1.6400000000000026E-002    -1.8588827515486628E-005
   1.7500000000000016E-002    -2.5235920475097373E-005
   1.8600000000000005E-002    -2.7957601560046896E-005
   1.9700000000000023E-002    -2.5071105483220890E-005
   2.0800000000000013E-002    -1.5829409676371142E-005
   2.1900000000000003E-002    -9.6495944035268622E-007
   2.3000000000000020E-002     1.7055757780326530E-005
   2.4100000000000010E-002     3.4296834201086313E-005
   2.5200000000000000E-002     4.6094621211523190E-005
   2.6300000000000018E-002     4.8037494707386941E-005
   2.7400000000000008E-002     3.7008245271863416E-005
   2.8500000000000025E-002     1.2220732969581150E-005
   2.9600000000000015E-002    -2.3894548576208763E-005
   3.0700000000000005E-002    -6.5314874518662691E-005
   3.1800000000000023E-002    -1.0293489322066307E-004
   3.2900000000000013E-002    -1.2602223432622850E-004
   3.4000000000000002E-002    -1.2421100109349936E-004
   3.5100000000000020E-002    -8.9691391622181982E-005
   3.6200000000000010E-002    -1.9166178390150890E-005
   3.7300000000000028E-002     8.4775783761870116E-005
   3.8400000000000017E-002     2.1342096442822367E-004
   3.9500000000000007E-002     3.5320807364769280E-004
   4.0600000000000025E-002     4.8807243001647294E-004
   4.1700000000000015E-002     6.0270988615229726E-004
   4.2800000000000005E-002     6.8577239289879799E-004
   4.3900000000000022E-002     7.3281832737848163E-004
   4.5000000000000012E-002     7.4844044866040349E-004
   4.6100000000000002E-002     7.4699433753266931E-004
   4.7200000000000020E-002     7.5223570456728339E-004
   4.8300000000000010E-002     7.9390971222892404E-004
   4.9400000000000027E-002     9.0442126384004951E-004
   5.0500000000000017E-002     1.1137305991724133E-003
   5.1600000000000007E-002     1.4468106674030423E-003
   5.2700000000000025E-002     1.9199415110051632E-003
   5.3800000000000014E-002     2.5398384314030409E-003
   5.4900000000000004E-002     3.3059250563383102E-003
   5.6000000000000022E-002     4.2109373025596142E-003
   5.7100000000000012E-002     5.2477242425084114E-003
   5.8200000000000002E-002     6.4141303300857544E-003
   5.9300000000000019E-002     7.7186673879623413E-003
   6.0400000000000009E-002     9.1838771477341652E-003
   6.1500000000000027E-002     1.0846123099327087E-002
   6.2600000000000017E-002     1.2757863849401474E-002
   6.3700000000000007E-002     1.4987048693001270E-002
   6.4800000000000024E-002     1.7598092555999756E-002
   6.5900000000000014E-002     2.0659081637859344E-002
   6.7000000000000004E-002     2.4218412116169930E-002
   6.8100000000000022E-002     2.8333108872175217E-002
   6.9200000000000012E-002     3.3042926341295242E-002
   7.0300000000000029E-002     3.8374412804841995E-002
   7.1400000000000019E-002     4.4349614530801773E-002
   7.2500000000000009E-002     5.1002196967601776E-002
   7.3600000000000027E-002     5.8359358459711075E-002
   7.4700000000000016E-002     6.6487923264503479E-002
   7.5800000000000006E-002     7.5438462197780609E-002
   7.6900000000000024E-002     8.5227951407432556E-002
   7.8000000000000014E-002     9.5903150737285614E-002
   7.9100000000000004E-002    0.10750798135995865     
   8.0200000000000021E-002    0.11998657137155533     
   8.1300000000000011E-002    0.13332557678222656     
   8.2400000000000029E-002    0.14743697643280029     
   8.3500000000000019E-002    0.16225630044937134     
   8.4600000000000009E-002    0.17761234939098358     
   8.5700000000000026E-002    0.19329553842544556     
   8.6800000000000016E-002    0.20919834077358246     
   8.7900000000000006E-002    0.22507575154304504     
   8.9000000000000024E-002    0.24066819250583649     
   9.0100000000000013E-002    0.25569972395896912     
   9.1200000000000003E-002    0.26977422833442688     
   9.2300000000000021E-002    0.28257197141647339     
   9.3400000000000011E-002    0.29358115792274475     
   9.4500000000000028E-002    0.30224418640136719     
   9.5600000000000018E-002    0.30813035368919373     
   9.6700000000000008E-002    0.31082531809806824     
   9.7800000000000026E-002    0.30951461195945740     
   9.8900000000000016E-002    0.30343848466873169     
  0.10000000000000001         0.29204106330871582     
  0.10110000000000002         0.27500954270362854     
  0.10220000000000001         0.25152295827865601     
  0.10330000000000003         0.22098898887634277     
  0.10440000000000002         0.18248087167739868     
  0.10550000000000001         0.13593944907188416     
  0.10660000000000003          8.1179417669773102E-002
  0.10770000000000002          1.7938513308763504E-002
  0.10880000000000001         -5.3789131343364716E-002
  0.10990000000000003        -0.13481093943119049     
  0.11100000000000002        -0.22452299296855927     
  0.11210000000000001        -0.32186180353164673     
  0.11320000000000002        -0.42758870124816895     
  0.11430000000000001        -0.53982222080230713     
  0.11540000000000003        -0.65771591663360596     
  0.11650000000000002        -0.78049176931381226     
  0.11760000000000001        -0.90711194276809692     
  0.11870000000000003         -1.0352791547775269     
  0.11980000000000002         -1.1635363101959229     
  0.12090000000000001         -1.2884660959243774     
  0.12200000000000003         -1.4087947607040405     
  0.12310000000000001         -1.5201902389526367     
  0.12420000000000003         -1.6239113807678223     
  0.12530000000000002         -1.7162719964981079     
  0.12640000000000001         -1.7929372787475586     
  0.12750000000000003         -1.8506246805191040     
  0.12860000000000002         -1.8880089521408081     
  0.12970000000000001         -1.9034403562545776     
  0.13080000000000003         -1.8961535692214966     
  0.13190000000000002         -1.8623957633972168     
  0.13300000000000001         -1.8003726005554199     
  0.13410000000000000         -1.7087719440460205     
  0.13520000000000004         -1.5861203670501709     
  0.13630000000000003         -1.4331276416778564     
  0.13740000000000002         -1.2527122497558594     
  0.13850000000000001         -1.0451428890228271     
  0.13960000000000000        -0.80999076366424561     
  0.14070000000000005        -0.54781651496887207     
  0.14180000000000004        -0.26154282689094543     
  0.14290000000000003          4.2312245815992355E-002
  0.14400000000000002         0.35867771506309509     
  0.14510000000000001         0.68589979410171509     
  0.14620000000000000          1.0206294059753418     
  0.14730000000000004          1.3595275878906250     
  0.14840000000000003          1.6944420337677002     
  0.14950000000000002          2.0185687541961670     
  0.15060000000000001          2.3263530731201172     
  0.15170000000000000          2.6136324405670166     
  0.15280000000000005          2.8770771026611328     
  0.15390000000000004          3.1121714115142822     
  0.15500000000000003          3.3122704029083252     
  0.15610000000000002          3.4722864627838135     
  0.15720000000000001          3.5897541046142578     
  0.15830000000000000          3.6608293056488037     
  0.15940000000000004          3.6858181953430176     
  0.16050000000000003          3.6641190052032471     
  0.16160000000000002          3.5961766242980957     
  0.16270000000000001          3.4783606529235840     
  0.16380000000000000          3.3116760253906250     
  0.16490000000000005          3.0995061397552490     
  0.16600000000000004          2.8485164642333984     
  0.16710000000000003          2.5620353221893311     
  0.16820000000000002          2.2434003353118896     
  0.16930000000000001          1.8935686349868774     
  0.17040000000000000          1.5202056169509888     
  0.17150000000000004          1.1289976835250854     
  0.17260000000000003         0.72949117422103882     
  0.17370000000000002         0.32801991701126099     
  0.17480000000000001         -7.0693172514438629E-002
  0.17590000000000000        -0.46462979912757874     
  0.17700000000000005        -0.84486073255538940     
  0.17810000000000004         -1.2075099945068359     
  0.17920000000000003         -1.5430921316146851     
  0.18030000000000002         -1.8478142023086548     
  0.18140000000000001         -2.1189534664154053     
  0.18250000000000000         -2.3554360866546631     
  0.18360000000000004         -2.5567424297332764     
  0.18470000000000003         -2.7190144062042236     
  0.18580000000000002         -2.8385906219482422     
  0.18690000000000001         -2.9135932922363281     
  0.18800000000000000         -2.9474284648895264     
  0.18910000000000005         -2.9434695243835449     
  0.19020000000000004         -2.9047651290893555     
  0.19130000000000003         -2.8314340114593506     
  0.19240000000000002         -2.7249815464019775     
  0.19350000000000001         -2.5877306461334229     
  0.19460000000000005         -2.4243729114532471     
  0.19570000000000004         -2.2411193847656250     
  0.19680000000000003         -2.0418624877929688     
  0.19790000000000002         -1.8307130336761475     
  0.19900000000000001         -1.6100879907608032     
  0.20010000000000000         -1.3828344345092773     
  0.20120000000000005         -1.1523516178131104     
  0.20230000000000004        -0.92355787754058838     
  0.20340000000000003        -0.70154881477355957     
  0.20450000000000002        -0.48994958400726318     
  0.20560000000000000        -0.28929299116134644     
  0.20670000000000005         -9.9585972726345062E-002
  0.20780000000000004          7.7453516423702240E-002
  0.20890000000000003         0.23832300305366516     
