 -0.12000000000000000          0.0000000000000000     
 -0.11889999999999999          0.0000000000000000     
 -0.11780000000000000          0.0000000000000000     
 -0.11670000000000000          0.0000000000000000     
 -0.11559999999999999          0.0000000000000000     
 -0.11449999999999999          0.0000000000000000     
 -0.11340000000000000          0.0000000000000000     
 -0.11230000000000000          0.0000000000000000     
 -0.11119999999999999          0.0000000000000000     
 -0.11009999999999999          0.0000000000000000     
 -0.10900000000000000          0.0000000000000000     
 -0.10790000000000000          0.0000000000000000     
 -0.10679999999999999          0.0000000000000000     
 -0.10569999999999999          0.0000000000000000     
 -0.10460000000000000          0.0000000000000000     
 -0.10349999999999999         -1.0550902093419876E-033
 -0.10239999999999999          1.8072251452949426E-032
 -0.10130000000000000         -9.5615721421026573E-032
 -0.10020000000000000         -4.9329832021240443E-032
  -9.9099999999999994E-002     2.2348169459415100E-030
  -9.7999999999999990E-002    -4.1222281033619050E-030
  -9.6899999999999986E-002    -2.6688204064684934E-029
  -9.5799999999999996E-002     8.3177850865766926E-029
  -9.4699999999999993E-002     2.4253606531182756E-028
  -9.3599999999999989E-002    -9.8527918171527732E-028
  -9.2499999999999999E-002    -2.0094808298276374E-027
  -9.1399999999999995E-002     8.8167932703520580E-027
  -9.0299999999999991E-002     1.6559484625511666E-026
  -8.9200000000000002E-002    -6.4013609594307936E-026
  -8.8099999999999984E-002    -1.3460322532429645E-025
  -8.6999999999999994E-002     3.8054654998242267E-025
  -8.5899999999999990E-002     1.0218526499074612E-024
  -8.4799999999999986E-002    -1.7732790483397283E-024
  -8.3699999999999997E-002    -6.9000740412422794E-024
  -8.2599999999999993E-002     5.3940920303819598E-024
  -8.1499999999999989E-002     4.0068684534094133E-023
  -8.0399999999999999E-002     1.8991201120928472E-024
  -7.9299999999999995E-002    -1.9380641318338640E-022
  -7.8199999999999992E-002    -1.6567981111055917E-022
  -7.7100000000000002E-002     7.3916478865020130E-022
  -7.5999999999999984E-002     1.3733171204167526E-021
  -7.4899999999999994E-002    -1.8947137386023961E-021
  -7.3799999999999991E-002    -7.4119906528726179E-021
  -7.2699999999999987E-002     4.7181843947560721E-022
  -7.1599999999999997E-002     2.9170440291151559E-020
  -7.0499999999999993E-002     2.7403450024593312E-020
  -6.9399999999999989E-002    -7.8825724108843282E-020
  -6.8300000000000000E-002    -1.7947993032704548E-019
  -6.7199999999999996E-002     8.4001011923023978E-020
  -6.6099999999999992E-002     6.9669359470582354E-019
  -6.5000000000000002E-002     4.8016071630022753E-019
  -6.3899999999999985E-002    -1.7106499352120998E-018
  -6.2799999999999995E-002    -3.4105442477143256E-018
  -6.1699999999999991E-002     1.3957687457927638E-018
  -6.0599999999999994E-002     1.1778146987164981E-017
  -5.9499999999999990E-002     9.4503424566131661E-018
  -5.8399999999999994E-002    -2.2621730429016526E-017
  -5.7299999999999990E-002    -5.2731609306120390E-017
  -5.6199999999999986E-002    -5.3080283305104355E-019
  -5.5099999999999996E-002     1.3950809988801658E-016
  -5.3999999999999992E-002     1.6790255010411205E-016
  -5.2899999999999989E-002    -1.5216176626837096E-016
  -5.1799999999999985E-002    -5.9996450090809444E-016
  -5.0699999999999995E-002    -3.6128128369301209E-016
  -4.9599999999999991E-002     9.7581933056575159E-016
  -4.8499999999999988E-002     2.0331026901083959E-015
  -4.7399999999999998E-002     3.1797505666852108E-016
  -4.6299999999999994E-002    -4.0659470351678793E-015
  -4.5199999999999990E-002    -5.7640448065054105E-015
  -4.4099999999999986E-002     1.2180330605143287E-015
  -4.2999999999999997E-002     1.3227272433553785E-014
  -4.1899999999999993E-002     1.4475296707268902E-014
  -4.0799999999999989E-002    -6.7047223282763573E-015
  -3.9699999999999985E-002    -3.5643895197586331E-014
  -3.8599999999999995E-002    -3.4885004498823313E-014
  -3.7499999999999992E-002     1.5694946224283947E-014
  -3.6399999999999988E-002     8.0987367962088996E-014
  -3.5299999999999984E-002     8.8180527604234810E-014
  -3.4199999999999994E-002    -3.6882893488215506E-015
  -3.3099999999999991E-002    -1.5067481496430085E-013
  -3.1999999999999987E-002    -2.3881553202001471E-013
  -3.0899999999999997E-002    -1.4466371351697094E-013
  -2.9799999999999993E-002     1.8919207292380363E-013
  -2.8699999999999989E-002     6.3873125538682629E-013
  -2.7599999999999986E-002     7.8745414052242002E-013
  -2.6499999999999996E-002     8.6954118764300675E-014
  -2.5399999999999992E-002    -1.4863817641985744E-012
  -2.4299999999999988E-002    -2.7327367799201419E-012
  -2.3199999999999985E-002    -1.6492832490347387E-012
  -2.2099999999999995E-002     2.4988724197511081E-012
  -2.0999999999999991E-002     7.0774536405082689E-012
  -1.9899999999999987E-002     6.9237428290680469E-012
  -1.8799999999999983E-002    -1.0366827838878545E-012
  -1.7699999999999994E-002    -1.3105298964088963E-011
  -1.6599999999999990E-002    -1.9501870604510252E-011
  -1.5499999999999986E-002    -1.1428987964356985E-011
  -1.4399999999999996E-002     1.1079310212325222E-011
  -1.3299999999999992E-002     3.7073261127673618E-011
  -1.2199999999999989E-002     4.9097455268043433E-011
  -1.1099999999999985E-002     3.0359766783893960E-011
  -9.9999999999999950E-003    -2.6294643545865526E-011
  -8.8999999999999913E-003    -1.0561575225498387E-010
  -7.7999999999999875E-003    -1.5940078423870574E-010
  -6.6999999999999837E-003    -1.1758100049164000E-010
  -5.5999999999999939E-003     6.3979051223572725E-011
  -4.4999999999999901E-003     3.3724142922686440E-010
  -3.3999999999999864E-003     5.3275589495527242E-010
  -2.2999999999999826E-003     4.2140951839186869E-010
  -1.1999999999999927E-003    -1.3184778269170749E-010
  -9.9999999999988987E-005    -9.9388142160705684E-010
   1.0000000000000148E-003    -1.6880401521035537E-009
   2.1000000000000185E-003    -1.5326055979869579E-009
   3.2000000000000084E-003    -3.2357314744269061E-011
   4.3000000000000121E-003     2.5994073560298148E-009
   5.4000000000000159E-003     5.1118065336197560E-009
   6.5000000000000058E-003     5.4823390271963035E-009
   7.6000000000000234E-003     1.9558423769439059E-009
   8.7000000000000133E-003    -5.4790660897197085E-009
   9.8000000000000032E-003    -1.4015969718172983E-008
   1.0900000000000021E-002    -1.8307838800524223E-008
   1.2000000000000011E-002    -1.2591540254902611E-008
   1.3100000000000001E-002     5.7241664741525256E-009
   1.4200000000000018E-002     3.2421450413266939E-008
   1.5300000000000008E-002     5.5026767142862809E-008
   1.6400000000000026E-002     5.5834352252759345E-008
   1.7500000000000016E-002     2.0232841180245487E-008
   1.8600000000000005E-002    -5.1889408325678232E-008
   1.9700000000000023E-002    -1.3731798276239715E-007
   2.0800000000000013E-002    -1.9040069787479297E-007
   2.1900000000000003E-002    -1.5834849875773216E-007
   2.3000000000000020E-002    -9.2215017843955138E-009
   2.4100000000000010E-002     2.3736534160434530E-007
   2.5200000000000000E-002     4.9320107109451783E-007
   2.6300000000000018E-002     6.1494375813708757E-007
   2.7400000000000008E-002     4.5614547161676455E-007
   2.8500000000000025E-002    -5.2049166754386533E-008
   2.9600000000000015E-002    -8.2266774370509665E-007
   3.0700000000000005E-002    -1.5813080835869187E-006
   3.1800000000000023E-002    -1.9193364551028935E-006
   3.2900000000000013E-002    -1.4411787105927942E-006
   3.4000000000000002E-002     2.8726390155497938E-008
   3.5100000000000020E-002     2.2563810944120632E-006
   3.6200000000000010E-002     4.5254491851665080E-006
   3.7300000000000028E-002     5.7649535847303923E-006
   3.8400000000000017E-002     4.9004570428223815E-006
   3.9500000000000007E-002     1.3538863186113304E-006
   4.0600000000000025E-002    -4.4830944716522936E-006
   4.1700000000000015E-002    -1.1030577297788113E-005
   4.2800000000000005E-002    -1.5750229067634791E-005
   4.3900000000000022E-002    -1.5879244529060088E-005
   4.5000000000000012E-002    -9.5207606136682443E-006
   4.6100000000000002E-002     3.2587820442131488E-006
   4.7200000000000020E-002     1.9783625248237513E-005
   4.8300000000000010E-002     3.4983731893589720E-005
   4.9400000000000027E-002     4.2637802835088223E-005
   5.0500000000000017E-002     3.7444417102960870E-005
   5.1600000000000007E-002     1.7339634723612107E-005
   5.2700000000000025E-002    -1.4755247320863418E-005
   5.3800000000000014E-002    -5.0558963266666979E-005
   5.4900000000000004E-002    -7.7923854405526072E-005
   5.6000000000000022E-002    -8.4145336586516351E-005
   5.7100000000000012E-002    -6.0367859987309203E-005
   5.8200000000000002E-002    -5.7951642702391837E-006
   5.9300000000000019E-002     6.9835448812227696E-005
   6.0400000000000009E-002     1.4672514225821942E-004
   6.1500000000000027E-002     1.9886359223164618E-004
   6.2600000000000017E-002     2.0060861425008625E-004
   6.3700000000000007E-002     1.3433974527288228E-004
   6.4800000000000024E-002    -2.9285988603078295E-006
   6.5900000000000014E-002    -1.9622790568973869E-004
   6.7000000000000004E-002    -4.1406732634641230E-004
   6.8100000000000022E-002    -6.1483058379963040E-004
   6.9200000000000012E-002    -7.5712037505581975E-004
   7.0300000000000029E-002    -8.1144901923835278E-004
   7.1400000000000019E-002    -7.7025918290019035E-004
   7.2500000000000009E-002    -6.5299292327836156E-004
   7.3600000000000027E-002    -5.0413521239534020E-004
   7.4700000000000016E-002    -3.8436273462139070E-004
   7.5800000000000006E-002    -3.5682291490957141E-004
   7.6900000000000024E-002    -4.7167265438474715E-004
   7.8000000000000014E-002    -7.5464230030775070E-004
   7.9100000000000004E-002    -1.2012673541903496E-003
   8.0200000000000021E-002    -1.7803424270823598E-003
   8.1300000000000011E-002    -2.4455632083117962E-003
   8.2400000000000029E-002    -3.1506705563515425E-003
   8.3500000000000019E-002    -3.8666722830384970E-003
   8.4600000000000009E-002    -4.5944945886731148E-003
   8.5700000000000026E-002    -5.3707421757280827E-003
   8.6800000000000016E-002    -6.2581794336438179E-003
   8.7900000000000006E-002    -7.3336274363100529E-003
   8.9000000000000024E-002    -8.6686871945858002E-003
   9.0100000000000013E-002    -1.0316444560885429E-002
   9.1200000000000003E-002    -1.2305530719459057E-002
   9.2300000000000021E-002    -1.4639389701187611E-002
   9.3400000000000011E-002    -1.7315216362476349E-002
   9.4500000000000028E-002    -2.0333720371127129E-002
   9.5600000000000018E-002    -2.3713273927569389E-002
   9.6700000000000008E-002    -2.7496235445141792E-002
   9.7800000000000026E-002    -3.1757041811943054E-002
   9.8900000000000016E-002    -3.6576133221387863E-002
  0.10000000000000001         -4.2039271444082260E-002
  0.10110000000000002         -4.8205152153968811E-002
  0.10220000000000001         -5.5117532610893250E-002
  0.10330000000000003         -6.2779001891613007E-002
  0.10440000000000002         -7.1173362433910370E-002
  0.10550000000000001         -8.0260209739208221E-002
  0.10660000000000003         -9.0037941932678223E-002
  0.10770000000000002        -0.10051491856575012     
  0.10880000000000001        -0.11168121546506882     
  0.10990000000000003        -0.12350010871887207     
  0.11100000000000002        -0.13596481084823608     
  0.11210000000000001        -0.14900816977024078     
  0.11320000000000002        -0.16250550746917725     
  0.11430000000000001        -0.17631310224533081     
  0.11540000000000003        -0.19020926952362061     
  0.11650000000000002        -0.20398215949535370     
  0.11760000000000001        -0.21728037297725677     
  0.11870000000000003        -0.22983448207378387     
  0.11980000000000002        -0.24139665067195892     
  0.12090000000000001        -0.25146105885505676     
  0.12200000000000003        -0.25959965586662292     
  0.12310000000000001        -0.26554530858993530     
  0.12420000000000003        -0.26861569285392761     
  0.12530000000000002        -0.26847091317176819     
  0.12640000000000001        -0.26443469524383545     
  0.12750000000000003        -0.25584185123443604     
  0.12860000000000002        -0.24250641465187073     
  0.12970000000000001        -0.22391024231910706     
  0.13080000000000003        -0.19935007393360138     
  0.13190000000000002        -0.16822534799575806     
  0.13300000000000001        -0.13034023344516754     
  0.13410000000000000         -8.5042335093021393E-002
  0.13520000000000004         -3.2264310866594315E-002
  0.13630000000000003          2.7850456535816193E-002
  0.13740000000000002          9.5595553517341614E-002
  0.13850000000000001         0.17129056155681610     
  0.13960000000000000         0.25446978211402893     
  0.14070000000000005         0.34477382898330688     
  0.14180000000000004         0.44030365347862244     
  0.14290000000000003         0.54128754138946533     
  0.14400000000000002         0.64654940366744995     
  0.14510000000000001         0.75551778078079224     
  0.14620000000000000         0.86655902862548828     
  0.14730000000000004         0.97697252035140991     
  0.14840000000000003          1.0855438709259033     
  0.14950000000000002          1.1909292936325073     
  0.15060000000000001          1.2902129888534546     
  0.15170000000000000          1.3825925588607788     
  0.15280000000000005          1.4643540382385254     
  0.15390000000000004          1.5329961776733398     
  0.15500000000000003          1.5879172086715698     
  0.15610000000000002          1.6248617172241211     
  0.15720000000000001          1.6435610055923462     
  0.15830000000000000          1.6412765979766846     
  0.15940000000000004          1.6169296503067017     
  0.16050000000000003          1.5685595273971558     
  0.16160000000000002          1.4934897422790527     
  0.16270000000000001          1.3944774866104126     
  0.16380000000000000          1.2695658206939697     
  0.16490000000000005          1.1192846298217773     
  0.16600000000000004         0.94415777921676636     
  0.16710000000000003         0.74373972415924072     
  0.16820000000000002         0.52035951614379883     
  0.16930000000000001         0.28025609254837036     
  0.17040000000000000          2.3000713437795639E-002
  0.17150000000000004        -0.24840565025806427     
  0.17260000000000003        -0.53094428777694702     
  0.17370000000000002        -0.82053029537200928     
  0.17480000000000001         -1.1112993955612183     
  0.17590000000000000         -1.3990061283111572     
  0.17700000000000005         -1.6787112951278687     
  0.17810000000000004         -1.9478818178176880     
  0.17920000000000003         -2.2009179592132568     
  0.18030000000000002         -2.4331829547882080     
  0.18140000000000001         -2.6391661167144775     
  0.18250000000000000         -2.8154156208038330     
  0.18360000000000004         -2.9591326713562012     
  0.18470000000000003         -3.0670821666717529     
  0.18580000000000002         -3.1363899707794189     
  0.18690000000000001         -3.1658778190612793     
  0.18800000000000000         -3.1547164916992188     
  0.18910000000000005         -3.1013298034667969     
  0.19020000000000004         -3.0067310333251953     
  0.19130000000000003         -2.8708379268646240     
  0.19240000000000002         -2.6974861621856689     
  0.19350000000000001         -2.4886384010314941     
  0.19460000000000005         -2.2468154430389404     
  0.19570000000000004         -1.9753425121307373     
  0.19680000000000003         -1.6787474155426025     
  0.19790000000000002         -1.3620364665985107     
  0.19900000000000001         -1.0316284894943237     
  0.20010000000000000        -0.69163441658020020     
  0.20120000000000005        -0.34567448496818542     
  0.20230000000000004         -4.7492529847659171E-004
  0.20340000000000003         0.33791470527648926     
  0.20450000000000002         0.66353130340576172     
  0.20560000000000000         0.97545009851455688     
  0.20670000000000005          1.2677152156829834     
  0.20780000000000004          1.5347207784652710     
  0.20890000000000003          1.7718603610992432     
