 -0.12000000000000000          0.0000000000000000
 -0.11889999999999999          0.0000000000000000
 -0.11780000000000000          0.0000000000000000
 -0.11670000000000000          1.2546763107634806E-011
 -0.11559999999999999          1.3697711367943732E-011
 -0.11449999999999999         -3.8519888667654101E-011
 -0.11340000000000000         -6.0437016502490337E-011
 -0.11230000000000000          8.1728214473830718E-011
 -0.11119999999999999          2.1664814386923581E-010
 -0.11009999999999999         -3.4040596730289252E-011
 -0.10900000000000000         -4.8208065317467685E-010
 -0.10790000000000000         -2.7206731312290344E-010
 -0.10679999999999999          7.1667344281323153E-010
 -0.10569999999999999          1.0246072879027679E-009
 -0.10460000000000000         -4.2161374391724848E-010
 -0.10349999999999999         -1.8818482327986885E-009
 -0.10239999999999999         -6.0493343667644695E-010
 -0.10130000000000000          2.4258650643815827E-009
 -0.10020000000000000          2.5024655680994101E-009
  -9.9099999999999994E-002    -1.8537364976367599E-009
  -9.7999999999999990E-002    -4.8300967669945294E-009
  -9.6899999999999986E-002    -6.5601379883872823E-010
  -9.5799999999999996E-002     6.4044045622324575E-009
  -9.4699999999999993E-002     5.8165889882388910E-009
  -9.3599999999999989E-002    -3.7803649099998893E-009
  -9.2499999999999999E-002    -9.8755350563806132E-009
  -9.1399999999999995E-002    -2.5646724743921823E-009
  -9.0299999999999991E-002     9.5435108704577942E-009
  -8.9200000000000002E-002     9.3253875732557390E-009
  -8.8099999999999984E-002    -4.2171026670700940E-009
  -8.6999999999999994E-002    -1.2694454376571684E-008
  -8.5899999999999990E-002    -3.9121625938776106E-009
  -8.4799999999999986E-002     9.9854435831048249E-009
  -8.3699999999999997E-002     9.7388079822735563E-009
  -8.2599999999999993E-002    -2.9504445553385494E-009
  -8.1499999999999989E-002    -8.7991400832265754E-009
  -8.0399999999999999E-002    -8.1161882770075522E-010
  -7.9299999999999995E-002     5.8463021090915390E-009
  -7.8199999999999992E-002    -3.1166291769579857E-010
  -7.7100000000000002E-002    -7.3378534359846981E-009
  -7.5999999999999984E-002     2.6067440307003809E-012
  -7.4899999999999994E-002     1.1607259153834093E-008
  -7.3799999999999991E-002     4.7749653120376934E-009
  -7.2699999999999987E-002    -1.6708000316612015E-008
  -7.1599999999999997E-002    -2.0921376631122257E-008
  -7.0499999999999993E-002     5.0175761323600909E-009
  -6.9399999999999989E-002     2.8317584721548883E-008
  -6.8300000000000000E-002     1.2552283656930285E-008
  -6.7199999999999996E-002    -2.6888463011687236E-008
  -6.6099999999999992E-002    -3.8679257130525002E-008
  -6.5000000000000002E-002    -6.8551542220518513E-009
  -6.3899999999999985E-002     2.4598611148007876E-008
  -6.2799999999999995E-002     1.2654564507386112E-008
  -6.1699999999999991E-002    -2.5248594326399143E-008
  -6.0599999999999994E-002    -3.9291585096634662E-008
  -5.9499999999999990E-002    -1.9410153484500370E-008
  -5.8399999999999994E-002    -3.7977163636071509E-009
  -5.7299999999999990E-002    -1.5915663453824891E-008
  -5.6199999999999986E-002    -3.1356048424413530E-008
  -5.5099999999999996E-002    -2.4918396235307227E-008
  -5.3999999999999992E-002    -1.7667669993670643E-008
  -5.2899999999999989E-002    -4.2300264624373085E-008
  -5.1799999999999985E-002    -8.0383536271710909E-008
  -5.0699999999999995E-002    -7.9860299706524529E-008
  -4.9599999999999991E-002    -3.7813578046552720E-008
  -4.8499999999999988E-002    -1.9334718714958399E-008
  -4.7399999999999998E-002    -6.9043757378040027E-008
  -4.6299999999999994E-002    -1.3947962429483596E-007
  -4.5199999999999990E-002    -1.5016995291716739E-007
  -4.4099999999999986E-002    -1.0024763241744949E-007
  -4.2999999999999997E-002    -7.1607423990371899E-008
  -4.1899999999999993E-002    -1.1483549400281845E-007
  -4.0799999999999989E-002    -1.8238506527268328E-007
  -3.9699999999999985E-002    -2.0372689846226422E-007
  -3.8599999999999995E-002    -1.8455594386068697E-007
  -3.7499999999999992E-002    -1.8541034307872906E-007
  -3.6399999999999988E-002    -2.2232156027257588E-007
  -3.5299999999999984E-002    -2.4812757715153566E-007
  -3.4199999999999994E-002    -2.3917490921121498E-007
  -3.3099999999999991E-002    -2.4114100938277261E-007
  -3.1999999999999987E-002    -2.9350266572691908E-007
  -3.0899999999999997E-002    -3.5240782381151803E-007
  -2.9799999999999993E-002    -3.4678424754019943E-007
  -2.8699999999999989E-002    -2.9020611691521481E-007
  -2.7599999999999986E-002    -2.7517043577063305E-007
  -2.6499999999999996E-002    -3.4213570643260027E-007
  -2.5399999999999992E-002    -4.1482653045932238E-007
  -2.4299999999999988E-002    -4.0529283751311596E-007
  -2.3199999999999985E-002    -3.3612784022807318E-007
  -2.2099999999999995E-002    -3.0349946200658451E-007
  -2.0999999999999991E-002    -3.3654134767857613E-007
  -1.9899999999999987E-002    -3.6625277743951301E-007
  -1.8799999999999983E-002    -3.3378424291186093E-007
  -1.7699999999999994E-002    -2.7622689913187060E-007
  -1.6599999999999990E-002    -2.5727987917889550E-007
  -1.5499999999999986E-002    -2.6014041054622794E-007
  -1.4399999999999996E-002    -2.1584932596852013E-007
  -1.3299999999999992E-002    -1.2202750099277182E-007
  -1.2199999999999989E-002    -5.4935224369501157E-008
  -1.1099999999999985E-002    -5.3011195433327885E-008
  -9.9999999999999950E-003    -4.7279502979336030E-008
  -8.8999999999999913E-003     4.1310045162390452E-008
  -7.7999999999999875E-003     1.8241615862280014E-007
  -6.6999999999999837E-003     2.7584940198721597E-007
  -5.5999999999999939E-003     2.9358764663811598E-007
  -4.4999999999999901E-003     3.1809736356080975E-007
  -3.3999999999999864E-003     4.1583993493077287E-007
  -2.2999999999999826E-003     5.4527168913409696E-007
  -1.1999999999999927E-003     6.2543568901674007E-007
  -9.9999999999988987E-005     6.5800662696346990E-007
   1.0000000000000148E-003     7.1263804102272843E-007
   2.1000000000000185E-003     8.1307314303558087E-007
   3.2000000000000084E-003     8.9921485368904541E-007
   4.3000000000000121E-003     9.2301098675307003E-007
   5.4000000000000159E-003     9.2602670065389248E-007
   6.5000000000000058E-003     9.7881127203436336E-007
   7.6000000000000234E-003     1.0613385938995634E-006
   8.7000000000000133E-003     1.0903037264142768E-006
   9.8000000000000032E-003     1.0440505775477504E-006
   1.0900000000000021E-002     9.9825729193980806E-007
   1.2000000000000011E-002     1.0096464393427595E-006
   1.3100000000000001E-002     1.0342597533963271E-006
   1.4200000000000018E-002     9.9506860351539217E-007
   1.5300000000000008E-002     8.9691405946723535E-007
   1.6400000000000026E-002     8.1282377095703851E-007
   1.7500000000000016E-002     7.7167374001874123E-007
   1.8600000000000005E-002     7.1898915621204651E-007
   1.9700000000000023E-002     6.0884707409059047E-007
   2.0800000000000013E-002     4.7450737383769592E-007
   2.1900000000000003E-002     3.7525907714552886E-007
   2.3000000000000020E-002     3.0499236913783534E-007
   2.4100000000000010E-002     2.0577681425493211E-007
   2.5200000000000000E-002     6.1654610306050017E-008
   2.6300000000000018E-002    -7.4548694328768761E-008
   2.7400000000000008E-002    -1.6190000451388187E-007
   2.8500000000000025E-002    -2.3452847131011367E-007
   2.9600000000000015E-002    -3.4351756994510652E-007
   3.0700000000000005E-002    -4.7738888042658800E-007
   3.1800000000000023E-002    -5.7648759366202285E-007
   3.2900000000000013E-002    -6.2239854514700710E-007
   3.4000000000000002E-002    -6.6439281454222510E-007
   3.5100000000000020E-002    -7.3807689204841154E-007
   3.6200000000000010E-002    -8.1720304478949402E-007
   3.7300000000000028E-002    -8.5213360989655484E-007
   3.8400000000000017E-002    -8.4795095744993887E-007
   3.9500000000000007E-002    -8.5059093635209138E-007
   4.0600000000000025E-002    -8.7222213096538326E-007
   4.1700000000000015E-002    -8.7624283651166479E-007
   4.2800000000000005E-002    -8.3932235384054366E-007
   4.3900000000000022E-002    -7.9166528621499310E-007
   4.5000000000000012E-002    -7.6667976145472494E-007
   4.6100000000000002E-002    -7.4256206517020473E-007
   4.7200000000000020E-002    -6.8778632567045861E-007
   4.8300000000000010E-002    -6.0363453258105437E-007
   4.9400000000000027E-002    -5.2910451131538139E-007
   5.0500000000000017E-002    -4.8041147238109261E-007
   5.1600000000000007E-002    -4.2839403135985776E-007
   5.2700000000000025E-002    -3.5503666140357382E-007
   5.3800000000000014E-002    -2.7155130055689369E-007
   5.4900000000000004E-002    -2.0512192122623674E-007
   5.6000000000000022E-002    -1.5040311041047971E-007
   5.7100000000000012E-002    -8.7332871601120132E-008
   5.8200000000000002E-002    -2.2150953071786716E-008
   5.9300000000000019E-002     2.1299856101109071E-008
   6.0400000000000009E-002     5.1235947040595420E-008
   6.1500000000000027E-002     9.4938926054055628E-008
   6.2600000000000017E-002     1.5542900655418634E-007
   6.3700000000000007E-002     2.0142223888797162E-007
   6.4800000000000024E-002     2.1147445750102634E-007
   6.5900000000000014E-002     2.0706096393041662E-007
   6.7000000000000004E-002     2.2093217921792530E-007
   6.8100000000000022E-002     2.4700304379621230E-007
   6.9200000000000012E-002     2.5341509513054916E-007
   7.0300000000000029E-002     2.3741870336380089E-007
   7.1400000000000019E-002     2.3105302204839973E-007
   7.2500000000000009E-002     2.4413424171143561E-007
   7.3600000000000027E-002     2.4343017912542564E-007
   7.4700000000000016E-002     2.0657013521940826E-007
   7.5800000000000006E-002     1.6540205649562267E-007
   7.6900000000000024E-002     1.6250638168457954E-007
   7.8000000000000014E-002     1.8247638422508317E-007
   7.9100000000000004E-002     1.7147735320577340E-007
   8.0200000000000021E-002     1.1863108539955647E-007
   8.1300000000000011E-002     7.6117679270737426E-008
   8.2400000000000029E-002     7.8918546364548092E-008
   8.3500000000000019E-002     9.1571997984374320E-008
   8.4600000000000009E-002     6.5309770036492409E-008
   8.5700000000000026E-002     1.9094832381938431E-008
   8.6800000000000016E-002     1.0675423212092028E-008
   8.7900000000000006E-002     3.9095411352718656E-008
   8.9000000000000024E-002     3.9466275580934962E-008
   9.0100000000000013E-002    -1.6927550916534528E-008
   9.1200000000000003E-002    -6.4055086568259867E-008
   9.2300000000000021E-002    -3.9853262023825664E-008
   9.3400000000000011E-002     1.6690888671178072E-008
   9.4500000000000028E-002     1.6841109840015633E-008
   9.5600000000000018E-002    -4.6633068961909885E-008
   9.6700000000000008E-002    -8.7526849767982640E-008
   9.7800000000000026E-002    -5.3997780469217105E-008
   9.8900000000000016E-002    -4.0601593198630326E-009
  0.10000000000000001         -1.2136056604106216E-008
  0.10110000000000002         -5.5887230843154612E-008
  0.10220000000000001         -5.6170851081560613E-008
  0.10330000000000003         -9.6154915141255515E-009
  0.10440000000000002          4.4108352525995542E-009
  0.10550000000000001         -4.6552464993965259E-008
  0.10660000000000003         -8.5952621020624065E-008
  0.10770000000000002         -4.2136552025340279E-008
  0.10880000000000001          3.3189962778124027E-008
  0.10990000000000003          3.2882027767300315E-008
  0.11100000000000002         -4.4133834364856739E-008
  0.11210000000000001         -8.3977333531493059E-008
  0.11320000000000002         -2.6315985834912681E-008
  0.11430000000000001          4.5606260101749285E-008
  0.11540000000000003          2.9769887888164703E-008
  0.11650000000000002         -4.2591683069304054E-008
  0.11760000000000001         -5.8489408871764681E-008
  0.11870000000000003          2.6450850398873627E-009
  0.11980000000000002          4.1208995327224329E-008
  0.12090000000000001         -2.8156867948325726E-009
  0.12200000000000003         -5.4546134720112605E-008
  0.12310000000000001         -2.3807285032262371E-008
  0.12420000000000003          4.9307594451875048E-008
  0.12530000000000002          5.1959720082095373E-008
  0.12640000000000001         -2.4577861523766842E-008
  0.12750000000000003         -6.5892216127849679E-008
  0.12860000000000002         -8.6280325106713462E-009
  0.12970000000000001          6.0920470446035324E-008
  0.13080000000000003          3.7360425864108038E-008
  0.13190000000000002         -4.1976839781909803E-008
  0.13300000000000001         -5.4106095603856375E-008
  0.13410000000000000          1.9875228574051107E-008
  0.13520000000000004          6.5022398132441594E-008
  0.13630000000000003          1.0191994803676607E-008
  0.13740000000000002         -6.0558299708191043E-008
  0.13850000000000001         -3.6629757005357533E-008
  0.13960000000000000          4.8314834799612072E-008
  0.14070000000000005          6.5691075690210710E-008
  0.14180000000000004         -1.2143284600085735E-008
  0.14290000000000003         -6.9230338795023272E-008
  0.14400000000000002         -2.2937301835668222E-008
  0.14510000000000001          5.2743921230558044E-008
  0.14620000000000000          4.3777664160415952E-008
  0.14730000000000004         -3.0016849450476002E-008
  0.14840000000000003         -5.0946582064170798E-008
  0.14950000000000002          1.1574442737583013E-008
  0.15060000000000001          5.5088467121322537E-008
  0.15170000000000000          7.7701756140413636E-009
  0.15280000000000005         -5.6541207271720850E-008
  0.15390000000000004         -3.3062253379512185E-008
  0.15500000000000003          4.7763961674718303E-008
  0.15610000000000002          6.2426359193068492E-008
  0.15720000000000001         -1.6423410187371701E-008
  0.15830000000000000         -7.4504853841972363E-008
  0.15940000000000004         -2.6312296341757246E-008
  0.16050000000000003          5.6879244425545039E-008
  0.16160000000000002          5.4986514896881999E-008
  0.16270000000000001         -2.2455473924765101E-008
  0.16380000000000000         -5.7075201453926638E-008
  0.16490000000000005         -3.0646061244254952E-009
  0.16600000000000004          4.9392145484716821E-008
  0.16710000000000003          1.9241896964672378E-008
  0.16820000000000002         -4.1293823471733049E-008
  0.16930000000000001         -3.3306037039437797E-008
  0.17040000000000000          3.1990335713771856E-008
  0.17150000000000004          5.0896918679654846E-008
  0.17260000000000003         -9.6479633171497881E-009
  0.17370000000000002         -5.8390376977968117E-008
  0.17480000000000001         -1.9416882324208018E-008
  0.17590000000000000          5.0617728675206308E-008
  0.17700000000000005          4.7580130058122450E-008
  0.17810000000000004         -2.3428682993653638E-008
  0.17920000000000003         -5.7690421328970842E-008
  0.18030000000000002         -9.1210035080280250E-009
  0.18140000000000001          4.5205919008139972E-008
  0.18250000000000000          2.6107597861368959E-008
  0.18360000000000004         -3.0089537972344260E-008
  0.18470000000000003         -3.4145745786418047E-008
  0.18580000000000002          1.6988515483262745E-008
  0.18690000000000001          3.9833917497844595E-008
  0.18800000000000000         -2.6104227668355406E-009
  0.18910000000000005         -4.3646540603958783E-008
  0.19020000000000004         -1.7856580214470341E-008
  0.19130000000000003          3.6726273577869506E-008
  0.19240000000000002          3.6938608616310376E-008
  0.19350000000000001         -1.8328963236058371E-008
  0.19460000000000005         -4.6785590512854469E-008
  0.19570000000000004         -7.0887646863582177E-009
  0.19680000000000003          4.1101255732201025E-008
  0.19790000000000002          2.8728416978651694E-008
  0.19900000000000001         -2.1450309972692594E-008
  0.20010000000000000         -3.4424601835780777E-008
  0.20120000000000005          3.7696494814554171E-009
  0.20230000000000004          3.1318510451683323E-008
  0.20340000000000003          8.8475902160212172E-009
  0.20450000000000002         -2.4030454071066742E-008
  0.20560000000000000         -1.5278413201258445E-008
  0.20670000000000005          1.8728551154367779E-008
  0.20780000000000004          2.2165062674162073E-008
  0.20890000000000003         -1.1278211253795689E-008
