 -0.12000000000000000          0.0000000000000000
 -0.11889999999999999          0.0000000000000000
 -0.11780000000000000         -2.8803398555155013E-010
 -0.11670000000000000         -3.7413219744486526E-010
 -0.11559999999999999          3.5014199872840379E-010
 -0.11449999999999999          9.4073016043694224E-010
 -0.11340000000000000          9.4344115852962318E-011
 -0.11230000000000000         -1.0913596693029604E-009
 -0.11119999999999999         -5.3994986259908728E-010
 -0.11009999999999999          4.0800493539272509E-010
 -0.10900000000000000         -1.7057470991233004E-009
 -0.10790000000000000         -5.1608428641713999E-009
 -0.10679999999999999         -2.5409692128164352E-009
 -0.10569999999999999          7.8289570382139573E-009
 -0.10460000000000000          1.4875282339232854E-008
 -0.10349999999999999          7.4609003419823239E-009
 -0.10239999999999999         -7.8669248892992982E-009
 -0.10130000000000000         -1.2319265607629859E-008
 -0.10020000000000000         -5.1220550023600708E-010
  -9.9099999999999994E-002     1.0257106275446404E-008
  -9.7999999999999990E-002     3.9317074040923217E-009
  -9.6899999999999986E-002    -1.0295767793877530E-008
  -9.5799999999999996E-002    -1.0654859217140711E-008
  -9.4699999999999993E-002     4.9943840174648813E-009
  -9.3599999999999989E-002     1.5762308791522628E-008
  -9.2499999999999999E-002     8.8267295694777204E-009
  -9.1399999999999995E-002    -2.6693793842014202E-009
  -9.0299999999999991E-002    -2.5358370958628029E-009
  -8.9200000000000002E-002     1.5048964296937584E-009
  -8.8099999999999984E-002    -9.5547330047907053E-009
  -8.6999999999999994E-002    -3.3973734048231563E-008
  -8.5899999999999990E-002    -5.0857028810469274E-008
  -8.4799999999999986E-002    -5.4565401086392740E-008
  -8.3699999999999997E-002    -6.5483426681112178E-008
  -8.2599999999999993E-002    -9.6673907989952568E-008
  -8.1499999999999989E-002    -1.2998593490465282E-007
  -8.0399999999999999E-002    -1.4490673549971689E-007
  -7.9299999999999995E-002    -1.5748329929010652E-007
  -7.8199999999999992E-002    -2.0287106394789589E-007
  -7.7100000000000002E-002    -2.8165894150333770E-007
  -7.5999999999999984E-002    -3.5502839068612957E-007
  -7.4899999999999994E-002    -4.0535437051403278E-007
  -7.3799999999999991E-002    -4.7338815534203604E-007
  -7.2699999999999987E-002    -6.0896365994267398E-007
  -7.1599999999999997E-002    -8.0216415199174662E-007
  -7.0499999999999993E-002    -9.9893975402665092E-007
  -6.9399999999999989E-002    -1.1834146107503329E-006
  -6.8300000000000000E-002    -1.4076381376071367E-006
  -6.7199999999999996E-002    -1.7256301134693786E-006
  -6.6099999999999992E-002    -2.1305777408997528E-006
  -6.5000000000000002E-002    -2.5860899768304080E-006
  -6.3899999999999985E-002    -3.0978669656178681E-006
  -6.2799999999999995E-002    -3.7148813589737983E-006
  -6.1699999999999991E-002    -4.4658031583821867E-006
  -6.0599999999999994E-002    -5.3392168410937302E-006
  -5.9499999999999990E-002    -6.3407492234546226E-006
  -5.8399999999999994E-002    -7.5280295277480036E-006
  -5.7299999999999990E-002    -8.9556378952693194E-006
  -5.6199999999999986E-002    -1.0613653103064280E-005
  -5.5099999999999996E-002    -1.2469113244151231E-005
  -5.3999999999999992E-002    -1.4561912394128740E-005
  -5.2899999999999989E-002    -1.7006786947604269E-005
  -5.1799999999999985E-002    -1.9883862478309311E-005
  -5.0699999999999995E-002    -2.3173888621386141E-005
  -4.9599999999999991E-002    -2.6839263227884658E-005
  -4.8499999999999988E-002    -3.0936844268580899E-005
  -4.7399999999999998E-002    -3.5597324313130230E-005
  -4.6299999999999994E-002    -4.0901817556004971E-005
  -4.5199999999999990E-002    -4.6839446440571919E-005
  -4.4099999999999986E-002    -5.3402603953145444E-005
  -4.2999999999999997E-002    -6.0669695812975988E-005
  -4.1899999999999993E-002    -6.8749170168302953E-005
  -4.0799999999999989E-002    -7.7678771049249917E-005
  -3.9699999999999985E-002    -8.7438995251432061E-005
  -3.8599999999999995E-002    -9.8054748377762735E-005
  -3.7499999999999992E-002    -1.0961816587951034E-004
  -3.6399999999999988E-002    -1.2218939082231373E-004
  -3.5299999999999984E-002    -1.3572994794230908E-004
  -3.4199999999999994E-002    -1.5017815167084336E-004
  -3.3099999999999991E-002    -1.6554999456275254E-004
  -3.1999999999999987E-002    -1.8190126866102219E-004
  -3.0899999999999997E-002    -1.9920030899811536E-004
  -2.9799999999999993E-002    -2.1730408479925245E-004
  -2.8699999999999989E-002    -2.3608269111718982E-004
  -2.7599999999999986E-002    -2.5549551355652511E-004
  -2.6499999999999996E-002    -2.7550020604394376E-004
  -2.5399999999999992E-002    -2.9592114151455462E-004
  -2.4299999999999988E-002    -3.1648436561226845E-004
  -2.3199999999999985E-002    -3.3696260652504861E-004
  -2.2099999999999995E-002    -3.5721409949474037E-004
  -2.0999999999999991E-002    -3.7705575232394040E-004
  -1.9899999999999987E-002    -3.9616279536858201E-004
  -1.8799999999999983E-002    -4.1414322913624346E-004
  -1.7699999999999994E-002    -4.3067467049695551E-004
  -1.6599999999999990E-002    -4.4549602898769081E-004
  -1.5499999999999986E-002    -4.5828209840692580E-004
  -1.4399999999999996E-002    -4.6860115253366530E-004
  -1.3299999999999992E-002    -4.7602527774870396E-004
  -1.2199999999999989E-002    -4.8021960537880659E-004
  -1.1099999999999985E-002    -4.8088069888763130E-004
  -9.9999999999999950E-003    -4.7762310714460909E-004
  -8.8999999999999913E-003    -4.7001699567772448E-004
  -7.7999999999999875E-003    -4.5772257726639509E-004
  -6.6999999999999837E-003    -4.4053606688976288E-004
  -5.5999999999999939E-003    -4.1826991946436465E-004
  -4.4999999999999901E-003    -3.9066368481144309E-004
  -3.3999999999999864E-003    -3.5747708170674741E-004
  -2.2999999999999826E-003    -3.1863179174251854E-004
  -1.1999999999999927E-003    -2.7419839170761406E-004
  -9.9999999999988987E-005    -2.2426870418712497E-004
   1.0000000000000148E-003    -1.6890710685402155E-004
   2.1000000000000185E-003    -1.0826126526808366E-004
   3.2000000000000084E-003    -4.2664822103688493E-005
   4.3000000000000121E-003     2.7420952392276376E-005
   5.4000000000000159E-003     1.0152886534342542E-004
   6.5000000000000058E-003     1.7919459787663072E-004
   7.6000000000000234E-003     2.5982045917771757E-004
   8.7000000000000133E-003     3.4263121779076755E-004
   9.8000000000000032E-003     4.2678628233261406E-004
   1.0900000000000021E-002     5.1148800412192941E-004
   1.2000000000000011E-002     5.9593789046630263E-004
   1.3100000000000001E-002     6.7922734888270497E-004
   1.4200000000000018E-002     7.6034187804907560E-004
   1.5300000000000008E-002     8.3828665083274245E-004
   1.6400000000000026E-002     9.1215339489281178E-004
   1.7500000000000016E-002     9.8105729557573795E-004
   1.8600000000000005E-002     1.0440724436193705E-003
   1.9700000000000023E-002     1.1002905666828156E-003
   2.0800000000000013E-002     1.1489279568195343E-003
   2.1900000000000003E-002     1.1893309419974685E-003
   2.3000000000000020E-002     1.2208949774503708E-003
   2.4100000000000010E-002     1.2430405477061868E-003
   2.5200000000000000E-002     1.2553009437397122E-003
   2.6300000000000018E-002     1.2574185384437442E-003
   2.7400000000000008E-002     1.2493039248511195E-003
   2.8500000000000025E-002     1.2309405719861388E-003
   2.9600000000000015E-002     1.2023741146549582E-003
   3.0700000000000005E-002     1.1637978022918105E-003
   3.1800000000000023E-002     1.1156080290675163E-003
   3.2900000000000013E-002     1.0583403054624796E-003
   3.4000000000000002E-002     9.9260325077921152E-004
   3.5100000000000020E-002     9.1908359900116920E-004
   3.6200000000000010E-002     8.3860085578635335E-004
   3.7300000000000028E-002     7.5210153590887785E-004
   3.8400000000000017E-002     6.6056731157004833E-004
   3.9500000000000007E-002     5.6498614139854908E-004
   4.0600000000000025E-002     4.6639269567094743E-004
   4.1700000000000015E-002     3.6590901436284184E-004
   4.2800000000000005E-002     2.6468108990229666E-004
   4.3900000000000022E-002     1.6379693988710642E-004
   4.5000000000000012E-002     6.4274165197275579E-005
   4.6100000000000002E-002    -3.2905802072491497E-005
   4.7200000000000020E-002    -1.2678526400122792E-004
   4.8300000000000010E-002    -2.1645380184054375E-004
   4.9400000000000027E-002    -3.0110051739029586E-004
   5.0500000000000017E-002    -3.8002143264748156E-004
   5.1600000000000007E-002    -4.5260920887812972E-004
   5.2700000000000025E-002    -5.1836686907336116E-004
   5.3800000000000014E-002    -5.7690538233146071E-004
   5.4900000000000004E-002    -6.2794919358566403E-004
   5.6000000000000022E-002    -6.7131145624443889E-004
   5.7100000000000012E-002    -7.0690340362489223E-004
   5.8200000000000002E-002    -7.3475146200507879E-004
   5.9300000000000019E-002    -7.5499701779335737E-004
   6.0400000000000009E-002    -7.6787010766565800E-004
   6.1500000000000027E-002    -7.7367515768855810E-004
   6.2600000000000017E-002    -7.7279139077290893E-004
   6.3700000000000007E-002    -7.6565181370824575E-004
   6.4800000000000024E-002    -7.5273023685440421E-004
   6.5900000000000014E-002    -7.3453673394396901E-004
   6.7000000000000004E-002    -7.1163685061037540E-004
   6.8100000000000022E-002    -6.8464083597064018E-004
   6.9200000000000012E-002    -6.5415829885751009E-004
   7.0300000000000029E-002    -6.2075856840237975E-004
   7.1400000000000019E-002    -5.8498932048678398E-004
   7.2500000000000009E-002    -5.4741773055866361E-004
   7.3600000000000027E-002    -5.0862057833001018E-004
   7.4700000000000016E-002    -4.6912170364521444E-004
   7.5800000000000006E-002    -4.2936526006087661E-004
   7.6900000000000024E-002    -3.8976510404609144E-004
   7.8000000000000014E-002    -3.5074600600637496E-004
   7.9100000000000004E-002    -3.1270144972950220E-004
   8.0200000000000021E-002    -2.7592442347668111E-004
   8.1300000000000011E-002    -2.4061769363470376E-004
   8.2400000000000029E-002    -2.0697819127235562E-004
   8.3500000000000019E-002    -1.7523247515782714E-004
   8.4600000000000009E-002    -1.4556293899659067E-004
   8.5700000000000026E-002    -1.1803137749666348E-004
   8.6800000000000016E-002    -9.2629830760415643E-005
   8.7900000000000006E-002    -6.9375244493130594E-005
   8.9000000000000024E-002    -4.8317826440325007E-005
   9.0100000000000013E-002    -2.9447905035340227E-005
   9.1200000000000003E-002    -1.2655824320972897E-005
   9.2300000000000021E-002     2.1768639726360561E-006
   9.3400000000000011E-002     1.5101431927178055E-005
   9.4500000000000028E-002     2.6159110348089598E-005
   9.5600000000000018E-002     3.5486988053889945E-005
   9.6700000000000008E-002     4.3293970520608127E-005
   9.7800000000000026E-002     4.9728518206393346E-005
   9.8900000000000016E-002     5.4831503803143278E-005
  0.10000000000000001          5.8658639318309724E-005
  0.10110000000000002          6.1384038417600095E-005
  0.10220000000000001          6.3230028899852186E-005
  0.10330000000000003          6.4315565396100283E-005
  0.10440000000000002          6.4653504523448646E-005
  0.10550000000000001          6.4297892095055431E-005
  0.10660000000000003          6.3416642660740763E-005
  0.10770000000000002          6.2175407947506756E-005
  0.10880000000000001          6.0615464462898672E-005
  0.10990000000000003          5.8712634199764580E-005
  0.11100000000000002          5.6532891903771088E-005
  0.11210000000000001          5.4235668358160183E-005
  0.11320000000000002          5.1917297241743654E-005
  0.11430000000000001          4.9534119170857593E-005
  0.11540000000000003          4.7031538997543976E-005
  0.11650000000000002          4.4485037506092340E-005
  0.11760000000000001          4.2034975194837898E-005
  0.11870000000000003          3.9713930163998157E-005
  0.11980000000000002          3.7431800592457876E-005
  0.12090000000000001          3.5143595596309751E-005
  0.12200000000000003          3.2939529774012044E-005
  0.12310000000000001          3.0917173717170954E-005
  0.12420000000000003          2.9036478736088611E-005
  0.12530000000000002          2.7186084480490535E-005
  0.12640000000000001          2.5364068278577179E-005
  0.12750000000000003          2.3690174202783965E-005
  0.12860000000000002          2.2222988263820298E-005
  0.12970000000000001          2.0862084056716412E-005
  0.13080000000000003          1.9490802515065297E-005
  0.13190000000000002          1.8146614820579998E-005
  0.13300000000000001          1.6960528228082694E-005
  0.13410000000000000          1.5955554772517644E-005
  0.13520000000000004          1.5009123671916313E-005
  0.13630000000000003          1.4033621482667513E-005
  0.13740000000000002          1.3098226190777496E-005
  0.13850000000000001          1.2308679288253188E-005
  0.13960000000000000          1.1636217095656320E-005
  0.14070000000000005          1.0959738574456424E-005
  0.14180000000000004          1.0252096217300277E-005
  0.14290000000000003          9.6184385256492533E-006
  0.14400000000000002          9.1244573923177086E-006
  0.14510000000000001          8.6841173470020294E-006
  0.14620000000000000          8.1846619650605135E-006
  0.14730000000000004          7.6578171501751058E-006
  0.14840000000000003          7.2301677391806152E-006
  0.14950000000000002          6.9266884565877263E-006
  0.15060000000000001          6.6280658757023048E-006
  0.15170000000000000          6.2481490203936119E-006
  0.15280000000000005          5.8605310186976567E-006
  0.15390000000000004          5.5807195167290047E-006
  0.15500000000000003          5.3872668104304466E-006
  0.15610000000000002          5.1552742661442608E-006
  0.15720000000000001          4.8483443606528454E-006
  0.15830000000000000          4.5716778913629241E-006
  0.15940000000000004          4.4069847717764787E-006
  0.16050000000000003          4.2841616050282028E-006
  0.16160000000000002          4.0874165279092267E-006
  0.16270000000000001          3.8306598071358167E-006
  0.16380000000000000          3.6336743960418971E-006
  0.16490000000000005          3.5381908674025908E-006
  0.16600000000000004          3.4463073461665772E-006
  0.16710000000000003          3.2720265608077170E-006
  0.16820000000000002          3.0696212434122572E-006
  0.16930000000000001          2.9448624445649330E-006
  0.17040000000000000          2.8909098546137102E-006
  0.17150000000000004          2.8021854632243048E-006
  0.17260000000000003          2.6397044621262467E-006
  0.17370000000000002          2.4894854959711665E-006
  0.17480000000000001          2.4261212274723221E-006
  0.17590000000000000          2.3957588837220101E-006
  0.17700000000000005          2.2995584458840312E-006
  0.17810000000000004          2.1467408259923104E-006
  0.17920000000000003          2.0405443592608208E-006
  0.18030000000000002          2.0197085177642293E-006
  0.18140000000000001          1.9997989966213936E-006
  0.18250000000000000          1.9018636976397829E-006
  0.18360000000000004          1.7708991890685866E-006
  0.18470000000000003          1.7044278592948103E-006
  0.18580000000000002          1.7044968672053074E-006
  0.18690000000000001          1.6781701788204373E-006
  0.18800000000000000          1.5800235360075021E-006
  0.18910000000000005          1.4773213479202241E-006
  0.19020000000000004          1.4433949218073394E-006
  0.19130000000000003          1.4476652268058388E-006
  0.19240000000000002          1.4074082628212636E-006
  0.19350000000000001          1.3154352700439631E-006
  0.19460000000000005          1.2465138752304483E-006
  0.19570000000000004          1.2392893040669151E-006
  0.19680000000000003          1.2388122740958352E-006
  0.19790000000000002          1.1845224889839301E-006
  0.19900000000000001          1.1032140037059435E-006
  0.20010000000000000          1.0644912435964216E-006
  0.20120000000000005          1.0722620800152072E-006
  0.20230000000000004          1.0604542239889270E-006
  0.20340000000000003          9.9617761861736653E-007
  0.20450000000000002          9.2936562623435748E-007
  0.20560000000000000          9.1522332468230161E-007
  0.20670000000000005          9.3102704568082117E-007
  0.20780000000000004          9.1303098770367797E-007
  0.20890000000000003          8.5303719288276625E-007
