 -0.12000000000000000          0.0000000000000000     
 -0.11889999999999999          0.0000000000000000     
 -0.11780000000000000          0.0000000000000000     
 -0.11670000000000000          0.0000000000000000     
 -0.11559999999999999          0.0000000000000000     
 -0.11449999999999999          0.0000000000000000     
 -0.11340000000000000          0.0000000000000000     
 -0.11230000000000000         -3.4151038326868404E-017
 -0.11119999999999999          2.4329417341235914E-016
 -0.11009999999999999         -1.0446062938771221E-016
 -0.10900000000000000         -3.0223702568985857E-015
 -0.10790000000000000          3.5229912926813475E-015
 -0.10679999999999999          2.4421913127317847E-014
 -0.10569999999999999         -2.6433255541011280E-014
 -0.10460000000000000         -1.6206537522579778E-013
 -0.10349999999999999          9.2829057971293566E-014
 -0.10239999999999999          8.9577482801153629E-013
 -0.10130000000000000          9.8584931450956814E-014
 -0.10020000000000000         -3.9226837923733715E-012
  -9.9099999999999994E-002    -3.4294071488832900E-012
  -9.7999999999999990E-002     1.2393132527155348E-011
  -9.6899999999999986E-002     2.3469896165417836E-011
  -9.5799999999999996E-002    -2.0927213087440499E-011
  -9.4699999999999993E-002    -9.6601178445343550E-011
  -9.3599999999999989E-002    -3.1734195132804288E-011
  -9.2499999999999999E-002     2.5007756976336282E-010
  -9.1399999999999995E-002     3.5002675757844770E-010
  -9.0299999999999991E-002    -2.8608171387389802E-010
  -8.9200000000000002E-002    -1.1867137272858486E-009
  -8.8099999999999984E-002    -6.2300042902307950E-010
  -8.6999999999999994E-002     1.9796759787027440E-009
  -8.5899999999999990E-002     3.5388825203597207E-009
  -8.4799999999999986E-002     2.6877495021282449E-011
  -8.3699999999999997E-002    -6.5816938565887995E-009
  -8.2599999999999993E-002    -7.5276513911148868E-009
  -8.1499999999999989E-002     1.7829059340002118E-009
  -8.0399999999999999E-002     1.2635472224076238E-008
  -7.9299999999999995E-002     1.2774728830322601E-008
  -7.8199999999999992E-002     3.7843621569777497E-009
  -7.7100000000000002E-002    -4.8926325213471955E-009
  -7.5999999999999984E-002    -1.9903849235447524E-008
  -7.4899999999999994E-002    -5.3214673556567504E-008
  -7.3799999999999991E-002    -6.7730674402355362E-008
  -7.2699999999999987E-002     2.1742897260423888E-008
  -7.1599999999999997E-002     2.1614967238292593E-007
  -7.0499999999999993E-002     3.1211101259032148E-007
  -6.9399999999999989E-002     5.3511634234837402E-008
  -6.8300000000000000E-002    -4.9046445838030195E-007
  -6.7199999999999996E-002    -8.0592263884682325E-007
  -6.6099999999999992E-002    -4.1515804127811862E-007
  -6.5000000000000002E-002     4.9616090791460010E-007
  -6.3899999999999985E-002     1.1656827609840548E-006
  -6.2799999999999995E-002     1.0969113191094948E-006
  -6.1699999999999991E-002     5.6658660696484731E-007
  -6.0599999999999994E-002     2.1180019516009452E-008
  -5.9499999999999990E-002    -7.5069272043037927E-007
  -5.8399999999999994E-002    -2.1953987925371621E-006
  -5.7299999999999990E-002    -3.6640019516198663E-006
  -5.6199999999999986E-002    -3.3301816984021571E-006
  -5.5099999999999996E-002    -1.6055324181252217E-007
  -5.3999999999999992E-002     4.4456974137574434E-006
  -5.2899999999999989E-002     7.8714565461268649E-006
  -5.1799999999999985E-002     8.8946453615790233E-006
  -5.0699999999999995E-002     7.8139346442185342E-006
  -4.9599999999999991E-002     3.8585976653848775E-006
  -4.8499999999999988E-002    -5.3401331570057664E-006
  -4.7399999999999998E-002    -1.9508917830535211E-005
  -4.6299999999999994E-002    -3.1792311347089708E-005
  -4.5199999999999990E-002    -3.2112096960190684E-005
  -4.4099999999999986E-002    -1.5958739822963253E-005
  -4.2999999999999997E-002     1.1415828339522704E-005
  -4.1899999999999993E-002     4.0165279642678797E-005
  -4.0799999999999989E-002     6.2803963373880833E-005
  -3.9699999999999985E-002     7.4166549893561751E-005
  -3.8599999999999995E-002     6.7771004978567362E-005
  -3.7499999999999992E-002     3.8308102375594899E-005
  -3.6399999999999988E-002    -1.0742442100308836E-005
  -3.5299999999999984E-002    -6.6115724621340632E-005
  -3.4199999999999994E-002    -1.1320591147523373E-004
  -3.3099999999999991E-002    -1.4074800128582865E-004
  -3.1999999999999987E-002    -1.3439610484056175E-004
  -3.0899999999999997E-002    -7.5110387115273625E-005
  -2.9799999999999993E-002     4.0960148908197880E-005
  -2.8699999999999989E-002     1.7857013153843582E-004
  -2.7599999999999986E-002     2.7364928973838687E-004
  -2.6499999999999996E-002     2.7999727171845734E-004
  -2.5399999999999992E-002     2.0120631961617619E-004
  -2.4299999999999988E-002     6.6780288761947304E-005
  -2.3199999999999985E-002    -1.1541123240021989E-004
  -2.2099999999999995E-002    -3.6070574424229562E-004
  -2.0999999999999991E-002    -6.5619574161246419E-004
  -1.9899999999999987E-002    -9.2986604431644082E-004
  -1.8799999999999983E-002    -1.0946462862193584E-003
  -1.7699999999999994E-002    -1.1199475266039371E-003
  -1.6599999999999990E-002    -1.0451877024024725E-003
  -1.5499999999999986E-002    -9.3071314040571451E-004
  -1.4399999999999996E-002    -8.2297698827460408E-004
  -1.3299999999999992E-002    -7.7093252912163734E-004
  -1.2199999999999989E-002    -8.4042333764955401E-004
  -1.1099999999999985E-002    -1.0824236087501049E-003
  -9.9999999999999950E-003    -1.5044054016470909E-003
  -8.8999999999999913E-003    -2.1016034297645092E-003
  -7.7999999999999875E-003    -2.9053990729153156E-003
  -6.6999999999999837E-003    -3.9453282952308655E-003
  -5.5999999999999939E-003    -5.1637794822454453E-003
  -4.4999999999999901E-003    -6.4283069223165512E-003
  -3.3999999999999864E-003    -7.6789543963968754E-003
  -2.2999999999999826E-003    -9.0265003964304924E-003
  -1.1999999999999927E-003    -1.0632965713739395E-002
  -9.9999999999988987E-005    -1.2525892816483974E-002
   1.0000000000000148E-003    -1.4612037688493729E-002
   2.1000000000000185E-003    -1.6934182494878769E-002
   3.2000000000000084E-003    -1.9776239991188049E-002
   4.3000000000000121E-003    -2.3460445925593376E-002
   5.4000000000000159E-003    -2.8012376278638840E-002
   6.5000000000000058E-003    -3.3174403011798859E-002
   7.6000000000000234E-003    -3.8757734000682831E-002
   8.7000000000000133E-003    -4.4887285679578781E-002
   9.8000000000000032E-003    -5.1814623177051544E-002
   1.0900000000000021E-002    -5.9627644717693329E-002
   1.2000000000000011E-002    -6.8217344582080841E-002
   1.3100000000000001E-002    -7.7518984675407410E-002
   1.4200000000000018E-002    -8.7667427957057953E-002
   1.5300000000000008E-002    -9.8889961838722229E-002
   1.6400000000000026E-002   -0.11138723045587540     
   1.7500000000000016E-002   -0.12535575032234192     
   1.8600000000000005E-002   -0.14084595441818237     
   1.9700000000000023E-002   -0.15763676166534424     
   2.0800000000000013E-002   -0.17500112950801849     
   2.1900000000000003E-002   -0.19242231547832489     
   2.3000000000000020E-002   -0.21020287275314331     
   2.4100000000000010E-002   -0.22910775244235992     
   2.5200000000000000E-002   -0.24911075830459595     
   2.6300000000000018E-002   -0.26924952864646912     
   2.7400000000000008E-002   -0.28834277391433716     
   2.8500000000000025E-002   -0.30629983544349670     
   2.9600000000000015E-002   -0.32376304268836975     
   3.0700000000000005E-002   -0.34117296338081360     
   3.1800000000000023E-002   -0.35752776265144348     
   3.2900000000000013E-002   -0.37103432416915894     
   3.4000000000000002E-002   -0.38031244277954102     
   3.5100000000000020E-002   -0.38481694459915161     
   3.6200000000000010E-002   -0.38513892889022827     
   3.7300000000000028E-002   -0.38096308708190918     
   3.8400000000000017E-002   -0.37140685319900513     
   3.9500000000000007E-002   -0.35532286763191223     
   4.0600000000000025E-002   -0.33125120401382446     
   4.1700000000000015E-002   -0.29756370186805725     
   4.2800000000000005E-002   -0.25415456295013428     
   4.3900000000000022E-002   -0.20255543291568756     
   4.5000000000000012E-002   -0.14332769811153412     
   4.6100000000000002E-002    -7.4517793953418732E-002
   4.7200000000000020E-002     7.6197031885385513E-003
   4.8300000000000010E-002    0.10314694792032242     
   4.9400000000000027E-002    0.20959925651550293     
   5.0500000000000017E-002    0.32250949740409851     
   5.1600000000000007E-002    0.44340762495994568     
   5.2700000000000025E-002    0.57494318485260010     
   5.3800000000000014E-002    0.71689599752426147     
   5.4900000000000004E-002    0.86715251207351685     
   5.6000000000000022E-002     1.0208585262298584     
   5.7100000000000012E-002     1.1764297485351562     
   5.8200000000000002E-002     1.3306484222412109     
   5.9300000000000019E-002     1.4834918975830078     
   6.0400000000000009E-002     1.6329532861709595     
   6.1500000000000027E-002     1.7788724899291992     
   6.2600000000000017E-002     1.9158272743225098     
   6.3700000000000007E-002     2.0364904403686523     
   6.4800000000000024E-002     2.1379091739654541     
   6.5900000000000014E-002     2.2176373004913330     
   6.7000000000000004E-002     2.2780067920684814     
   6.8100000000000022E-002     2.3188784122467041     
   6.9200000000000012E-002     2.3326325416564941     
   7.0300000000000029E-002     2.3074939250946045     
   7.1400000000000019E-002     2.2462511062622070     
   7.2500000000000009E-002     2.1507027149200439     
   7.3600000000000027E-002     2.0255410671234131     
   7.4700000000000016E-002     1.8674143552780151     
   7.5800000000000006E-002     1.6727803945541382     
   7.6900000000000024E-002     1.4391083717346191     
   7.8000000000000014E-002     1.1672049760818481     
   7.9100000000000004E-002    0.86234837770462036     
   8.0200000000000021E-002    0.53309208154678345     
   8.1300000000000011E-002    0.18485191464424133     
   8.2400000000000029E-002   -0.18330875039100647     
   8.3500000000000019E-002   -0.57387721538543701     
   8.4600000000000009E-002   -0.98187357187271118     
   8.5700000000000026E-002    -1.3967393636703491     
   8.6800000000000016E-002    -1.8036565780639648     
   8.7900000000000006E-002    -2.1953203678131104     
   8.9000000000000024E-002    -2.5707201957702637     
   9.0100000000000013E-002    -2.9320991039276123     
   9.1200000000000003E-002    -3.2744796276092529     
   9.2300000000000021E-002    -3.5863523483276367     
   9.3400000000000011E-002    -3.8531847000122070     
   9.4500000000000028E-002    -4.0666866302490234     
   9.5600000000000018E-002    -4.2296261787414551     
   9.6700000000000008E-002    -4.3464088439941406     
   9.7800000000000026E-002    -4.4163594245910645     
   9.8900000000000016E-002    -4.4325795173645020     
  0.10000000000000001         -4.3856248855590820     
  0.10110000000000002         -4.2690758705139160     
  0.10220000000000001         -4.0943880081176758     
  0.10330000000000003         -3.8702659606933594     
  0.10440000000000002         -3.6038155555725098     
  0.10550000000000001         -3.2915139198303223     
  0.10660000000000003         -2.9319856166839600     
  0.10770000000000002         -2.5286073684692383     
  0.10880000000000001         -2.0936784744262695     
  0.10990000000000003         -1.6349360942840576     
  0.11100000000000002         -1.1654040813446045     
  0.11210000000000001        -0.69357746839523315     
  0.11320000000000002        -0.21942164003849030     
  0.11430000000000001         0.25662139058113098     
  0.11540000000000003         0.72701412439346313     
  0.11650000000000002          1.1785624027252197     
  0.11760000000000001          1.5936048030853271     
  0.11870000000000003          1.9679456949234009     
  0.11980000000000002          2.3084647655487061     
  0.12090000000000001          2.6214001178741455     
  0.12200000000000003          2.8962278366088867     
  0.12310000000000001          3.1142933368682861     
  0.12420000000000003          3.2730817794799805     
  0.12530000000000002          3.3860297203063965     
  0.12640000000000001          3.4608232975006104     
  0.12750000000000003          3.4886939525604248     
  0.12860000000000002          3.4655351638793945     
  0.12970000000000001          3.3959112167358398     
  0.13080000000000003          3.2935192584991455     
  0.13190000000000002          3.1546161174774170     
  0.13300000000000001          2.9762599468231201     
  0.13410000000000000          2.7655615806579590     
  0.13520000000000004          2.5424101352691650     
  0.13630000000000003          2.3118436336517334     
  0.13740000000000002          2.0615055561065674     
  0.13850000000000001          1.7860586643218994     
  0.13960000000000000          1.5028275251388550     
  0.14070000000000005          1.2360384464263916     
  0.14180000000000004         0.98758840560913086     
  0.14290000000000003         0.73923844099044800     
  0.14400000000000002         0.48341596126556396     
  0.14510000000000001         0.23838388919830322     
  0.14620000000000000          2.4978531524538994E-002
  0.14730000000000004        -0.15995872020721436     
  0.14840000000000003        -0.33484283089637756     
  0.14950000000000002        -0.50230681896209717     
  0.15060000000000001        -0.64503782987594604     
  0.15170000000000000        -0.75311136245727539     
  0.15280000000000005        -0.83981382846832275     
  0.15390000000000004        -0.92030513286590576     
  0.15500000000000003        -0.98762589693069458     
  0.15610000000000002         -1.0252783298492432     
  0.15720000000000001         -1.0344289541244507     
  0.15830000000000000         -1.0355339050292969     
  0.15940000000000004         -1.0386409759521484     
  0.16050000000000003         -1.0290055274963379     
  0.16160000000000002        -0.99200677871704102     
  0.16270000000000001        -0.93875998258590698     
  0.16380000000000000        -0.89381617307662964     
  0.16490000000000005        -0.85692471265792847     
  0.16600000000000004        -0.80635982751846313     
  0.16710000000000003        -0.73243248462677002     
  0.16820000000000002        -0.65753483772277832     
  0.16930000000000001        -0.60497009754180908     
  0.17040000000000000        -0.56436097621917725     
  0.17150000000000004        -0.50678831338882446     
  0.17260000000000003        -0.42907422780990601     
  0.17370000000000002        -0.35936352610588074     
  0.17480000000000001        -0.31683865189552307     
  0.17590000000000000        -0.28590315580368042     
  0.17700000000000005        -0.24065808951854706     
  0.17810000000000004        -0.18392644822597504     
  0.17920000000000003        -0.13950751721858978     
  0.18030000000000002        -0.11449033766984940     
  0.18140000000000001         -9.0433239936828613E-002
  0.18250000000000000         -5.5024959146976471E-002
  0.18360000000000004         -2.3256001994013786E-002
  0.18470000000000003         -1.2004936113953590E-002
  0.18580000000000002         -9.6807163208723068E-003
  0.18690000000000001          8.7340492755174637E-003
  0.18800000000000000          4.1564542800188065E-002
  0.18910000000000005          5.9574116021394730E-002
  0.19020000000000004          4.8106804490089417E-002
  0.19130000000000003          3.1614139676094055E-002
  0.19240000000000002          4.0142074227333069E-002
  0.19350000000000001          6.6200025379657745E-002
  0.19460000000000005          7.5909644365310669E-002
  0.19570000000000004          5.8494828641414642E-002
  0.19680000000000003          4.0570978075265884E-002
  0.19790000000000002          4.4697504490613937E-002
  0.19900000000000001          5.7454608380794525E-002
  0.20010000000000000          5.3409039974212646E-002
  0.20120000000000005          3.4812442958354950E-002
  0.20230000000000004          2.6476373896002769E-002
  0.20340000000000003          3.5622399300336838E-002
  0.20450000000000002          4.0179535746574402E-002
  0.20560000000000000          2.4480761960148811E-002
  0.20670000000000005          4.7413595020771027E-003
  0.20780000000000004          4.7256019897758961E-003
  0.20890000000000003          1.8746195361018181E-002
