 -0.12000000000000000          0.0000000000000000     
 -0.11889999999999999          0.0000000000000000     
 -0.11780000000000000        -0.13998456299304962     
 -0.11670000000000000          5.2324306219816208E-002
 -0.11559999999999999         0.56046313047409058     
 -0.11449999999999999          9.9298350512981415E-002
 -0.11340000000000000         -1.1527040004730225     
 -0.11230000000000000        -0.55342352390289307     
 -0.11119999999999999          1.6516840457916260     
 -0.11009999999999999         0.39463430643081665     
 -0.10900000000000000         -4.3418359756469727     
 -0.10790000000000000         -2.0974051952362061     
 -0.10679999999999999          11.097191810607910     
 -0.10569999999999999          16.248785018920898     
 -0.10460000000000000         -6.1147122383117676     
 -0.10349999999999999         -35.920665740966797     
 -0.10239999999999999         -27.007156372070312     
 -0.10130000000000000          23.177341461181641     
 -0.10020000000000000          51.184921264648438     
  -9.9099999999999994E-002     11.960783004760742     
  -9.7999999999999990E-002    -41.176090240478516     
  -9.6899999999999986E-002    -21.417091369628906     
  -9.5799999999999996E-002     52.184215545654297     
  -9.4699999999999993E-002     60.060810089111328     
  -9.3599999999999989E-002    -39.851200103759766     
  -9.2499999999999999E-002    -121.23018646240234     
  -9.1399999999999995E-002    -59.311130523681641     
  -9.0299999999999991E-002     63.293613433837891     
  -8.9200000000000002E-002     46.400791168212891     
  -8.8099999999999984E-002    -131.76907348632812     
  -8.6999999999999994E-002    -251.61836242675781     
  -8.5899999999999990E-002    -156.15908813476562     
  -8.4799999999999986E-002     7.4956245422363281     
  -8.3699999999999997E-002    -11.777169227600098     
  -8.2599999999999993E-002    -203.33807373046875     
  -8.1499999999999989E-002    -316.56823730468750     
  -8.0399999999999999E-002    -248.55586242675781     
  -7.9299999999999995E-002    -199.41047668457031     
  -7.8199999999999992E-002    -342.73760986328125     
  -7.7100000000000002E-002    -533.17437744140625     
  -7.5999999999999984E-002    -544.72491455078125     
  -7.4899999999999994E-002    -482.41293334960938     
  -7.3799999999999991E-002    -672.41412353515625     
  -7.2699999999999987E-002    -1133.3608398437500     
  -7.1599999999999997E-002    -1465.3068847656250     
  -7.0499999999999993E-002    -1426.3989257812500     
  -6.9399999999999989E-002    -1365.6353759765625     
  -6.8300000000000000E-002    -1785.9820556640625     
  -6.7199999999999996E-002    -2607.5107421875000     
  -6.6099999999999992E-002    -3242.5869140625000     
  -6.5000000000000002E-002    -3441.0407714843750     
  -6.3899999999999985E-002    -3677.5524902343750     
  -6.2799999999999995E-002    -4480.3779296875000     
  -6.1699999999999991E-002    -5683.8583984375000     
  -6.0599999999999994E-002    -6721.7485351562500     
  -5.9499999999999990E-002    -7509.2749023437500     
  -5.8399999999999994E-002    -8558.7773437500000     
  -5.7299999999999990E-002    -10166.261718750000     
  -5.6199999999999986E-002    -11959.650390625000     
  -5.5099999999999996E-002    -13540.277343750000     
  -5.3999999999999992E-002    -15197.669921875000     
  -5.2899999999999989E-002    -17512.636718750000     
  -5.1799999999999985E-002    -20418.521484375000     
  -5.0699999999999995E-002    -23236.503906250000     
  -4.9599999999999991E-002    -25736.750000000000     
  -4.8499999999999988E-002    -28607.183593750000     
  -4.7399999999999998E-002    -32494.179687500000     
  -4.6299999999999994E-002    -37001.707031250000     
  -4.5199999999999990E-002    -41208.015625000000     
  -4.4099999999999986E-002    -45017.769531250000     
  -4.2999999999999997E-002    -49331.207031250000     
  -4.1899999999999993E-002    -54721.125000000000     
  -4.0799999999999989E-002    -60584.457031250000     
  -3.9699999999999985E-002    -66015.546875000000     
  -3.8599999999999995E-002    -71088.625000000000     
  -3.7499999999999992E-002    -76621.554687500000     
  -3.6399999999999988E-002    -82815.414062500000     
  -3.5299999999999984E-002    -88902.906250000000     
  -3.4199999999999994E-002    -94294.609375000000     
  -3.3099999999999991E-002    -99410.007812500000     
  -3.1999999999999987E-002    -104822.27343750000     
  -3.0899999999999997E-002    -110094.98437500000     
  -2.9799999999999993E-002    -114197.16406250000     
  -2.8699999999999989E-002    -116947.75000000000     
  -2.7599999999999986E-002    -119202.37500000000     
  -2.6499999999999996E-002    -121383.17187500000     
  -2.5399999999999992E-002    -122517.95312500000     
  -2.4299999999999988E-002    -121366.92968750000     
  -2.3199999999999985E-002    -117993.64843750000     
  -2.2099999999999995E-002    -113438.45312500000     
  -2.0999999999999991E-002    -107980.67187500000     
  -1.9899999999999987E-002    -100529.65625000000     
  -1.8799999999999983E-002    -90098.625000000000     
  -1.7699999999999994E-002    -77041.367187500000     
  -1.6599999999999990E-002    -62190.132812500000     
  -1.5499999999999986E-002    -45422.726562500000     
  -1.4399999999999996E-002    -25818.730468750000     
  -1.3299999999999992E-002    -3107.7075195312500     
  -1.2199999999999989E-002     21813.925781250000     
  -1.1099999999999985E-002     48243.921875000000     
  -9.9999999999999950E-003     76727.015625000000     
  -8.8999999999999913E-003     108091.50781250000     
  -7.7999999999999875E-003     141867.57812500000     
  -6.6999999999999837E-003     176599.12500000000     
  -5.5999999999999939E-003     211534.35937500000     
  -4.4999999999999901E-003     247249.34375000000     
  -3.3999999999999864E-003     284176.12500000000     
  -2.2999999999999826E-003     321457.40625000000     
  -1.1999999999999927E-003     357532.00000000000     
  -9.9999999999988987E-005     391744.25000000000     
   1.0000000000000148E-003     424444.18750000000     
   2.1000000000000185E-003     455483.18750000000     
   3.2000000000000084E-003     483607.84375000000     
   4.3000000000000121E-003     507509.93750000000     
   5.4000000000000159E-003     527053.87500000000     
   6.5000000000000058E-003     542664.75000000000     
   7.6000000000000234E-003     553816.75000000000     
   8.7000000000000133E-003     559021.87500000000     
   9.8000000000000032E-003     557403.12500000000     
   1.0900000000000021E-002     549450.68750000000     
   1.2000000000000011E-002     535877.00000000000     
   1.3100000000000001E-002     516211.68750000000     
   1.4200000000000018E-002     489433.93750000000     
   1.5300000000000008E-002     455404.09375000000     
   1.6400000000000026E-002     415124.71875000000     
   1.7500000000000016E-002     369399.43750000000     
   1.8600000000000005E-002     318087.84375000000     
   1.9700000000000023E-002     260991.76562500000     
   2.0800000000000013E-002     198972.48437500000     
   2.1900000000000003E-002     133500.60937500000     
   2.3000000000000020E-002     65417.785156250000     
   2.4100000000000010E-002    -5230.0556640625000     
   2.5200000000000000E-002    -78024.007812500000     
   2.6300000000000018E-002    -151425.37500000000     
   2.7400000000000008E-002    -223739.09375000000     
   2.8500000000000025E-002    -294206.12500000000     
   2.9600000000000015E-002    -362604.65625000000     
   3.0700000000000005E-002    -428231.78125000000     
   3.1800000000000023E-002    -489632.75000000000     
   3.2900000000000013E-002    -545533.93750000000     
   3.4000000000000002E-002    -595514.81250000000     
   3.5100000000000020E-002    -639442.31250000000     
   3.6200000000000010E-002    -676606.31250000000     
   3.7300000000000028E-002    -706001.93750000000     
   3.8400000000000017E-002    -727249.25000000000     
   3.9500000000000007E-002    -740602.12500000000     
   4.0600000000000025E-002    -746372.56250000000     
   4.1700000000000015E-002    -744206.43750000000     
   4.2800000000000005E-002    -733804.25000000000     
   4.3900000000000022E-002    -715412.18750000000     
   4.5000000000000012E-002    -689961.56250000000     
   4.6100000000000002E-002    -658156.56250000000     
   4.7200000000000020E-002    -620277.62500000000     
   4.8300000000000010E-002    -576759.37500000000     
   4.9400000000000027E-002    -528396.62500000000     
   5.0500000000000017E-002    -476113.87500000000     
   5.1600000000000007E-002    -420694.46875000000     
   5.2700000000000025E-002    -362935.75000000000     
   5.3800000000000014E-002    -303674.75000000000     
   5.4900000000000004E-002    -243812.92187500000     
   5.6000000000000022E-002    -184116.73437500000     
   5.7100000000000012E-002    -125242.28906250000     
   5.8200000000000002E-002    -67937.085937500000     
   5.9300000000000019E-002    -12893.863281250000     
   6.0400000000000009E-002     39343.097656250000     
   6.1500000000000027E-002     88309.632812500000     
   6.2600000000000017E-002     133474.25000000000     
   6.3700000000000007E-002     174370.96875000000     
   6.4800000000000024E-002     210840.48437500000     
   6.5900000000000014E-002     242933.25000000000     
   6.7000000000000004E-002     270559.96875000000     
   6.8100000000000022E-002     293393.87500000000     
   6.9200000000000012E-002     311292.18750000000     
   7.0300000000000029E-002     324627.34375000000     
   7.1400000000000019E-002     333901.81250000000     
   7.2500000000000009E-002     339206.78125000000     
   7.3600000000000027E-002     340375.21875000000     
   7.4700000000000016E-002     337655.87500000000     
   7.5800000000000006E-002     331853.25000000000     
   7.6900000000000024E-002     323610.81250000000     
   7.8000000000000014E-002     312893.65625000000     
   7.9100000000000004E-002     299508.25000000000     
   8.0200000000000021E-002     284006.37500000000     
   8.1300000000000011E-002     267416.28125000000     
   8.2400000000000029E-002     250255.68750000000     
   8.3500000000000019E-002     232206.28125000000     
   8.4600000000000009E-002     213110.73437500000     
   8.5700000000000026E-002     193676.12500000000     
   8.6800000000000016E-002     174855.68750000000     
   8.7900000000000006E-002     156677.18750000000     
   8.9000000000000024E-002     138540.85937500000     
   9.0100000000000013E-002     120485.71875000000     
   9.1200000000000003E-002     103480.93750000000     
   9.2300000000000021E-002     88184.765625000000     
   9.3400000000000011E-002     73997.304687500000     
   9.4500000000000028E-002     60037.035156250000     
   9.5600000000000018E-002     46589.820312500000     
   9.6700000000000008E-002     34809.742187500000     
   9.7800000000000026E-002     25054.589843750000     
   9.8900000000000016E-002     16311.928710937500     
  0.10000000000000001          7713.8789062500000     
  0.10110000000000002         -217.20231628417969     
  0.10220000000000001         -6453.1835937500000     
  0.10330000000000003         -11130.643554687500     
  0.10440000000000002         -15407.672851562500     
  0.10550000000000001         -19732.935546875000     
  0.10660000000000003         -23161.582031250000     
  0.10770000000000002         -24962.849609375000     
  0.10880000000000001         -25934.490234375000     
  0.10990000000000003         -27364.041015625000     
  0.11100000000000002         -29099.708984375000     
  0.11210000000000001         -29790.382812500000     
  0.11320000000000002         -28983.835937500000     
  0.11430000000000001         -27960.187500000000     
  0.11540000000000003         -27904.027343750000     
  0.11650000000000002         -28198.183593750000     
  0.11760000000000001         -27427.507812500000     
  0.11870000000000003         -25597.708984375000     
  0.11980000000000002         -24142.937500000000     
  0.12090000000000001         -23747.953125000000     
  0.12200000000000003         -23315.332031250000     
  0.12310000000000001         -21734.970703125000     
  0.12420000000000003         -19673.755859375000     
  0.12530000000000002         -18594.546875000000     
  0.12640000000000001         -18484.648437500000     
  0.12750000000000003         -17836.662109375000     
  0.12860000000000002         -15961.747070312500     
  0.12970000000000001         -14096.411132812500     
  0.13080000000000003         -13546.389648437500     
  0.13190000000000002         -13694.234375000000     
  0.13300000000000001         -12938.587890625000     
  0.13410000000000000         -11149.158203125000     
  0.13520000000000004         -9859.5722656250000     
  0.13630000000000003         -9889.0986328125000     
  0.13740000000000002         -10074.928710937500     
  0.13850000000000001         -9072.0781250000000     
  0.13960000000000000         -7447.3549804687500     
  0.14070000000000005         -6817.1098632812500     
  0.14180000000000004         -7354.4506835937500     
  0.14290000000000003         -7494.2475585937500     
  0.14400000000000002         -6318.9311523437500     
  0.14510000000000001         -4959.8183593750000     
  0.14620000000000000         -4861.8574218750000     
  0.14730000000000004         -5585.6186523437500     
  0.14840000000000003         -5508.4501953125000     
  0.14950000000000002         -4315.0292968750000     
  0.15060000000000001         -3445.9582519531250     
  0.15170000000000000         -3840.4931640625000     
  0.15280000000000005         -4484.8959960937500     
  0.15390000000000004         -4001.0910644531250     
  0.15500000000000003         -2801.9414062500000     
  0.15610000000000002         -2459.9230957031250     
  0.15720000000000001         -3270.7028808593750     
  0.15830000000000000         -3769.0971679687500     
  0.15940000000000004         -2963.3173828125000     
  0.16050000000000003         -1846.8367919921875     
  0.16160000000000002         -1887.3518066406250     
  0.16270000000000001         -2804.8764648437500     
  0.16380000000000000         -3033.0424804687500     
  0.16490000000000005         -2107.4821777343750     
  0.16600000000000004         -1323.0356445312500     
  0.16710000000000003         -1707.9257812500000     
  0.16820000000000002         -2470.6384277343750     
  0.16930000000000001         -2272.3371582031250     
  0.17040000000000000         -1302.6649169921875     
  0.17150000000000004         -957.57019042968750     
  0.17260000000000003         -1659.7780761718750     
  0.17370000000000002         -2210.1574707031250     
  0.17480000000000001         -1646.7359619140625     
  0.17590000000000000         -723.09570312500000     
  0.17700000000000005         -743.32318115234375     
  0.17810000000000004         -1568.8717041015625     
  0.17920000000000003         -1855.9520263671875     
  0.18030000000000002         -1113.3024902343750     
  0.18140000000000001         -418.04129028320312     
  0.18250000000000000         -742.80957031250000     
  0.18360000000000004         -1492.7664794921875     
  0.18470000000000003         -1461.1420898437500     
  0.18580000000000002         -675.05407714843750     
  0.18690000000000001         -307.64199829101562     
  0.18800000000000000         -858.16180419921875     
  0.18910000000000005         -1418.8459472656250     
  0.19020000000000004         -1102.8808593750000     
  0.19130000000000003         -385.69421386718750     
  0.19240000000000002         -333.37606811523438     
  0.19350000000000001         -962.32452392578125     
  0.19460000000000005         -1256.4854736328125     
  0.19570000000000004         -748.90142822265625     
  0.19680000000000003         -209.88874816894531     
  0.19790000000000002         -431.97048950195312     
  0.19900000000000001         -1023.4515380859375     
  0.20010000000000000         -1041.1893310546875     
  0.20120000000000005         -435.74484252929688     
  0.20230000000000004         -95.103370666503906     
  0.20340000000000003         -478.10971069335938     
  0.20450000000000002         -949.68774414062500     
  0.20560000000000000         -781.36914062500000     
  0.20670000000000005         -235.56315612792969     
  0.20780000000000004         -112.61067199707031     
  0.20890000000000003         -525.37341308593750     
