 -0.12000000000000000          0.0000000000000000     
 -0.11889999999999999          0.0000000000000000     
 -0.11780000000000000          0.0000000000000000     
 -0.11670000000000000          0.0000000000000000     
 -0.11559999999999999          0.0000000000000000     
 -0.11449999999999999          0.0000000000000000     
 -0.11340000000000000          3.7333332904071134E-015
 -0.11230000000000000         -9.2299079620591917E-015
 -0.11119999999999999         -3.4273317961897726E-014
 -0.11009999999999999          8.6530080518378016E-014
 -0.10900000000000000          2.1492899961953610E-013
 -0.10790000000000000         -4.4038598180466682E-013
 -0.10679999999999999         -1.1180390380866045E-012
 -0.10569999999999999          1.4642357422031682E-012
 -0.10460000000000000          4.8125609400373470E-012
 -0.10349999999999999         -2.9287160804164492E-012
 -0.10239999999999999         -1.6795792187607184E-011
 -0.10130000000000000          5.2946302940906631E-013
 -0.10020000000000000          4.7572789457772657E-011
  -9.9099999999999994E-002     2.2220759954283409E-011
  -9.7999999999999990E-002    -1.1150796258574402E-010
  -9.6899999999999986E-002    -1.1076684014454941E-010
  -9.5799999999999996E-002     2.1720579501671722E-010
  -9.4699999999999993E-002     3.7973219013665016E-010
  -9.3599999999999989E-002    -3.0847574494785590E-010
  -9.2499999999999999E-002    -1.0682393858374439E-009
  -9.1399999999999995E-002     4.3762281992654195E-011
  -9.0299999999999991E-002     2.4134521048324586E-009
  -8.9200000000000002E-002     1.5590122526276673E-009
  -8.8099999999999984E-002    -3.9368761584057665E-009
  -8.6999999999999994E-002    -5.9398646001795896E-009
  -8.5899999999999990E-002     3.3768656759747273E-009
  -8.4799999999999986E-002     1.3442159385590458E-008
  -8.3699999999999997E-002     3.1238347464324079E-009
  -8.2599999999999993E-002    -2.1568885344436239E-008
  -8.1499999999999989E-002    -1.9278898477637085E-008
  -8.0399999999999999E-002     2.4960929323469827E-008
  -7.9299999999999995E-002     4.8645389938428707E-008
  -7.8199999999999992E-002    -1.2655438474951097E-008
  -7.7100000000000002E-002    -9.2711793797661812E-008
  -7.5999999999999984E-002    -4.0518528976463131E-008
  -7.4899999999999994E-002     1.3080796179565368E-007
  -7.3799999999999991E-002     1.6309502370859263E-007
  -7.2699999999999987E-002    -9.4739803557786217E-008
  -7.1599999999999997E-002    -3.3117029829554667E-007
  -7.0499999999999993E-002    -9.7096695128584543E-008
  -6.9399999999999989E-002     4.3069621824542992E-007
  -6.8300000000000000E-002     4.4948021127311222E-007
  -6.7199999999999996E-002    -3.1692164270680223E-007
  -6.6099999999999992E-002    -8.6647918351445696E-007
  -6.5000000000000002E-002    -1.2583851116687583E-007
  -6.3899999999999985E-002     1.1687204732879763E-006
  -6.2799999999999995E-002     9.8343116405885667E-007
  -6.1699999999999991E-002    -9.9594251423695823E-007
  -6.0599999999999994E-002    -2.1118605673109414E-006
  -5.9499999999999990E-002    -1.2706949803487078E-007
  -5.8399999999999994E-002     2.8147671855549561E-006
  -5.7299999999999990E-002     2.2112726583145559E-006
  -5.6199999999999986E-002    -2.1249950350465951E-006
  -5.5099999999999996E-002    -4.3690051825251430E-006
  -5.3999999999999992E-002    -3.4609738008839486E-007
  -5.2899999999999989E-002     5.2531140681821853E-006
  -5.1799999999999985E-002     4.0064874156087171E-006
  -5.0699999999999995E-002    -3.7736408557975665E-006
  -4.9599999999999991E-002    -7.4457907430769410E-006
  -4.8499999999999988E-002    -4.4204469418218650E-007
  -4.7399999999999998E-002     8.6319105321308598E-006
  -4.6299999999999994E-002     6.3836969275143929E-006
  -4.5199999999999990E-002    -5.6463386499672197E-006
  -4.4099999999999986E-002    -1.0993890100507997E-005
  -4.2999999999999997E-002    -1.1292268027318642E-006
  -4.1899999999999993E-002     1.0811977517732885E-005
  -4.0799999999999989E-002     7.6704245657310821E-006
  -3.9699999999999985E-002    -6.3284269344876520E-006
  -3.8599999999999995E-002    -1.0660949556040578E-005
  -3.7499999999999992E-002     1.1898828233825043E-006
  -3.6399999999999988E-002     1.1241186257393565E-005
  -3.5299999999999984E-002     3.9892897802928928E-006
  -3.4199999999999994E-002    -9.3064554675947875E-006
  -3.3099999999999991E-002    -7.8642005973961204E-006
  -3.1999999999999987E-002     5.1632669055834413E-006
  -3.0899999999999997E-002     7.0391511144407559E-006
  -2.9799999999999993E-002    -6.2845238062436692E-006
  -2.8699999999999989E-002    -1.0071666110889055E-005
  -2.7599999999999986E-002     8.7870075731188990E-006
  -2.6499999999999996E-002     2.3191410946310498E-005
  -2.5399999999999992E-002     3.1949170988809783E-006
  -2.4299999999999988E-002    -3.0485734896501526E-005
  -2.3199999999999985E-002    -2.6604266167851165E-005
  -2.2099999999999995E-002     1.8641634596860968E-005
  -2.0999999999999991E-002     4.3034855480073020E-005
  -1.9899999999999987E-002     3.6610749702958856E-006
  -1.8799999999999983E-002    -5.0551905587781221E-005
  -1.7699999999999994E-002    -3.7670866731787100E-005
  -1.6599999999999990E-002     3.6678604374174029E-005
  -1.5499999999999986E-002     7.3789138696156442E-005
  -1.4399999999999996E-002     1.6065836462075822E-005
  -1.3299999999999992E-002    -6.5955762693192810E-005
  -1.2199999999999989E-002    -6.6377397160977125E-005
  -1.1099999999999985E-002     9.7188421932514757E-006
  -9.9999999999999950E-003     5.5798751418478787E-005
  -8.8999999999999913E-003     1.8058755813399330E-005
  -7.7999999999999875E-003    -3.5626610042527318E-005
  -6.6999999999999837E-003    -2.5173214453388937E-005
  -5.5999999999999939E-003     2.3185215468402021E-005
  -4.4999999999999901E-003     3.1986073736334220E-005
  -3.3999999999999864E-003     1.1102873713753070E-006
  -2.2999999999999826E-003    -5.4268016356218141E-006
  -1.1999999999999927E-003     1.5946750863804482E-005
  -9.9999999999988987E-005    -5.9869912547583226E-006
   1.0000000000000148E-003    -8.4177336248103529E-005
   2.1000000000000185E-003    -1.0789678344735876E-004
   3.2000000000000084E-003     8.9569257397670299E-006
   4.3000000000000121E-003     1.4574540546163917E-004
   5.4000000000000159E-003     1.2161076301708817E-004
   6.5000000000000058E-003    -5.5059095757314935E-005
   7.6000000000000234E-003    -1.4937696687411517E-004
   8.7000000000000133E-003    -3.3922715374501422E-005
   9.8000000000000032E-003     1.3422874326352030E-004
   1.0900000000000021E-002     1.1231887037865818E-004
   1.2000000000000011E-002    -1.0125459812115878E-004
   1.3100000000000001E-002    -2.3777302703820169E-004
   1.4200000000000018E-002    -1.2448072084225714E-004
   1.5300000000000008E-002     9.3830298283137381E-005
   1.6400000000000026E-002     1.8111693498212844E-004
   1.7500000000000016E-002     7.1436676080338657E-005
   1.8600000000000005E-002    -1.6974390746327117E-005
   1.9700000000000023E-002    -1.8785483916872181E-005
   2.0800000000000013E-002     4.6977565943961963E-006
   2.1900000000000003E-002    -1.9742905351449735E-005
   2.3000000000000020E-002    -5.9945989050902426E-005
   2.4100000000000010E-002    -7.8789118560962379E-005
   2.5200000000000000E-002    -3.0221633551263949E-006
   2.6300000000000018E-002    -2.4685657990630716E-005
   2.7400000000000008E-002    -1.1228583025513217E-004
   2.8500000000000025E-002     3.8098480104054033E-007
   2.9600000000000015E-002     2.4252430011983961E-004
   3.0700000000000005E-002     3.0685376259498298E-004
   3.1800000000000023E-002     3.3876096949825296E-006
   3.2900000000000013E-002    -2.7212302666157484E-004
   3.4000000000000002E-002    -1.5702641394454986E-004
   3.5100000000000020E-002     3.3387553412467241E-004
   3.6200000000000010E-002     3.5017688060179353E-004
   3.7300000000000028E-002    -2.9949870076961815E-004
   3.8400000000000017E-002    -6.1312835896387696E-004
   3.9500000000000007E-002     2.9114618882886134E-005
   4.0600000000000025E-002     6.6765939118340611E-004
   4.1700000000000015E-002     4.5760069042444229E-004
   4.2800000000000005E-002    -6.5359716245438904E-005
   4.3900000000000022E-002    -4.0988423279486597E-004
   4.5000000000000012E-002    -8.1667203630786389E-006
   4.6100000000000002E-002     3.4527367097325623E-004
   4.7200000000000020E-002     4.1398819303140044E-004
   4.8300000000000010E-002    -3.5931594902649522E-004
   4.9400000000000027E-002     4.8199954107985832E-006
   5.0500000000000017E-002     3.1441001920029521E-004
   5.1600000000000007E-002    -3.5493203904479742E-004
   5.2700000000000025E-002    -4.2366501293145120E-004
   5.3800000000000014E-002     2.0437597413547337E-004
   5.4900000000000004E-002     1.1119315167888999E-003
   5.6000000000000022E-002     5.6980317458510399E-004
   5.7100000000000012E-002    -7.4173591565340757E-004
   5.8200000000000002E-002    -1.9476853776723146E-003
   5.9300000000000019E-002    -2.6400265051051974E-004
   6.0400000000000009E-002     1.9581620581448078E-003
   6.1500000000000027E-002     1.7499201931059361E-003
   6.2600000000000017E-002    -1.3182887050788850E-004
   6.3700000000000007E-002    -2.8462074697017670E-003
   6.4800000000000024E-002    -2.4733166210353374E-003
   6.5900000000000014E-002     2.9797534807585180E-004
   6.7000000000000004E-002     2.8896492440253496E-003
   6.8100000000000022E-002     1.7312448471784592E-003
   6.9200000000000012E-002    -8.4474502364173532E-004
   7.0300000000000029E-002    -2.8799076098948717E-003
   7.1400000000000019E-002    -1.1728665558621287E-003
   7.2500000000000009E-002     9.6120318630710244E-004
   7.3600000000000027E-002     7.1467435918748379E-004
   7.4700000000000016E-002     6.5989105496555567E-004
   7.5800000000000006E-002     1.4437531353905797E-003
   7.6900000000000024E-002    -8.4471408626995981E-005
   7.8000000000000014E-002    -4.0100589394569397E-003
   7.9100000000000004E-002    -3.4218190703541040E-003
   8.0200000000000021E-002     1.7676146235316992E-003
   8.1300000000000011E-002     5.9901555068790913E-003
   8.2400000000000029E-002     3.7466217763721943E-003
   8.3500000000000019E-002    -4.6445378102362156E-003
   8.4600000000000009E-002    -7.3347091674804688E-003
   8.5700000000000026E-002    -1.6459465259686112E-003
   8.6800000000000016E-002     5.9698275290429592E-003
   8.7900000000000006E-002     6.5286424942314625E-003
   8.9000000000000024E-002    -4.7952137538231909E-004
   9.0100000000000013E-002    -5.4868110455572605E-003
   9.1200000000000003E-002    -3.7955192383378744E-003
   9.2300000000000021E-002     1.3079354539513588E-003
   9.3400000000000011E-002     3.1330187339335680E-003
   9.4500000000000028E-002     4.3326113373041153E-003
   9.5600000000000018E-002     2.3188989143818617E-003
   9.6700000000000008E-002    -1.4403077075257897E-003
   9.7800000000000026E-002    -6.3257729634642601E-003
   9.8900000000000016E-002    -5.3365780040621758E-003
  0.10000000000000001          2.5564492680132389E-003
  0.10110000000000002          9.3387020751833916E-003
  0.10220000000000001          6.8922629579901695E-003
  0.10330000000000003         -4.5073386281728745E-003
  0.10440000000000002         -1.0411284863948822E-002
  0.10550000000000001         -4.7259689308702946E-003
  0.10660000000000003          6.8330476060509682E-003
  0.10770000000000002          1.0143575258553028E-002
  0.10880000000000001          2.2796306293457747E-003
  0.10990000000000003         -6.4974450506269932E-003
  0.11100000000000002         -7.5091533362865448E-003
  0.11210000000000001         -1.4160757418721914E-003
  0.11320000000000002          2.2703672293573618E-003
  0.11430000000000001          5.2534490823745728E-003
  0.11540000000000003          4.0567335672676563E-003
  0.11650000000000002          1.1965304147452116E-003
  0.11760000000000001         -4.5133605599403381E-003
  0.11870000000000003         -8.3124125376343727E-003
  0.11980000000000002         -5.0875935703516006E-003
  0.12090000000000001          6.4625255763530731E-003
  0.12200000000000003          1.3428519479930401E-002
  0.12310000000000001          5.3756623528897762E-003
  0.12420000000000003         -1.2049941346049309E-002
  0.12530000000000002         -1.5769110992550850E-002
  0.12640000000000001         -9.4585190527141094E-004
  0.12750000000000003          1.3369268737733364E-002
  0.12860000000000002          1.0107899084687233E-002
  0.12970000000000001         -2.9057364445179701E-003
  0.13080000000000003         -9.2693734914064407E-003
  0.13190000000000002         -3.5882228985428810E-003
  0.13300000000000001          2.2557901684194803E-003
  0.13410000000000000          7.6558871660381556E-004
  0.13520000000000004         -4.2306634713895619E-004
  0.13630000000000003          4.6606375835835934E-003
  0.13740000000000002          7.8537845984101295E-003
  0.13850000000000001         -9.0483133681118488E-004
  0.13960000000000000         -1.3367081992328167E-002
  0.14070000000000005         -1.1378653347492218E-002
  0.14180000000000004          5.6831692345440388E-003
  0.14290000000000003          1.6897741705179214E-002
  0.14400000000000002          7.5371097773313522E-003
  0.14510000000000001         -9.8302066326141357E-003
  0.14620000000000000         -1.2601243332028389E-002
  0.14730000000000004          2.1633278811350465E-004
  0.14840000000000003          8.6301686242222786E-003
  0.14950000000000002          3.4505450166761875E-003
  0.15060000000000001         -3.2240680884569883E-003
  0.15170000000000000          1.0301658039679751E-004
  0.15280000000000005          4.7810068354010582E-003
  0.15390000000000004         -1.2976911384612322E-003
  0.15500000000000003         -1.1621952988207340E-002
  0.15610000000000002         -7.3050926439464092E-003
  0.15720000000000001          1.0689251124858856E-002
  0.15830000000000000          1.8612360581755638E-002
  0.15940000000000004          2.8816510457545519E-003
  0.16050000000000003         -1.7121994867920876E-002
  0.16160000000000002         -1.5749290585517883E-002
  0.16270000000000001          4.0937038138508797E-003
  0.16380000000000000          1.5885196626186371E-002
  0.16490000000000005          5.8868224732577801E-003
  0.16600000000000004         -7.2176135145127773E-003
  0.16710000000000003         -5.8012423105537891E-003
  0.16820000000000002          2.6459302753210068E-003
  0.16930000000000001          1.5047112246975303E-003
  0.17040000000000000         -6.3751735724508762E-003
  0.17150000000000004         -3.5622017458081245E-003
  0.17260000000000003          1.0357288643717766E-002
  0.17370000000000002          1.3213896192610264E-002
  0.17480000000000001         -4.2784484103322029E-003
  0.17590000000000000         -2.0326180383563042E-002
  0.17700000000000005         -1.0360486805438995E-002
  0.17810000000000004          1.4679316431283951E-002
  0.17920000000000003          2.1039033308625221E-002
  0.18030000000000002          2.4835066869854927E-004
  0.18140000000000001         -1.8569316715002060E-002
  0.18250000000000000         -1.1143961921334267E-002
  0.18360000000000004          8.4846485406160355E-003
  0.18470000000000003          1.1776846833527088E-002
  0.18580000000000002         -2.2673574276268482E-003
  0.18690000000000001         -8.7039498612284660E-003
  0.18800000000000000          1.7064569983631372E-003
  0.18910000000000005          9.1694397851824760E-003
  0.19020000000000004         -1.1021534446626902E-003
  0.19130000000000003         -1.3045480474829674E-002
  0.19240000000000002         -4.7989841550588608E-003
  0.19350000000000001          1.4207105152308941E-002
  0.19460000000000005          1.4761118218302727E-002
  0.19570000000000004         -7.0683918893337250E-003
  0.19680000000000003         -2.0407857373356819E-002
  0.19790000000000002         -5.1687103696167469E-003
  0.19900000000000001          1.6980461776256561E-002
  0.20010000000000000          1.4115772210061550E-002
  0.20120000000000005         -8.7819900363683701E-003
  0.20230000000000004         -1.7285123467445374E-002
  0.20340000000000003          2.7191618573851883E-004
  0.20450000000000002          1.6219524666666985E-002
  0.20560000000000000          6.8850009702146053E-003
  0.20670000000000005         -1.2109653092920780E-002
  0.20780000000000004         -1.0997778736054897E-002
  0.20890000000000003          7.4523817747831345E-003
