 -0.12000000000000000          0.0000000000000000     
 -0.11889999999999999         -1.3092453343688248E-007
 -0.11780000000000000         -1.7006007624331687E-007
 -0.11670000000000000          2.9008003821218153E-007
 -0.11559999999999999          5.9766472304545459E-007
 -0.11449999999999999         -1.1627181351059335E-007
 -0.11340000000000000         -9.2367724846553756E-007
 -0.11230000000000000         -2.8831544796048547E-007
 -0.11119999999999999          6.8152940002619289E-007
 -0.11009999999999999         -5.2990782251072233E-007
 -0.10900000000000000         -2.5312945126643172E-006
 -0.10790000000000000         -3.7964630905662489E-007
 -0.10679999999999999          5.9044550653197803E-006
 -0.10569999999999999          7.9164783528540283E-006
 -0.10460000000000000         -1.6729900664813613E-007
 -0.10349999999999999         -1.0337366802559700E-005
 -0.10239999999999999         -8.9909844973590225E-006
 -0.10130000000000000          3.3430540042900247E-006
 -0.10020000000000000          1.0261986062687356E-005
  -9.9099999999999994E-002     2.0199581740598660E-006
  -9.7999999999999990E-002    -9.3422195277526043E-006
  -9.6899999999999986E-002    -6.6302623054070864E-006
  -9.5799999999999996E-002     6.9500674726441503E-006
  -9.4699999999999993E-002     1.2007801160507370E-005
  -9.3599999999999989E-002     1.7419641835658695E-006
  -9.2499999999999999E-002    -8.3780450950143859E-006
  -9.1399999999999995E-002    -5.1648034968820866E-006
  -9.0299999999999991E-002     1.8974005797645077E-006
  -8.9200000000000002E-002    -3.1903894068818772E-006
  -8.8099999999999984E-002    -1.6126663467730395E-005
  -8.6999999999999994E-002    -1.8773833289742470E-005
  -8.5899999999999990E-002    -9.3598691819352098E-006
  -8.4799999999999986E-002    -6.6483326008892618E-006
  -8.3699999999999997E-002    -1.9140201402478851E-005
  -8.2599999999999993E-002    -2.9319329769350588E-005
  -8.1499999999999989E-002    -2.1924008251517080E-005
  -8.0399999999999999E-002    -1.2498649994086009E-005
  -7.9299999999999995E-002    -2.6347410312155262E-005
  -7.8199999999999992E-002    -5.6443645007675514E-005
  -7.7100000000000002E-002    -6.9162313593551517E-005
  -7.5999999999999984E-002    -5.6224871514132246E-005
  -7.4899999999999994E-002    -5.3799718443769962E-005
  -7.3799999999999991E-002    -9.2550122644752264E-005
  -7.2699999999999987E-002    -1.4944408030714840E-004
  -7.1599999999999997E-002    -1.7726207443047315E-004
  -7.0499999999999993E-002    -1.7329609545413405E-004
  -6.9399999999999989E-002    -1.8577212176751345E-004
  -6.8300000000000000E-002    -2.4646159727126360E-004
  -6.7199999999999996E-002    -3.2861062209121883E-004
  -6.6099999999999992E-002    -3.9111968362703919E-004
  -6.5000000000000002E-002    -4.3967456440441310E-004
  -6.3899999999999985E-002    -5.1308574620634317E-004
  -6.2799999999999995E-002    -6.2179163796827197E-004
  -6.1699999999999991E-002    -7.3833676287904382E-004
  -6.0599999999999994E-002    -8.5224927170202136E-004
  -5.9499999999999990E-002    -9.9491502624005079E-004
  -5.8399999999999994E-002    -1.1885893763974309E-003
  -5.7299999999999990E-002    -1.4025568962097168E-003
  -5.6199999999999986E-002    -1.5970331151038408E-003
  -5.5099999999999996E-002    -1.7946665175259113E-003
  -5.3999999999999992E-002    -2.0625866018235683E-003
  -5.2899999999999989E-002    -2.4190798867493868E-003
  -5.1799999999999985E-002    -2.8032329864799976E-003
  -5.0699999999999995E-002    -3.1615407206118107E-003
  -4.9599999999999991E-002    -3.5286231432110071E-003
  -4.8499999999999988E-002    -3.9809388108551502E-003
  -4.7399999999999998E-002    -4.5295218005776405E-003
  -4.6299999999999994E-002    -5.1100472919642925E-003
  -4.5199999999999990E-002    -5.6821806356310844E-003
  -4.4099999999999986E-002    -6.2864534556865692E-003
  -4.2999999999999997E-002    -6.9756628945469856E-003
  -4.1899999999999993E-002    -7.7314032241702080E-003
  -4.0799999999999989E-002    -8.4954034537076950E-003
  -3.9699999999999985E-002    -9.2618055641651154E-003
  -3.8599999999999995E-002    -1.0081453248858452E-002
  -3.7499999999999992E-002    -1.0970316827297211E-002
  -3.6399999999999988E-002    -1.1869030073285103E-002
  -3.5299999999999984E-002    -1.2722195126116276E-002
  -3.4199999999999994E-002    -1.3554545119404793E-002
  -3.3099999999999991E-002    -1.4419618062674999E-002
  -3.1999999999999987E-002    -1.5295584686100483E-002
  -3.0899999999999997E-002    -1.6092220321297646E-002
  -2.9799999999999993E-002    -1.6764845699071884E-002
  -2.8699999999999989E-002    -1.7359845340251923E-002
  -2.7599999999999986E-002    -1.7917044460773468E-002
  -2.6499999999999996E-002    -1.8375199288129807E-002
  -2.5399999999999992E-002    -1.8629167228937149E-002
  -2.4299999999999988E-002    -1.8655173480510712E-002
  -2.3199999999999985E-002    -1.8513564020395279E-002
  -2.2099999999999995E-002    -1.8224313855171204E-002
  -2.0999999999999991E-002    -1.7704095691442490E-002
  -1.9899999999999987E-002    -1.6858151182532310E-002
  -1.8799999999999983E-002    -1.5687268227338791E-002
  -1.7699999999999994E-002    -1.4251244254410267E-002
  -1.6599999999999990E-002    -1.2548929080367088E-002
  -1.5499999999999986E-002    -1.0502479970455170E-002
  -1.4399999999999996E-002    -8.0649117007851601E-003
  -1.3299999999999992E-002    -5.2807307802140713E-003
  -1.2199999999999989E-002    -2.2067434620112181E-003
  -1.1099999999999985E-002     1.1801226064562798E-003
  -9.9999999999999950E-003     4.9378615804016590E-003
  -8.8999999999999913E-003     9.0457638725638390E-003
  -7.7999999999999875E-003     1.3400535099208355E-002
  -6.6999999999999837E-003     1.7933305352926254E-002
  -5.5999999999999939E-003     2.2669497877359390E-002
  -4.4999999999999901E-003     2.7632487937808037E-002
  -3.3999999999999864E-003     3.2740950584411621E-002
  -2.2999999999999826E-003     3.7854589521884918E-002
  -1.1999999999999927E-003     4.2893778532743454E-002
  -9.9999999999988987E-005     4.7860205173492432E-002
   1.0000000000000148E-003     5.2729930728673935E-002
   2.1000000000000185E-003     5.7382084429264069E-002
   3.2000000000000084E-003     6.1673734337091446E-002
   4.3000000000000121E-003     6.5543919801712036E-002
   5.4000000000000159E-003     6.8988725543022156E-002
   6.5000000000000058E-003     7.1949549019336700E-002
   7.6000000000000234E-003     7.4288763105869293E-002
   8.7000000000000133E-003     7.5894199311733246E-002
   9.8000000000000032E-003     7.6753765344619751E-002
   1.0900000000000021E-002     7.6887100934982300E-002
   1.2000000000000011E-002     7.6244175434112549E-002
   1.3100000000000001E-002     7.4727796018123627E-002
   1.4200000000000018E-002     7.2299316525459290E-002
   1.5300000000000008E-002     6.9005906581878662E-002
   1.6400000000000026E-002     6.4897075295448303E-002
   1.7500000000000016E-002     5.9964280575513840E-002
   1.8600000000000005E-002     5.4197128862142563E-002
   1.9700000000000023E-002     4.7661047428846359E-002
   2.0800000000000013E-002     4.0472205728292465E-002
   2.1900000000000003E-002     3.2712049782276154E-002
   2.3000000000000020E-002     2.4413160979747772E-002
   2.4100000000000010E-002     1.5638986602425575E-002
   2.5200000000000000E-002     6.5357722342014313E-003
   2.6300000000000018E-002    -2.7259881608188152E-003
   2.7400000000000008E-002    -1.2036462314426899E-002
   2.8500000000000025E-002    -2.1333150565624237E-002
   2.9600000000000015E-002    -3.0519207939505577E-002
   3.0700000000000005E-002    -3.9438173174858093E-002
   3.1800000000000023E-002    -4.7935709357261658E-002
   3.2900000000000013E-002    -5.5913530290126801E-002
   3.4000000000000002E-002    -6.3299313187599182E-002
   3.5100000000000020E-002    -6.9997549057006836E-002
   3.6200000000000010E-002    -7.5898498296737671E-002
   3.7300000000000028E-002    -8.0927409231662750E-002
   3.8400000000000017E-002    -8.5056342184543610E-002
   3.9500000000000007E-002    -8.8259875774383545E-002
   4.0600000000000025E-002    -9.0485267341136932E-002
   4.1700000000000015E-002    -9.1687485575675964E-002
   4.2800000000000005E-002    -9.1873601078987122E-002
   4.3900000000000022E-002    -9.1096758842468262E-002
   4.5000000000000012E-002    -8.9410096406936646E-002
   4.6100000000000002E-002    -8.6844258010387421E-002
   4.7200000000000020E-002    -8.3433344960212708E-002
   4.8300000000000010E-002    -7.9238303005695343E-002
   4.9400000000000027E-002    -7.4347667396068573E-002
   5.0500000000000017E-002    -6.8862438201904297E-002
   5.1600000000000007E-002    -6.2882825732231140E-002
   5.2700000000000025E-002    -5.6502208113670349E-002
   5.3800000000000014E-002    -4.9811653792858124E-002
   5.4900000000000004E-002    -4.2905326932668686E-002
   5.6000000000000022E-002    -3.5882882773876190E-002
   5.7100000000000012E-002    -2.8842901811003685E-002
   5.8200000000000002E-002    -2.1873317658901215E-002
   5.9300000000000019E-002    -1.5057402662932873E-002
   6.0400000000000009E-002    -8.4811542183160782E-003
   6.1500000000000027E-002    -2.2270327899605036E-003
   6.2600000000000017E-002     3.6463590804487467E-003
   6.3700000000000007E-002     9.1105932369828224E-003
   6.4800000000000024E-002     1.4139506034553051E-002
   6.5900000000000014E-002     1.8682910129427910E-002
   6.7000000000000004E-002     2.2684436291456223E-002
   6.8100000000000022E-002     2.6125863194465637E-002
   6.9200000000000012E-002     2.9035262763500214E-002
   7.0300000000000029E-002     3.1441189348697662E-002
   7.1400000000000019E-002     3.3336941152811050E-002
   7.2500000000000009E-002     3.4708712249994278E-002
   7.3600000000000027E-002     3.5584986209869385E-002
   7.4700000000000016E-002     3.6028612405061722E-002
   7.5800000000000006E-002     3.6079537123441696E-002
   7.6900000000000024E-002     3.5738203674554825E-002
   7.8000000000000014E-002     3.5020969808101654E-002
   7.9100000000000004E-002     3.4002214670181274E-002
   8.0200000000000021E-002     3.2769721001386642E-002
   8.1300000000000011E-002     3.1350612640380859E-002
   8.2400000000000029E-002     2.9723465442657471E-002
   8.3500000000000019E-002     2.7907166630029678E-002
   8.4600000000000009E-002     2.5991918519139290E-002
   8.5700000000000026E-002     2.4062728509306908E-002
   8.6800000000000016E-002     2.2124517709016800E-002
   8.7900000000000006E-002     2.0142991095781326E-002
   8.9000000000000024E-002     1.8142180517315865E-002
   9.0100000000000013E-002     1.6205819323658943E-002
   9.1200000000000003E-002     1.4379382133483887E-002
   9.2300000000000021E-002     1.2624288909137249E-002
   9.3400000000000011E-002     1.0902450419962406E-002
   9.4500000000000028E-002     9.2623746022582054E-003
   9.5600000000000018E-002     7.7863787300884724E-003
   9.6700000000000008E-002     6.4744357950985432E-003
   9.7800000000000026E-002     5.2442969754338264E-003
   9.8900000000000016E-002     4.0564830414950848E-003
  0.10000000000000001          2.9776901938021183E-003
  0.10110000000000002          2.0812656730413437E-003
  0.10220000000000001          1.3337341370061040E-003
  0.10330000000000003          6.4116489375010133E-004
  0.10440000000000002         -1.4566518984793220E-005
  0.10550000000000001         -5.5835058446973562E-004
  0.10660000000000003         -9.5157657051458955E-004
  0.10770000000000002         -1.2659038184210658E-003
  0.10880000000000001         -1.5822905115783215E-003
  0.10990000000000003         -1.8698038766160607E-003
  0.11100000000000002         -2.0378250628709793E-003
  0.11210000000000001         -2.0877162460237741E-003
  0.11320000000000002         -2.1285850089043379E-003
  0.11430000000000001         -2.2250523325055838E-003
  0.11540000000000003         -2.3053050972521305E-003
  0.11650000000000002         -2.2738757543265820E-003
  0.11760000000000001         -2.1616434678435326E-003
  0.11870000000000003         -2.0851206500083208E-003
  0.11980000000000002         -2.0767219830304384E-003
  0.12090000000000001         -2.0448174327611923E-003
  0.12200000000000003         -1.9231009064242244E-003
  0.12310000000000001         -1.7765656812116504E-003
  0.12420000000000003         -1.7002286622300744E-003
  0.12530000000000002         -1.6702702268958092E-003
  0.12640000000000001         -1.5824595466256142E-003
  0.12750000000000003         -1.4200146542862058E-003
  0.12860000000000002         -1.2875663815066218E-003
  0.12970000000000001         -1.2532761320471764E-003
  0.13080000000000003         -1.2406520545482635E-003
  0.13190000000000002         -1.1414923937991261E-003
  0.13300000000000001         -9.8179478663951159E-004
  0.13410000000000000         -8.8515289826318622E-004
  0.13520000000000004         -8.8662520283833146E-004
  0.13630000000000003         -8.8034389773383737E-004
  0.13740000000000002         -7.8109477180987597E-004
  0.13850000000000001         -6.5272173378616571E-004
  0.13960000000000000         -6.0770363779738545E-004
  0.14070000000000005         -6.3412636518478394E-004
  0.14180000000000004         -6.1580457258969545E-004
  0.14290000000000003         -5.1259959582239389E-004
  0.14400000000000002         -4.2183737969025970E-004
  0.14510000000000001         -4.2665787623263896E-004
  0.14620000000000000         -4.6685987035743892E-004
  0.14730000000000004         -4.3188757263123989E-004
  0.14840000000000003         -3.3116672420874238E-004
  0.14950000000000002         -2.7855121879838407E-004
  0.15060000000000001         -3.1581765506416559E-004
  0.15170000000000000         -3.4845442860387266E-004
  0.15280000000000005         -2.9265283956192434E-004
  0.15390000000000004         -2.0538009994197637E-004
  0.15500000000000003         -1.9599446386564523E-004
  0.15610000000000002         -2.5618300423957407E-004
  0.15720000000000001         -2.7127450448460877E-004
  0.15830000000000000         -1.9602561951614916E-004
  0.15940000000000004         -1.2439319107215852E-004
  0.16050000000000003         -1.4632246166002005E-004
  0.16160000000000002         -2.1140331227798015E-004
  0.16270000000000001         -2.0690372912213206E-004
  0.16380000000000000         -1.2838958355132490E-004
  0.16490000000000005         -8.2774713519029319E-005
  0.16600000000000004         -1.2367466115392745E-004
  0.16710000000000003         -1.7311661213170737E-004
  0.16820000000000002         -1.4527187158819288E-004
  0.16930000000000001         -7.7378244895953685E-005
  0.17040000000000000         -6.7701963416766375E-005
  0.17150000000000004         -1.2146650988142937E-004
  0.17260000000000003         -1.4459103113040328E-004
  0.17370000000000002         -9.1762791271321476E-005
  0.17480000000000001         -3.7105135561432689E-005
  0.17590000000000000         -5.8888454077532515E-005
  0.17700000000000005         -1.1819497740361840E-004
  0.17810000000000004         -1.1860676750075072E-004
  0.17920000000000003         -5.3703242883784696E-005
  0.18030000000000002         -1.5867282854742371E-005
  0.18140000000000001         -5.5217304179677740E-005
  0.18250000000000000         -1.0568493598839268E-004
  0.18360000000000004         -8.8046057499013841E-005
  0.18470000000000003         -2.8848706278949976E-005
  0.18580000000000002         -1.5536666978732683E-005
  0.18690000000000001         -6.1935257690493017E-005
  0.18800000000000000         -9.0883884695358574E-005
  0.18910000000000005         -5.5360458645736799E-005
  0.19020000000000004         -8.7192711362149566E-006
  0.19130000000000003         -1.9390927263884805E-005
  0.19240000000000002         -6.6043714468833059E-005
  0.19350000000000001         -7.3593444540165365E-005
  0.19460000000000005         -2.9617223844979890E-005
  0.19570000000000004         -9.2006740715078195E-007
  0.19680000000000003         -2.8812000891775824E-005
  0.19790000000000002         -6.7025663156528026E-005
  0.19900000000000001         -5.5171683925436810E-005
  0.20010000000000000         -1.0941717846435495E-005
  0.20120000000000005         -2.5895155886246357E-007
  0.20230000000000004         -3.5609347833087668E-005
  0.20340000000000003         -5.9607013099594042E-005
  0.20450000000000002         -3.4898512240033597E-005
  0.20560000000000000          4.2447805981282727E-007
  0.20670000000000005         -6.0078532442275900E-006
  0.20780000000000004         -4.1137394873658195E-005
  0.20890000000000003         -4.9395937821827829E-005
