 -0.12000000000000000          0.0000000000000000     
 -0.11889999999999999          0.0000000000000000     
 -0.11780000000000000          0.0000000000000000     
 -0.11670000000000000          0.0000000000000000     
 -0.11559999999999999          0.0000000000000000     
 -0.11449999999999999          0.0000000000000000     
 -0.11340000000000000          0.0000000000000000     
 -0.11230000000000000         -3.4151038326868404E-017
 -0.11119999999999999          2.4329417341235914E-016
 -0.11009999999999999         -1.0446078158894492E-016
 -0.10900000000000000         -3.0223715274480065E-015
 -0.10790000000000000          3.5229967983955047E-015
 -0.10679999999999999          2.4421913127317847E-014
 -0.10569999999999999         -2.6433291116395065E-014
 -0.10460000000000000         -1.6206537522579778E-013
 -0.10349999999999999          9.2829369679418156E-014
 -0.10239999999999999          8.9577439433066730E-013
 -0.10130000000000000          9.8585005989856173E-014
 -0.10020000000000000         -3.9226846597351095E-012
  -9.9099999999999994E-002    -3.4294049804789450E-012
  -9.7999999999999990E-002     1.2393135996602300E-011
  -9.6899999999999986E-002     2.3469878818183076E-011
  -9.5799999999999996E-002    -2.0927192270758788E-011
  -9.4699999999999993E-002    -9.6601178445343550E-011
  -9.3599999999999989E-002    -3.1734215949486000E-011
  -9.2499999999999999E-002     2.5007765303008966E-010
  -9.1399999999999995E-002     3.5002667431172085E-010
  -9.0299999999999991E-002    -2.8608196367407857E-010
  -8.9200000000000002E-002    -1.1867135052412436E-009
  -8.8099999999999984E-002    -6.2299937431120611E-010
  -8.6999999999999994E-002     1.9796746464351145E-009
  -8.5899999999999990E-002     3.5388816321813010E-009
  -8.4799999999999986E-002     2.6877227873867149E-011
  -8.3699999999999997E-002    -6.5816938565887995E-009
  -8.2599999999999993E-002    -7.5276433975091095E-009
  -8.1499999999999989E-002     1.7829075993347487E-009
  -8.0399999999999999E-002     1.2635458901399943E-008
  -7.9299999999999995E-002     1.2774716395824726E-008
  -7.8199999999999992E-002     3.7843523870151330E-009
  -7.7100000000000002E-002    -4.8926227513845788E-009
  -7.5999999999999984E-002    -1.9903778181173948E-008
  -7.4899999999999994E-002    -5.3214620265862322E-008
  -7.3799999999999991E-002    -6.7730809405475156E-008
  -7.2699999999999987E-002     2.1742902589494406E-008
  -7.1599999999999997E-002     2.1614968659378064E-007
  -7.0499999999999993E-002     3.1211106943374034E-007
  -6.9399999999999989E-002     5.3511424624730353E-008
  -6.8300000000000000E-002    -4.9046451522372081E-007
  -6.7199999999999996E-002    -8.0592269569024211E-007
  -6.6099999999999992E-002    -4.1515707493999798E-007
  -6.5000000000000002E-002     4.9616113528827555E-007
  -6.3899999999999985E-002     1.1656812830551644E-006
  -6.2799999999999995E-002     1.0969104096147930E-006
  -6.1699999999999991E-002     5.6658711855561705E-007
  -6.0599999999999994E-002     2.1181852716267713E-008
  -5.9499999999999990E-002    -7.5069289096063585E-007
  -5.8399999999999994E-002    -2.1953994746581884E-006
  -5.7299999999999990E-002    -3.6640014968725154E-006
  -5.6199999999999986E-002    -3.3301826078968588E-006
  -5.5099999999999996E-002    -1.6055894036526297E-007
  -5.3999999999999992E-002     4.4456837713369168E-006
  -5.2899999999999989E-002     7.8714665505685844E-006
  -5.1799999999999985E-002     8.8946617324836552E-006
  -5.0699999999999995E-002     7.8139601100701839E-006
  -4.9599999999999991E-002     3.8586103983107023E-006
  -4.8499999999999988E-002    -5.3401818149723113E-006
  -4.7399999999999998E-002    -1.9508985133143142E-005
  -4.6299999999999994E-002    -3.1792307709110901E-005
  -4.5199999999999990E-002    -3.2112042390508577E-005
  -4.4099999999999986E-002    -1.5958656149450690E-005
  -4.2999999999999997E-002     1.1415728295105509E-005
  -4.1899999999999993E-002     4.0165225072996691E-005
  -4.0799999999999989E-002     6.2804014305584133E-005
  -3.9699999999999985E-002     7.4166600825265050E-005
  -3.8599999999999995E-002     6.7771092290058732E-005
  -3.7499999999999992E-002     3.8308244256768376E-005
  -3.6399999999999988E-002    -1.0742493032012135E-005
  -3.5299999999999984E-002    -6.6117070673499256E-005
  -3.4199999999999994E-002    -1.1320631165290251E-004
  -3.3099999999999991E-002    -1.4074672071728855E-004
  -3.1999999999999987E-002    -1.3439226313494146E-004
  -3.0899999999999997E-002    -7.5110583566129208E-005
  -2.9799999999999993E-002     4.0955248550744727E-005
  -2.8699999999999989E-002     1.7856694466900080E-004
  -2.7599999999999986E-002     2.7365030837245286E-004
  -2.6499999999999996E-002     2.8000134625472128E-004
  -2.5399999999999992E-002     2.0121342095080763E-004
  -2.4299999999999988E-002     6.6770393459592015E-005
  -2.3199999999999985E-002    -1.1541226558620110E-004
  -2.2099999999999995E-002    -3.6069451016373932E-004
  -2.0999999999999991E-002    -6.5618386724963784E-004
  -1.9899999999999987E-002    -9.2988763935863972E-004
  -1.8799999999999983E-002    -1.0946707334369421E-003
  -1.7699999999999994E-002    -1.1199616128578782E-003
  -1.6599999999999990E-002    -1.0451390407979488E-003
  -1.5499999999999986E-002    -9.3065318651497364E-004
  -1.4399999999999996E-002    -8.2300405483692884E-004
  -1.3299999999999992E-002    -7.7109661651775241E-004
  -1.2199999999999989E-002    -8.4043794777244329E-004
  -1.1099999999999985E-002    -1.0822208132594824E-003
  -9.9999999999999950E-003    -1.5042301965877414E-003
  -8.8999999999999913E-003    -2.1017298568040133E-003
  -7.7999999999999875E-003    -2.9055725317448378E-003
  -6.6999999999999837E-003    -3.9454172365367413E-003
  -5.5999999999999939E-003    -5.1638782024383545E-003
  -4.4999999999999901E-003    -6.4278850331902504E-003
  -3.3999999999999864E-003    -7.6787648722529411E-003
  -2.2999999999999826E-003    -9.0264361351728439E-003
  -1.1999999999999927E-003    -1.0634342208504677E-002
  -9.9999999999988987E-005    -1.2526663951575756E-002
   1.0000000000000148E-003    -1.4610922895371914E-002
   2.1000000000000185E-003    -1.6930323094129562E-002
   3.2000000000000084E-003    -1.9775774329900742E-002
   4.3000000000000121E-003    -2.3463634774088860E-002
   5.4000000000000159E-003    -2.8017124161124229E-002
   6.5000000000000058E-003    -3.3174745738506317E-002
   7.6000000000000234E-003    -3.8751877844333649E-002
   8.7000000000000133E-003    -4.4881992042064667E-002
   9.8000000000000032E-003    -5.1818612962961197E-002
   1.0900000000000021E-002    -5.9630200266838074E-002
   1.2000000000000011E-002    -6.8219892680644989E-002
   1.3100000000000001E-002    -7.7519565820693970E-002
   1.4200000000000018E-002    -8.7649069726467133E-002
   1.5300000000000008E-002    -9.8905049264431000E-002
   1.6400000000000026E-002   -0.11141233146190643     
   1.7500000000000016E-002   -0.12533275783061981     
   1.8600000000000005E-002   -0.14084516465663910     
   1.9700000000000023E-002   -0.15764927864074707     
   2.0800000000000013E-002   -0.17499716579914093     
   2.1900000000000003E-002   -0.19244834780693054     
   2.3000000000000020E-002   -0.21016441285610199     
   2.4100000000000010E-002   -0.22900547087192535     
   2.5200000000000000E-002   -0.24912899732589722     
   2.6300000000000018E-002   -0.26940792798995972     
   2.7400000000000008E-002   -0.28842806816101074     
   2.8500000000000025E-002   -0.30618295073509216     
   2.9600000000000015E-002   -0.32359030842781067     
   3.0700000000000005E-002   -0.34118446707725525     
   3.1800000000000023E-002   -0.35775718092918396     
   3.2900000000000013E-002   -0.37108311057090759     
   3.4000000000000002E-002   -0.38008353114128113     
   3.5100000000000020E-002   -0.38480570912361145     
   3.6200000000000010E-002   -0.38526198267936707     
   3.7300000000000028E-002   -0.38095933198928833     
   3.8400000000000017E-002   -0.37150439620018005     
   3.9500000000000007E-002   -0.35530656576156616     
   4.0600000000000025E-002   -0.33101147413253784     
   4.1700000000000015E-002   -0.29737111926078796     
   4.2800000000000005E-002   -0.25431933999061584     
   4.3900000000000022E-002   -0.20296894013881683     
   4.5000000000000012E-002   -0.14340540766716003     
   4.6100000000000002E-002    -7.4057534337043762E-002
   4.7200000000000020E-002     8.0546969547867775E-003
   4.8300000000000010E-002    0.10275501012802124     
   4.9400000000000027E-002    0.20888331532478333     
   5.0500000000000017E-002    0.32252049446105957     
   5.1600000000000007E-002    0.44385299086570740     
   5.2700000000000025E-002    0.57498210668563843     
   5.3800000000000014E-002    0.71685189008712769     
   5.4900000000000004E-002    0.86704570055007935     
   5.6000000000000022E-002     1.0210036039352417     
   5.7100000000000012E-002     1.1760417222976685     
   5.8200000000000002E-002     1.3306907415390015     
   5.9300000000000019E-002     1.4838984012603760     
   6.0400000000000009E-002     1.6340557336807251     
   6.1500000000000027E-002     1.7793663740158081     
   6.2600000000000017E-002     1.9143248796463013     
   6.3700000000000007E-002     2.0353031158447266     
   6.4800000000000024E-002     2.1381599903106689     
   6.5900000000000014E-002     2.2187247276306152     
   6.7000000000000004E-002     2.2786016464233398     
   6.8100000000000022E-002     2.3180060386657715     
   6.9200000000000012E-002     2.3315341472625732     
   7.0300000000000029E-002     2.3089303970336914     
   7.1400000000000019E-002     2.2478735446929932     
   7.2500000000000009E-002     2.1496229171752930     
   7.3600000000000027E-002     2.0232110023498535     
   7.4700000000000016E-002     1.8673224449157715     
   7.5800000000000006E-002     1.6749136447906494     
   7.6900000000000024E-002     1.4396697282791138     
   7.8000000000000014E-002     1.1655467748641968     
   7.9100000000000004E-002    0.86146116256713867     
   8.0200000000000021E-002    0.53496068716049194     
   8.1300000000000011E-002    0.18622310459613800     
   8.2400000000000029E-002   -0.18498446047306061     
   8.3500000000000019E-002   -0.57666856050491333     
   8.4600000000000009E-002   -0.98162841796875000     
   8.5700000000000026E-002    -1.3924994468688965     
   8.6800000000000016E-002    -1.8010597229003906     
   8.7900000000000006E-002    -2.1980316638946533     
   8.9000000000000024E-002    -2.5752470493316650     
   9.0100000000000013E-002    -2.9325094223022461     
   9.1200000000000003E-002    -3.2710037231445312     
   9.2300000000000021E-002    -3.5839805603027344     
   9.3400000000000011E-002    -3.8548159599304199     
   9.4500000000000028E-002    -4.0699224472045898     
   9.5600000000000018E-002    -4.2294340133666992     
   9.6700000000000008E-002    -4.3435273170471191     
   9.7800000000000026E-002    -4.4163079261779785     
   9.8900000000000016E-002    -4.4345493316650391     
  0.10000000000000001         -4.3848595619201660     
  0.10110000000000002         -4.2671570777893066     
  0.10220000000000001         -4.0938763618469238     
  0.10330000000000003         -3.8735606670379639     
  0.10440000000000002         -3.6058034896850586     
  0.10550000000000001         -3.2889590263366699     
  0.10660000000000003         -2.9288251399993896     
  0.10770000000000002         -2.5288815498352051     
  0.10880000000000001         -2.0956497192382812     
  0.10990000000000003         -1.6393738985061646     
  0.11100000000000002         -1.1645169258117676     
  0.11210000000000001        -0.68884825706481934     
  0.11320000000000002        -0.21699304878711700     
  0.11430000000000001         0.25250491499900818     
  0.11540000000000003         0.72551089525222778     
  0.11650000000000002          1.1805355548858643     
  0.11760000000000001          1.5949057340621948     
  0.11870000000000003          1.9663270711898804     
  0.11980000000000002          2.3070135116577148     
  0.12090000000000001          2.6230652332305908     
  0.12200000000000003          2.8979275226593018     
  0.12310000000000001          3.1127486228942871     
  0.12420000000000003          3.2706687450408936     
  0.12530000000000002          3.3859589099884033     
  0.12640000000000001          3.4641788005828857     
  0.12750000000000003          3.4899938106536865     
  0.12860000000000002          3.4625930786132812     
  0.12970000000000001          3.3942310810089111     
  0.13080000000000003          3.2942578792572021     
  0.13190000000000002          3.1572258472442627     
  0.13300000000000001          2.9772517681121826     
  0.13410000000000000          2.7643854618072510     
  0.13520000000000004          2.5405526161193848     
  0.13630000000000003          2.3107578754425049     
  0.13740000000000002          2.0622320175170898     
  0.13850000000000001          1.7865400314331055     
  0.13960000000000000          1.5031647682189941     
  0.14070000000000005          1.2371526956558228     
  0.14180000000000004         0.98838698863983154     
  0.14290000000000003         0.73794651031494141     
  0.14400000000000002         0.48115837574005127     
  0.14510000000000001         0.23802255094051361     
  0.14620000000000000          2.7162147685885429E-002
  0.14730000000000004        -0.15802344679832458     
  0.14840000000000003        -0.33553624153137207     
  0.14950000000000002        -0.50411587953567505     
  0.15060000000000001        -0.64554852247238159     
  0.15170000000000000        -0.75197440385818481     
  0.15280000000000005        -0.83864140510559082     
  0.15390000000000004        -0.92068004608154297     
  0.15500000000000003        -0.98902064561843872     
  0.15610000000000002         -1.0260118246078491     
  0.15720000000000001         -1.0344667434692383     
  0.15830000000000000         -1.0353202819824219     
  0.15940000000000004         -1.0375819206237793     
  0.16050000000000003         -1.0276986360549927     
  0.16160000000000002        -0.99141699075698853     
  0.16270000000000001        -0.94016760587692261     
  0.16380000000000000        -0.89475500583648682     
  0.16490000000000005        -0.85647344589233398     
  0.16600000000000004        -0.80502074956893921     
  0.16710000000000003        -0.73306870460510254     
  0.16820000000000002        -0.66009032726287842     
  0.16930000000000001        -0.60623395442962646     
  0.17040000000000000        -0.56217730045318604     
  0.17150000000000004        -0.50338864326477051     
  0.17260000000000003        -0.42848727107048035     
  0.17370000000000002        -0.36234202980995178     
  0.17480000000000001        -0.31950050592422485     
  0.17590000000000000        -0.28459888696670532     
  0.17700000000000005        -0.23766957223415375     
  0.17810000000000004        -0.18296615779399872     
  0.17920000000000003        -0.14121763408184052     
  0.18030000000000002        -0.11651698499917984     
  0.18140000000000001         -9.1171212494373322E-002
  0.18250000000000000         -5.5330835282802582E-002
  0.18360000000000004         -2.2718060761690140E-002
  0.18470000000000003         -9.7484420984983444E-003
  0.18580000000000002         -6.6238366998732090E-003
  0.18690000000000001          8.7942117825150490E-003
  0.18800000000000000          3.7206478416919708E-002
  0.18910000000000005          5.5030278861522675E-002
  0.19020000000000004          4.9483191221952438E-002
  0.19130000000000003          3.8040913641452789E-002
  0.19240000000000002          4.3680444359779358E-002
  0.19350000000000001          6.1936307698488235E-002
  0.19460000000000005          6.8946093320846558E-002
  0.19570000000000004          5.7606160640716553E-002
  0.19680000000000003          4.6307191252708435E-002
  0.19790000000000002          4.9556870013475418E-002
  0.19900000000000001          5.6373197585344315E-002
  0.20010000000000000          4.9300782382488251E-002
  0.20120000000000005          3.2988406717777252E-002
  0.20230000000000004          2.7601866051554680E-002
  0.20340000000000003          3.6418460309505463E-002
  0.20450000000000002          3.9953984320163727E-002
  0.20560000000000000          2.5390803813934326E-002
  0.20670000000000005          6.7703491076827049E-003
  0.20780000000000004          4.5395954512059689E-003
  0.20890000000000003          1.5079028904438019E-002
