 -0.12000000000000000          0.0000000000000000     
 -0.11889999999999999          0.0000000000000000     
 -0.11780000000000000          0.0000000000000000     
 -0.11670000000000000          0.0000000000000000     
 -0.11559999999999999          0.0000000000000000     
 -0.11449999999999999          0.0000000000000000     
 -0.11340000000000000          0.0000000000000000     
 -0.11230000000000000          0.0000000000000000     
 -0.11119999999999999          0.0000000000000000     
 -0.11009999999999999          0.0000000000000000     
 -0.10900000000000000          8.9070157697128113E-028
 -0.10790000000000000         -2.0270162293782887E-027
 -0.10679999999999999         -1.4855763855875963E-026
 -0.10569999999999999          3.1235668610397141E-026
 -0.10460000000000000          1.4590644345665900E-025
 -0.10349999999999999         -2.4132196793416359E-025
 -0.10239999999999999         -1.0752421643271404E-024
 -0.10130000000000000          1.1442814958150466E-024
 -0.10020000000000000          6.2736052809568968E-024
  -9.9099999999999994E-002    -3.0681890966641352E-024
  -9.7999999999999990E-002    -2.9395895046545943E-023
  -9.6899999999999986E-002    -1.9022869202411470E-026
  -9.5799999999999996E-002     1.1322054829158740E-022
  -9.4699999999999993E-002     4.6618921640837145E-023
  -9.3599999999999989E-002    -3.7613647791761752E-022
  -9.2499999999999999E-002    -3.0327587107266271E-022
  -9.1399999999999995E-002     1.1327342847796362E-021
  -9.0299999999999991E-002     1.4758509637144237E-021
  -8.9200000000000002E-002    -2.9997521141199068E-021
  -8.8099999999999984E-002    -6.3281194980349767E-021
  -8.6999999999999994E-002     5.5913342167975096E-021
  -8.5899999999999990E-002     2.2743416568263592E-020
  -8.4799999999999986E-002    -2.1902610699668489E-022
  -8.3699999999999997E-002    -6.2687449744979319E-020
  -8.2599999999999993E-002    -4.5904142524385919E-020
  -8.1499999999999989E-002     1.2108017774958332E-019
  -8.0399999999999999E-002     1.9439580622896653E-019
  -7.9299999999999995E-002    -1.3725837004035150E-019
  -7.8199999999999992E-002    -5.0191949551828178E-019
  -7.7100000000000002E-002    -1.1487929179679414E-021
  -7.5999999999999984E-002     1.0375840309208175E-018
  -7.4899999999999994E-002     4.8259898625209243E-019
  -7.3799999999999991E-002    -2.0785247607673751E-018
  -7.2699999999999987E-002    -2.1767754127700455E-018
  -7.1599999999999997E-002     3.6678391908392512E-018
  -7.0499999999999993E-002     7.7374540672659213E-018
  -6.9399999999999989E-002    -2.5632068979946058E-018
  -6.8300000000000000E-002    -1.9364084727268339E-017
  -6.7199999999999996E-002    -1.0981030253975193E-017
  -6.6099999999999992E-002     2.9396559675868761E-017
  -6.5000000000000002E-002     4.4981360409139499E-017
  -6.3899999999999985E-002    -1.6910329540746137E-017
  -6.2799999999999995E-002    -8.8182727401738388E-017
  -6.1699999999999991E-002    -2.9741788467601443E-017
  -6.0599999999999994E-002     1.2524266215793527E-016
  -5.9499999999999990E-002     1.1031170137677340E-016
  -5.8399999999999994E-002    -1.7424853417983107E-016
  -5.7299999999999990E-002    -3.0451051505984831E-016
  -5.6199999999999986E-002     1.6932575074395649E-016
  -5.5099999999999996E-002     7.5854997975998480E-016
  -5.3999999999999992E-002     2.9012726034075985E-016
  -5.2899999999999989E-002    -1.2040658048514605E-015
  -5.1799999999999985E-002    -1.6138798264908778E-015
  -5.0699999999999995E-002     6.1468026899853942E-016
  -4.9599999999999991E-002     3.1298678435093394E-015
  -4.8499999999999988E-002     1.6469029941263628E-015
  -4.7399999999999998E-002    -3.2455801674008021E-015
  -4.6299999999999994E-002    -4.5194992971046670E-015
  -4.5199999999999990E-002     1.6773217472072777E-015
  -4.4099999999999986E-002     7.1989931580535536E-015
  -4.2999999999999997E-002     1.0315488045391642E-015
  -4.1899999999999993E-002    -1.1110707351987686E-014
  -4.0799999999999989E-002    -8.2799088427037114E-015
  -3.9699999999999985E-002     1.4091544195350605E-014
  -3.8599999999999995E-002     2.5391084837434429E-014
  -3.7499999999999992E-002    -3.5327054900369335E-015
  -3.6399999999999988E-002    -4.5410696687328556E-014
  -3.5299999999999984E-002    -3.3795994567329193E-014
  -3.4199999999999994E-002     4.0724398815217625E-014
  -3.3099999999999991E-002     8.5845860856113149E-014
  -3.1999999999999987E-002     1.6196643838942669E-014
  -3.0899999999999997E-002    -1.0267895339316144E-013
  -2.9799999999999993E-002    -1.0366196562163615E-013
  -2.8699999999999989E-002     4.6601821522811865E-014
  -2.7599999999999986E-002     1.5057532586244815E-013
  -2.6499999999999996E-002     3.2273005611243438E-014
  -2.5399999999999992E-002    -1.6209130121024734E-013
  -2.4299999999999988E-002    -1.0544349952641002E-013
  -2.3199999999999985E-002     2.0885337459041614E-013
  -2.2099999999999995E-002     3.2543138648276349E-013
  -2.0999999999999991E-002    -8.2490417762596385E-014
  -1.9899999999999987E-002    -6.0883036893250031E-013
  -1.8799999999999983E-002    -4.8657665353488144E-013
  -1.7699999999999994E-002     3.3633271406645349E-013
  -1.6599999999999990E-002     9.0506996428679765E-013
  -1.5499999999999986E-002     4.2733573841005623E-013
  -1.4399999999999996E-002    -5.2978590481603249E-013
  -1.3299999999999992E-002    -6.4908468140265074E-013
  -1.2199999999999989E-002     2.6498345618436447E-013
  -1.1099999999999985E-002     7.7850551526148504E-013
  -9.9999999999999950E-003    -2.3362735357412845E-013
  -8.8999999999999913E-003    -1.6864306175493060E-012
  -7.7999999999999875E-003    -1.3721711484074306E-012
  -6.6999999999999837E-003     9.8108966697235678E-013
  -5.5999999999999939E-003     2.8647741730919440E-012
  -4.4999999999999901E-003     1.9656897637387871E-012
  -3.3999999999999864E-003    -7.8119216824490412E-013
  -2.2999999999999826E-003    -2.3184494688660573E-012
  -1.1999999999999927E-003    -1.4118953402253442E-012
  -9.9999999999988987E-005     1.8762470113534765E-015
   1.0000000000000148E-003    -7.8097088258149983E-014
   2.1000000000000185E-003    -7.2151339807272064E-013
   3.2000000000000084E-003     3.6200000787765807E-013
   4.3000000000000121E-003     2.9602949865731309E-012
   5.4000000000000159E-003     3.9709732897741379E-012
   6.5000000000000058E-003     1.2309174946684154E-012
   7.6000000000000234E-003    -3.7588573746638598E-012
   8.7000000000000133E-003    -7.6202542539927087E-012
   9.8000000000000032E-003    -8.1407458898952179E-012
   1.0900000000000021E-002    -4.4645463541381769E-012
   1.2000000000000011E-002     3.8538235103136032E-012
   1.3100000000000001E-002     1.5028398664407305E-011
   1.4200000000000018E-002     2.2652968043046506E-011
   1.5300000000000008E-002     1.9042233068145009E-011
   1.6400000000000026E-002     3.0296219092479371E-012
   1.7500000000000016E-002    -1.7526370979514816E-011
   1.8600000000000005E-002    -3.3156928591626667E-011
   1.9700000000000023E-002    -4.0394191463954954E-011
   2.0800000000000013E-002    -3.8761667486841844E-011
   2.1900000000000003E-002    -2.2850389982953523E-011
   2.3000000000000020E-002     1.4229258396558642E-011
   2.4100000000000010E-002     6.4681454636783542E-011
   2.5200000000000000E-002     9.9654867691256754E-011
   2.6300000000000018E-002     8.8704564527031238E-011
   2.7400000000000008E-002     2.9084306144011585E-011
   2.8500000000000025E-002    -4.8413741765562790E-011
   2.9600000000000015E-002    -1.0435058372948447E-010
   3.0700000000000005E-002    -1.1705553193408491E-010
   3.1800000000000023E-002    -8.4757076357355743E-011
   3.2900000000000013E-002    -1.3200828451187530E-011
   3.4000000000000002E-002     8.2496801057097002E-011
   3.5100000000000020E-002     1.6293820459534203E-010
   3.6200000000000010E-002     1.6995349572113128E-010
   3.7300000000000028E-002     6.1942027895778295E-011
   3.8400000000000017E-002    -1.4691084460061177E-010
   3.9500000000000007E-002    -3.7727262980347120E-010
   4.0600000000000025E-002    -5.2395809913008407E-010
   4.1700000000000015E-002    -5.0281229180271225E-010
   4.2800000000000005E-002    -2.8944774355110781E-010
   4.3900000000000022E-002     8.0440258620750882E-011
   4.5000000000000012E-002     4.8540582664458043E-010
   4.6100000000000002E-002     7.5357975415357714E-010
   4.7200000000000020E-002     7.1234040888157324E-010
   4.8300000000000010E-002     2.8873547996965954E-010
   4.9400000000000027E-002    -4.1173087161894273E-010
   5.0500000000000017E-002    -1.2014232941837122E-009
   5.1600000000000007E-002    -1.7845138700067764E-009
   5.2700000000000025E-002    -1.8660626377453582E-009
   5.3800000000000014E-002    -1.3420776712180782E-009
   5.4900000000000004E-002    -3.8534853086247267E-010
   5.6000000000000022E-002     6.4712846192804818E-010
   5.7100000000000012E-002     1.2770697832564792E-009
   5.8200000000000002E-002     1.0899502411731987E-009
   5.9300000000000019E-002    -1.9059627140438629E-011
   6.0400000000000009E-002    -1.9283890040355800E-009
   6.1500000000000027E-002    -4.1281382756608309E-009
   6.2600000000000017E-002    -5.7774380834985095E-009
   6.3700000000000007E-002    -6.1613856239262077E-009
   6.4800000000000024E-002    -5.3213469186630391E-009
   6.5900000000000014E-002    -3.1058144944751120E-009
   6.7000000000000004E-002     7.1412473157117518E-011
   6.8100000000000022E-002     1.8133491375138533E-009
   6.9200000000000012E-002     7.9383355444662129E-010
   7.0300000000000029E-002    -1.9196302325497072E-009
   7.1400000000000019E-002    -5.9285700793054730E-009
   7.2500000000000009E-002    -1.1269372990341253E-008
   7.3600000000000027E-002    -1.6392892376870805E-008
   7.4700000000000016E-002    -1.9497841563520524E-008
   7.5800000000000006E-002    -1.8925286227045035E-008
   7.6900000000000024E-002    -1.3097745110712822E-008
   7.8000000000000014E-002    -6.8223369176223514E-009
   7.9100000000000004E-002    -2.3368136314871890E-009
   8.0200000000000021E-002     9.1886842579214090E-010
   8.1300000000000011E-002    -8.2292739289613337E-010
   8.2400000000000029E-002    -1.1364384988610254E-008
   8.3500000000000019E-002    -2.6422849686014160E-008
   8.4600000000000009E-002    -3.5549295063219688E-008
   8.5700000000000026E-002    -3.9062822310143019E-008
   8.6800000000000016E-002    -4.3629864165950494E-008
   8.7900000000000006E-002    -4.0465263140276875E-008
   8.9000000000000024E-002    -2.2879540040321444E-008
   9.0100000000000013E-002    -4.8728003854137114E-009
   9.1200000000000003E-002    -3.2482330158956074E-009
   9.2300000000000021E-002    -7.3004078338101408E-009
   9.3400000000000011E-002    -1.3702723400399464E-008
   9.4500000000000028E-002    -1.9392240702131858E-008
   9.5600000000000018E-002    -2.1766059177252828E-008
   9.6700000000000008E-002    -4.1886803359147962E-008
   9.7800000000000026E-002    -7.8618583643219608E-008
   9.8900000000000016E-002    -6.3335072297832085E-008
  0.10000000000000001         -3.5223157723862641E-009
  0.10110000000000002          5.6572147855149524E-008
  0.10220000000000001          1.0064318445301978E-007
  0.10330000000000003          8.8567652767324034E-008
  0.10440000000000002         -1.6829067917001339E-008
  0.10550000000000001         -1.5822070764670570E-008
  0.10660000000000003          1.2330541210303636E-007
  0.10770000000000002          1.4763838862563716E-007
  0.10880000000000001          1.0567128327920727E-007
  0.10990000000000003          9.2992159750338033E-008
  0.11100000000000002         -3.8315473460670546E-008
  0.11210000000000001         -3.8192641937939698E-008
  0.11320000000000002          1.6534416147351294E-007
  0.11430000000000001          3.9384678984788479E-007
  0.11540000000000003          3.6181802443024935E-007
  0.11650000000000002          2.7094759502688248E-007
  0.11760000000000001          3.0608467227466463E-007
  0.11870000000000003          4.5239058721335823E-008
  0.11980000000000002         -2.0001205314201798E-007
  0.12090000000000001         -9.2725649381009134E-009
  0.12200000000000003          2.4281985133711714E-007
  0.12310000000000001          3.4235696944051597E-007
  0.12420000000000003          4.1560659269634925E-007
  0.12530000000000002          7.6401654780511308E-008
  0.12640000000000001          2.1338884825805593E-010
  0.12750000000000003          2.0243066956027178E-007
  0.12860000000000002          1.4515474333620659E-007
  0.12970000000000001          1.2787084813226102E-007
  0.13080000000000003          2.2103719743427064E-007
  0.13190000000000002          3.5495557426656887E-007
  0.13300000000000001          4.4221232542440703E-007
  0.13410000000000000          3.7809169839420065E-007
  0.13520000000000004         -6.6868913961570797E-008
  0.13630000000000003         -3.7937539332233428E-007
  0.13740000000000002         -3.7791724594171683E-007
  0.13850000000000001         -4.4760401607391032E-008
  0.13960000000000000          3.8275931046882761E-007
  0.14070000000000005          3.8324651541188359E-007
  0.14180000000000004         -1.2139399530042283E-007
  0.14290000000000003         -5.8672577551988070E-007
  0.14400000000000002         -4.2077948592122993E-007
  0.14510000000000001         -1.4181765095599985E-007
  0.14620000000000000         -2.1261341487388563E-007
  0.14730000000000004         -3.3093147067120299E-007
  0.14840000000000003         -5.7237792816522415E-007
  0.14950000000000002         -8.3696346564465784E-007
  0.15060000000000001         -4.6964964894868899E-007
  0.15170000000000000          2.2397863119749672E-007
  0.15280000000000005          5.2720366738867597E-007
  0.15390000000000004          6.8897698213277181E-008
  0.15500000000000003         -6.1205690826682257E-007
  0.15610000000000002         -9.0792735818467918E-007
  0.15720000000000001         -6.0404198620744864E-007
  0.15830000000000000          1.5984188905804331E-007
  0.15940000000000004          5.4907872026888072E-007
  0.16050000000000003          5.3903463026472309E-008
  0.16160000000000002         -5.5393712727891398E-007
  0.16270000000000001         -6.0721805539287743E-007
  0.16380000000000000         -1.3942111820597347E-007
  0.16490000000000005          6.8075360104558058E-007
  0.16600000000000004          7.7220340699568624E-007
  0.16710000000000003          5.5181047287078400E-008
  0.16820000000000002         -6.2903416164772352E-007
  0.16930000000000001         -6.8008824882781482E-007
  0.17040000000000000          5.3911890063318424E-007
  0.17150000000000004          1.9147664716001600E-006
  0.17260000000000003          1.7089414541260339E-006
  0.17370000000000002          1.2876606092504517E-007
  0.17480000000000001         -1.7857337297755294E-006
  0.17590000000000000         -1.9558158328436548E-006
  0.17700000000000005          7.7233103468188347E-008
  0.17810000000000004          1.7440040664951084E-006
  0.17920000000000003          1.5340638128691353E-006
  0.18030000000000002          1.4851391938464076E-007
  0.18140000000000001         -1.1050506145693362E-006
  0.18250000000000000         -7.3796957167360233E-007
  0.18360000000000004          5.3097954832992400E-007
  0.18470000000000003          1.3612313978228485E-006
  0.18580000000000002          1.5353501794379554E-006
  0.18690000000000001          1.6207421538183553E-007
  0.18800000000000000         -1.2822373491871986E-006
  0.18910000000000005         -1.1461315807537176E-006
  0.19020000000000004         -2.8503650995048702E-008
  0.19130000000000003          6.7650336177393910E-007
  0.19240000000000002          5.0216817726322915E-007
  0.19350000000000001         -2.4301773038359897E-008
  0.19460000000000005         -4.8168840294238180E-007
  0.19570000000000004         -4.4948745880901697E-007
  0.19680000000000003          2.3702970253225430E-008
  0.19790000000000002          4.9261035428571631E-007
  0.19900000000000001          4.7998724994613440E-007
  0.20010000000000000         -1.5534558883700811E-007
  0.20120000000000005         -8.4905389030609513E-007
  0.20230000000000004         -8.7322598574246513E-007
  0.20340000000000003         -1.9005925366855081E-007
  0.20450000000000002          5.5008541721690563E-007
  0.20560000000000000          6.4471652194697526E-007
  0.20670000000000005         -1.2991380060611846E-007
  0.20780000000000004         -1.0812594837261713E-006
  0.20890000000000003         -1.1588015240704408E-006
