 -0.12000000000000000          0.0000000000000000
 -0.11889999999999999          0.0000000000000000
 -0.11780000000000000          0.0000000000000000
 -0.11670000000000000          0.0000000000000000
 -0.11559999999999999          0.0000000000000000
 -0.11449999999999999          0.0000000000000000
 -0.11340000000000000          0.0000000000000000
 -0.11230000000000000          4.5173367227286533E-021
 -0.11119999999999999         -2.1335585054060316E-021
 -0.11009999999999999         -5.0255070541149363E-020
 -0.10900000000000000          6.3249792005434729E-021
 -0.10790000000000000          3.2296858596705518E-019
 -0.10679999999999999          1.0674466598259625E-019
 -0.10569999999999999         -1.4623058100980340E-018
 -0.10460000000000000         -1.2596277416636066E-018
 -0.10349999999999999          4.7662502582968852E-018
 -0.10239999999999999          7.2483777398296558E-018
 -0.10130000000000000         -1.0592429074003906E-017
 -0.10020000000000000         -2.7792593602401887E-017
  -9.9099999999999994E-002     1.2570456973815223E-017
  -9.7999999999999990E-002     7.9820507126533615E-017
  -9.6899999999999986E-002     1.2145739433938646E-017
  -9.5799999999999996E-002    -1.8955684152154983E-016
  -9.4699999999999993E-002    -1.2844003948025284E-016
  -9.3599999999999989E-002     3.9215216707930351E-016
  -9.2499999999999999E-002     5.3949000130372243E-016
  -9.1399999999999995E-002    -6.0574216558087523E-016
  -9.0299999999999991E-002    -1.6980247147458305E-015
  -8.9200000000000002E-002     1.2997000597612073E-016
  -8.8099999999999984E-002     3.8443729570450478E-015
  -8.6999999999999994E-002     2.7951515512152515E-015
  -8.5899999999999990E-002    -5.4412913722836319E-015
  -8.4799999999999986E-002    -9.5917494256979145E-015
  -8.3699999999999997E-002     2.5228006007616032E-015
  -8.2599999999999993E-002     1.8417230495662226E-014
  -8.1499999999999989E-002     8.2132456556889034E-015
  -8.0399999999999999E-002    -2.5318201040454985E-014
  -7.9299999999999995E-002    -2.8646833847125255E-014
  -7.8199999999999992E-002     2.6885518618802347E-014
  -7.7100000000000002E-002     6.7104518285381748E-014
  -7.5999999999999984E-002    -4.8576949889878387E-015
  -7.4899999999999994E-002    -1.2584735770843070E-013
  -7.3799999999999991E-002    -8.8558927714959407E-014
  -7.2699999999999987E-002     1.4607440962117330E-013
  -7.1599999999999997E-002     2.6607234753124598E-013
  -7.0499999999999993E-002    -1.4645877284384656E-014
  -6.9399999999999989E-002    -4.1285169185244219E-013
  -6.8300000000000000E-002    -2.8991403461936516E-013
  -6.7199999999999996E-002     3.7689518389907861E-013
  -6.6099999999999992E-002     6.6022968342460686E-013
  -6.5000000000000002E-002    -1.0487731559941094E-013
  -6.3899999999999985E-002    -1.0222499929879447E-012
  -6.2799999999999995E-002    -5.2546931649660733E-013
  -6.1699999999999991E-002     1.1612631429375186E-012
  -6.0599999999999994E-002     1.6429054297550927E-012
  -5.9499999999999990E-002    -4.3080518536200985E-013
  -5.8399999999999994E-002    -2.6582687873838440E-012
  -5.7299999999999990E-002    -1.4798661428228055E-012
  -5.6199999999999986E-002     2.3741826647022402E-012
  -5.5099999999999996E-002     3.6570000500057986E-012
  -5.3999999999999992E-002    -3.4670332468671183E-013
  -5.2899999999999989E-002    -4.7691954552231408E-012
  -5.1799999999999985E-002    -2.8353901258132419E-012
  -5.0699999999999995E-002     3.9463007514561887E-012
  -4.9599999999999991E-002     6.1618184513112517E-012
  -4.8499999999999988E-002    -6.3211534531010249E-013
  -4.7399999999999998E-002    -7.9609227196519861E-012
  -4.6299999999999994E-002    -4.8449655745685938E-012
  -4.5199999999999990E-002     5.9953301004278536E-012
  -4.4099999999999986E-002     1.0003449457673952E-011
  -4.2999999999999997E-002     7.0892884661624689E-013
  -4.1899999999999993E-002    -9.9522022567466450E-012
  -4.0799999999999989E-002    -7.5308596164669339E-012
  -3.9699999999999985E-002     4.1720238375120289E-012
  -3.8599999999999995E-002     8.2175898030723005E-012
  -3.7499999999999992E-002    -6.3644971454515642E-013
  -3.6399999999999988E-002    -8.0506434851912445E-012
  -3.5299999999999984E-002    -1.8630988678908222E-012
  -3.4199999999999994E-002     9.1507704191862160E-012
  -3.3099999999999991E-002     8.9028975164273660E-012
  -3.1999999999999987E-002    -8.5994362672425773E-013
  -3.0899999999999997E-002    -4.3742882580022346E-012
  -2.9799999999999993E-002     6.2943611911156494E-013
  -2.8699999999999989E-002    -1.9726872045600086E-012
  -2.7599999999999986E-002    -1.6758964008212196E-011
  -2.6499999999999996E-002    -2.0910788725569951E-011
  -2.5399999999999992E-002     2.9894871300673032E-012
  -2.4299999999999988E-002     3.0755904767421072E-011
  -2.3199999999999985E-002     2.1634041780238533E-011
  -2.2099999999999995E-002    -1.9669203765726451E-011
  -2.0999999999999991E-002    -3.8401063578996641E-011
  -1.9899999999999987E-002    -5.0469962410704117E-012
  -1.8799999999999983E-002     3.2670970095960428E-011
  -1.7699999999999994E-002     9.1561766848990978E-012
  -1.6599999999999990E-002    -5.9844892930094318E-011
  -1.5499999999999986E-002    -8.4310343428928292E-011
  -1.4399999999999996E-002    -1.9536568543476740E-011
  -1.3299999999999992E-002     6.4550247091954560E-011
  -1.2199999999999989E-002     6.8626937466120808E-011
  -1.1099999999999985E-002    -7.4524483806293063E-012
  -9.9999999999999950E-003    -7.1625150255272274E-011
  -8.8999999999999913E-003    -6.8140590392395950E-011
  -7.7999999999999875E-003    -4.2949067913244932E-011
  -6.6999999999999837E-003    -6.1238306092725736E-011
  -5.5999999999999939E-003    -1.1009614747647944E-010
  -4.4999999999999901E-003    -1.3047242453101404E-010
  -3.3999999999999864E-003    -1.1084830275898128E-010
  -2.2999999999999826E-003    -9.0734697533179087E-011
  -1.1999999999999927E-003    -8.0451895145827734E-011
  -9.9999999999988987E-005    -4.9836131749136925E-011
   1.0000000000000148E-003    -2.2382342507176745E-011
   2.1000000000000185E-003    -9.5327926108446093E-011
   3.2000000000000084E-003    -3.0032090703180359E-010
   4.3000000000000121E-003    -5.0127069162186899E-010
   5.4000000000000159E-003    -5.2488358104341160E-010
   6.5000000000000058E-003    -3.9108113969454905E-010
   7.6000000000000234E-003    -3.2595637300403268E-010
   8.7000000000000133E-003    -4.5204442966628733E-010
   9.8000000000000032E-003    -6.1668548045901161E-010
   1.0900000000000021E-002    -6.0969546078482040E-010
   1.2000000000000011E-002    -4.6376241735757162E-010
   1.3100000000000001E-002    -4.5904596790435903E-010
   1.4200000000000018E-002    -7.4856831844272165E-010
   1.5300000000000008E-002    -1.1768208629803212E-009
   1.6400000000000026E-002    -1.4671850401271058E-009
   1.7500000000000016E-002    -1.5340090309123866E-009
   1.8600000000000005E-002    -1.5516660178960251E-009
   1.9700000000000023E-002    -1.5844038303569619E-009
   2.0800000000000013E-002    -1.6088080867504573E-009
   2.1900000000000003E-002    -1.6189725116078080E-009
   2.3000000000000020E-002    -1.7011664299459994E-009
   2.4100000000000010E-002    -1.8915848887246511E-009
   2.5200000000000000E-002    -2.1136579153591128E-009
   2.6300000000000018E-002    -2.2978421387875869E-009
   2.7400000000000008E-002    -2.5301938322286333E-009
   2.8500000000000025E-002    -2.9464886086572051E-009
   2.9600000000000015E-002    -3.3165752366670631E-009
   3.0700000000000005E-002    -3.5034486423057842E-009
   3.1800000000000023E-002    -3.3254881071087539E-009
   3.2900000000000013E-002    -3.0076128254563628E-009
   3.4000000000000002E-002    -2.9328519612903392E-009
   3.5100000000000020E-002    -3.0128404215901128E-009
   3.6200000000000010E-002    -2.8858759826277947E-009
   3.7300000000000028E-002    -2.6333826230739987E-009
   3.8400000000000017E-002    -2.5437070227951608E-009
   3.9500000000000007E-002    -2.5761381916566961E-009
   4.0600000000000025E-002    -2.8464364199010106E-009
   4.1700000000000015E-002    -2.8788149641911787E-009
   4.2800000000000005E-002    -2.4686805932816469E-009
   4.3900000000000022E-002    -1.6741166231071247E-009
   4.5000000000000012E-002    -9.4956875695828558E-010
   4.6100000000000002E-002    -5.1894682995268226E-010
   4.7200000000000020E-002     3.3298866441988650E-010
   4.8300000000000010E-002     1.3782448515797796E-009
   4.9400000000000027E-002     1.7875866342720315E-009
   5.0500000000000017E-002     2.2552240075413010E-009
   5.1600000000000007E-002     3.0396587469283531E-009
   5.2700000000000025E-002     4.2469223693331060E-009
   5.3800000000000014E-002     5.1813642265585713E-009
   5.4900000000000004E-002     6.5844716345964116E-009
   5.6000000000000022E-002     7.2298291797778802E-009
   5.7100000000000012E-002     8.1185849154508105E-009
   5.8200000000000002E-002     9.7576258184517428E-009
   5.9300000000000019E-002     1.1358956442109047E-008
   6.0400000000000009E-002     1.0973641551004221E-008
   6.1500000000000027E-002     1.0448402143481417E-008
   6.2600000000000017E-002     1.1774580421786141E-008
   6.3700000000000007E-002     1.4138525017415304E-008
   6.4800000000000024E-002     1.5515533746679466E-008
   6.5900000000000014E-002     1.4543435788993975E-008
   6.7000000000000004E-002     1.3278018684559356E-008
   6.8100000000000022E-002     1.2845049468523939E-008
   6.9200000000000012E-002     1.4016976912500922E-008
   7.0300000000000029E-002     1.4976277995515375E-008
   7.1400000000000019E-002     1.4924342650601830E-008
   7.2500000000000009E-002     1.3855484759517367E-008
   7.3600000000000027E-002     1.1372280006582969E-008
   7.4700000000000016E-002     1.0066323774537977E-008
   7.5800000000000006E-002     8.6626670281475526E-009
   7.6900000000000024E-002     8.6710976177073462E-009
   7.8000000000000014E-002     8.8819067656231709E-009
   7.9100000000000004E-002     6.3216134549293201E-009
   8.0200000000000021E-002     6.2813065859756989E-010
   8.1300000000000011E-002    -3.7168668143294781E-009
   8.2400000000000029E-002    -2.9457527528364835E-009
   8.3500000000000019E-002    -2.8408511654198776E-010
   8.4600000000000009E-002    -9.8181263119556661E-010
   8.5700000000000026E-002    -6.7493131084006563E-009
   8.6800000000000016E-002    -1.3560518041799696E-008
   8.7900000000000006E-002    -1.6621578780018353E-008
   8.9000000000000024E-002    -1.5769543892929505E-008
   9.0100000000000013E-002    -1.3852446301143573E-008
   9.1200000000000003E-002    -1.3184930480747425E-008
   9.2300000000000021E-002    -1.4855145558101412E-008
   9.3400000000000011E-002    -1.9432095044180642E-008
   9.4500000000000028E-002    -2.4535507847645022E-008
   9.5600000000000018E-002    -2.5414751192442964E-008
   9.6700000000000008E-002    -2.0892587215826097E-008
   9.7800000000000026E-002    -1.3942278442868883E-008
   9.8900000000000016E-002    -1.4311470231120893E-008
  0.10000000000000001         -2.3314175479072219E-008
  0.10110000000000002         -3.1371016007142316E-008
  0.10220000000000001         -2.6341556491615847E-008
  0.10330000000000003         -1.1754504036787239E-008
  0.10440000000000002         -4.7456052421068762E-009
  0.10550000000000001         -9.3954461988232651E-009
  0.10660000000000003         -1.6877358177680435E-008
  0.10770000000000002         -1.9922334004718323E-008
  0.10880000000000001         -1.4195681963258266E-008
  0.10990000000000003         -4.6629287098198802E-009
  0.11100000000000002          2.2612141048483636E-009
  0.11210000000000001          4.5742782894819811E-009
  0.11320000000000002          2.6094462146630804E-009
  0.11430000000000001         -2.1658070892272008E-009
  0.11540000000000003         -5.9050724310338865E-009
  0.11650000000000002         -1.9976984511060891E-009
  0.11760000000000001          1.0258509597349530E-008
  0.11870000000000003          1.8414807456679227E-008
  0.11980000000000002          1.5077711523758808E-008
  0.12090000000000001          3.5756393401698006E-009
  0.12200000000000003         -8.1462958601008495E-010
  0.12310000000000001          7.6617974187342952E-009
  0.12420000000000003          2.1852294196378352E-008
  0.12530000000000002          2.6281632869995519E-008
  0.12640000000000001          1.7617340475339915E-008
  0.12750000000000003          6.4724132720073158E-009
  0.12860000000000002          4.1215675317118894E-009
  0.12970000000000001          7.8315789409089120E-009
  0.13080000000000003          1.0702074781931969E-008
  0.13190000000000002          1.2776046887097436E-008
  0.13300000000000001          1.5870661229655525E-008
  0.13410000000000000          1.5649424867092421E-008
  0.13520000000000004          7.2396253436579627E-009
  0.13630000000000003         -3.4344729282764774E-009
  0.13740000000000002         -3.2557283535794568E-009
  0.13850000000000001          1.0127443772489642E-008
  0.13960000000000000          2.1066604460884264E-008
  0.14070000000000005          1.4068679554668506E-008
  0.14180000000000004         -4.7590833496258256E-009
  0.14290000000000003         -1.4186200658627968E-008
  0.14400000000000002         -5.1877733220351274E-009
  0.14510000000000001          8.6827052214744072E-009
  0.14620000000000000          1.1356363849301943E-008
  0.14730000000000004          3.0720606059020383E-009
  0.14840000000000003         -4.4532990628454172E-009
  0.14950000000000002         -6.1273590645782861E-009
  0.15060000000000001         -6.7595564701150579E-009
  0.15170000000000000         -8.0558457682400331E-009
  0.15280000000000005         -3.4399694204267917E-009
  0.15390000000000004          7.5631056972724764E-009
  0.15500000000000003          1.1045726111547083E-008
  0.15610000000000002         -1.9875132650781779E-009
  0.15720000000000001         -1.9269075224315202E-008
  0.15830000000000000         -1.8962277081868706E-008
  0.15940000000000004          4.4231368567793083E-010
  0.16050000000000003          1.5543001552487112E-008
  0.16160000000000002          9.1361949117185759E-009
  0.16270000000000001         -9.4674570405572922E-009
  0.16380000000000000         -1.6317331485993236E-008
  0.16490000000000005         -6.8785959150829967E-009
  0.16600000000000004          3.3227021134507595E-009
  0.16710000000000003          3.2906428693024736E-009
  0.16820000000000002         -5.5266546894472413E-010
  0.16930000000000001          2.7542695901772163E-010
  0.17040000000000000          1.1519269982329661E-009
  0.17150000000000004         -5.3828643764575190E-009
  0.17260000000000003         -1.3040152957444207E-008
  0.17370000000000002         -7.2544450446798692E-009
  0.17480000000000001          1.0523301341436309E-008
  0.17590000000000000          1.8918809630008582E-008
  0.17700000000000005          5.0794657369124252E-009
  0.17810000000000004         -1.5885321502651095E-008
  0.17920000000000003         -1.8359578746185434E-008
  0.18030000000000002         -7.4243622361080952E-010
  0.18140000000000001          1.2956011374853915E-008
  0.18250000000000000          7.6828774453474580E-009
  0.18360000000000004         -4.8156616472283531E-009
  0.18470000000000003         -6.2906542197538329E-009
  0.18580000000000002          1.2683877281816081E-009
  0.18690000000000001          3.0058333599924936E-009
  0.18800000000000000         -2.7316087169992898E-009
  0.18910000000000005         -2.6757474014260652E-009
  0.19020000000000004          7.1300609860713848E-009
  0.19130000000000003          1.0838507868982106E-008
  0.19240000000000002         -2.3424056028176210E-009
  0.19350000000000001         -1.7338027902269459E-008
  0.19460000000000005         -1.1884613293489110E-008
  0.19570000000000004          9.8372856527362273E-009
  0.19680000000000003          2.0158372748824149E-008
  0.19790000000000002          5.5577582536159298E-009
  0.19900000000000001         -1.4125425273903147E-008
  0.20010000000000000         -1.3431630030424913E-008
  0.20120000000000005          3.7089336046847166E-009
  0.20230000000000004          1.2299836704698919E-008
  0.20340000000000003          3.3558511525200174E-009
  0.20450000000000002         -6.1116729455079621E-009
  0.20560000000000000         -2.1732853294764709E-009
  0.20670000000000005          4.9447552719072974E-009
  0.20780000000000004          5.6278737226023168E-010
  0.20890000000000003         -8.8890548255449175E-009
