 -0.12000000000000000          0.0000000000000000
 -0.11889999999999999          0.0000000000000000
 -0.11780000000000000         -2.8803398555155013E-010
 -0.11670000000000000         -3.7413219744486526E-010
 -0.11559999999999999          3.5014199872840379E-010
 -0.11449999999999999          9.4073016043694224E-010
 -0.11340000000000000          9.4344115852962318E-011
 -0.11230000000000000         -1.0913596693029604E-009
 -0.11119999999999999         -5.3994986259908728E-010
 -0.11009999999999999          4.0800493539272509E-010
 -0.10900000000000000         -1.7057470991233004E-009
 -0.10790000000000000         -5.1608428641713999E-009
 -0.10679999999999999         -2.5409692128164352E-009
 -0.10569999999999999          7.8289570382139573E-009
 -0.10460000000000000          1.4875282339232854E-008
 -0.10349999999999999          7.4609003419823239E-009
 -0.10239999999999999         -7.8669248892992982E-009
 -0.10130000000000000         -1.2319265607629859E-008
 -0.10020000000000000         -5.1220550023600708E-010
  -9.9099999999999994E-002     1.0257106275446404E-008
  -9.7999999999999990E-002     3.9317074040923217E-009
  -9.6899999999999986E-002    -1.0295767793877530E-008
  -9.5799999999999996E-002    -1.0654859217140711E-008
  -9.4699999999999993E-002     4.9943840174648813E-009
  -9.3599999999999989E-002     1.5762308791522628E-008
  -9.2499999999999999E-002     8.8267295694777204E-009
  -9.1399999999999995E-002    -2.6693793842014202E-009
  -9.0299999999999991E-002    -2.5358370958628029E-009
  -8.9200000000000002E-002     1.5048964296937584E-009
  -8.8099999999999984E-002    -9.5547330047907053E-009
  -8.6999999999999994E-002    -3.3973734048231563E-008
  -8.5899999999999990E-002    -5.0857028810469274E-008
  -8.4799999999999986E-002    -5.4565401086392740E-008
  -8.3699999999999997E-002    -6.5483426681112178E-008
  -8.2599999999999993E-002    -9.6673907989952568E-008
  -8.1499999999999989E-002    -1.2998593490465282E-007
  -8.0399999999999999E-002    -1.4490673549971689E-007
  -7.9299999999999995E-002    -1.5748329929010652E-007
  -7.8199999999999992E-002    -2.0287106394789589E-007
  -7.7100000000000002E-002    -2.8165894150333770E-007
  -7.5999999999999984E-002    -3.5502839068612957E-007
  -7.4899999999999994E-002    -4.0535437051403278E-007
  -7.3799999999999991E-002    -4.7338815534203604E-007
  -7.2699999999999987E-002    -6.0896365994267398E-007
  -7.1599999999999997E-002    -8.0216415199174662E-007
  -7.0499999999999993E-002    -9.9893975402665092E-007
  -6.9399999999999989E-002    -1.1834146107503329E-006
  -6.8300000000000000E-002    -1.4076381376071367E-006
  -6.7199999999999996E-002    -1.7256301134693786E-006
  -6.6099999999999992E-002    -2.1305777408997528E-006
  -6.5000000000000002E-002    -2.5860899768304080E-006
  -6.3899999999999985E-002    -3.0978669656178681E-006
  -6.2799999999999995E-002    -3.7148813589737983E-006
  -6.1699999999999991E-002    -4.4658031583821867E-006
  -6.0599999999999994E-002    -5.3392168410937302E-006
  -5.9499999999999990E-002    -6.3407492234546226E-006
  -5.8399999999999994E-002    -7.5280295277480036E-006
  -5.7299999999999990E-002    -8.9556378952693194E-006
  -5.6199999999999986E-002    -1.0613653103064280E-005
  -5.5099999999999996E-002    -1.2469113244151231E-005
  -5.3999999999999992E-002    -1.4561912394128740E-005
  -5.2899999999999989E-002    -1.7006786947604269E-005
  -5.1799999999999985E-002    -1.9883862478309311E-005
  -5.0699999999999995E-002    -2.3173888621386141E-005
  -4.9599999999999991E-002    -2.6839263227884658E-005
  -4.8499999999999988E-002    -3.0936844268580899E-005
  -4.7399999999999998E-002    -3.5597324313130230E-005
  -4.6299999999999994E-002    -4.0901817556004971E-005
  -4.5199999999999990E-002    -4.6839446440571919E-005
  -4.4099999999999986E-002    -5.3402603953145444E-005
  -4.2999999999999997E-002    -6.0669695812975988E-005
  -4.1899999999999993E-002    -6.8749170168302953E-005
  -4.0799999999999989E-002    -7.7678771049249917E-005
  -3.9699999999999985E-002    -8.7438995251432061E-005
  -3.8599999999999995E-002    -9.8054748377762735E-005
  -3.7499999999999992E-002    -1.0961816587951034E-004
  -3.6399999999999988E-002    -1.2218939082231373E-004
  -3.5299999999999984E-002    -1.3572994794230908E-004
  -3.4199999999999994E-002    -1.5017815167084336E-004
  -3.3099999999999991E-002    -1.6554999456275254E-004
  -3.1999999999999987E-002    -1.8190126866102219E-004
  -3.0899999999999997E-002    -1.9920030899811536E-004
  -2.9799999999999993E-002    -2.1730408479925245E-004
  -2.8699999999999989E-002    -2.3608269111718982E-004
  -2.7599999999999986E-002    -2.5549551355652511E-004
  -2.6499999999999996E-002    -2.7550020604394376E-004
  -2.5399999999999992E-002    -2.9592114151455462E-004
  -2.4299999999999988E-002    -3.1648436561226845E-004
  -2.3199999999999985E-002    -3.3696260652504861E-004
  -2.2099999999999995E-002    -3.5721409949474037E-004
  -2.0999999999999991E-002    -3.7705575232394040E-004
  -1.9899999999999987E-002    -3.9616279536858201E-004
  -1.8799999999999983E-002    -4.1414322913624346E-004
  -1.7699999999999994E-002    -4.3067467049695551E-004
  -1.6599999999999990E-002    -4.4549602898769081E-004
  -1.5499999999999986E-002    -4.5828209840692580E-004
  -1.4399999999999996E-002    -4.6860115253366530E-004
  -1.3299999999999992E-002    -4.7602527774870396E-004
  -1.2199999999999989E-002    -4.8021960537880659E-004
  -1.1099999999999985E-002    -4.8088069888763130E-004
  -9.9999999999999950E-003    -4.7762310714460909E-004
  -8.8999999999999913E-003    -4.7001699567772448E-004
  -7.7999999999999875E-003    -4.5772257726639509E-004
  -6.6999999999999837E-003    -4.4053606688976288E-004
  -5.5999999999999939E-003    -4.1826991946436465E-004
  -4.4999999999999901E-003    -3.9066368481144309E-004
  -3.3999999999999864E-003    -3.5747708170674741E-004
  -2.2999999999999826E-003    -3.1863182084634900E-004
  -1.1999999999999927E-003    -2.7419842081144452E-004
  -9.9999999999988987E-005    -2.2426864597946405E-004
   1.0000000000000148E-003    -1.6890752885956317E-004
   2.1000000000000185E-003    -1.0826071957126260E-004
   3.2000000000000084E-003    -4.2663079511839896E-005
   4.3000000000000121E-003     2.7420803235145286E-005
   5.4000000000000159E-003     1.0152766481041908E-004
   6.5000000000000058E-003     1.7919353558681905E-004
   7.6000000000000234E-003     2.5982136139646173E-004
   8.7000000000000133E-003     3.4263313864357769E-004
   9.8000000000000032E-003     4.2678634054027498E-004
   1.0900000000000021E-002     5.1148585043847561E-004
   1.2000000000000011E-002     5.9593567857518792E-004
   1.3100000000000001E-002     6.7922804737463593E-004
   1.4200000000000018E-002     7.6034408994019032E-004
   1.5300000000000008E-002     8.3828729111701250E-004
   1.6400000000000026E-002     9.1215129941701889E-004
   1.7500000000000016E-002     9.8105531651526690E-004
   1.8600000000000005E-002     1.0440734913572669E-003
   1.9700000000000023E-002     1.1002931278198957E-003
   2.0800000000000013E-002     1.1489297030493617E-003
   2.1900000000000003E-002     1.1893311748281121E-003
   2.3000000000000020E-002     1.2208940461277962E-003
   2.4100000000000010E-002     1.2430384522303939E-003
   2.5200000000000000E-002     1.2552990810945630E-003
   2.6300000000000018E-002     1.2574174907058477E-003
   2.7400000000000008E-002     1.2493057874962687E-003
   2.8500000000000025E-002     1.2309427838772535E-003
   2.9600000000000015E-002     1.2023756280541420E-003
   3.0700000000000005E-002     1.1637975694611669E-003
   3.1800000000000023E-002     1.1156048858538270E-003
   3.2900000000000013E-002     1.0583343682810664E-003
   3.4000000000000002E-002     9.9260360002517700E-004
   3.5100000000000020E-002     9.1909151524305344E-004
   3.6200000000000010E-002     8.3860993618145585E-004
   3.7300000000000028E-002     7.5209833448752761E-004
   3.8400000000000017E-002     6.6055729985237122E-004
   3.9500000000000007E-002     5.6498113553971052E-004
   4.0600000000000025E-002     4.6639738138765097E-004
   4.1700000000000015E-002     3.6591495154425502E-004
   4.2800000000000005E-002     2.6468333089724183E-004
   4.3900000000000022E-002     1.6379446606151760E-004
   4.5000000000000012E-002     6.4273888710886240E-005
   4.6100000000000002E-002    -3.2903222745517269E-005
   4.7200000000000020E-002    -1.2678433267865330E-004
   4.8300000000000010E-002    -2.1645808010362089E-004
   4.9400000000000027E-002    -3.0110255465842783E-004
   5.0500000000000017E-002    -3.8001904613338411E-004
   5.1600000000000007E-002    -4.5261104241944849E-004
   5.2700000000000025E-002    -5.1837210776284337E-004
   5.3800000000000014E-002    -5.7690910762175918E-004
   5.4900000000000004E-002    -6.2794313998892903E-004
   5.6000000000000022E-002    -6.7129847593605518E-004
   5.7100000000000012E-002    -7.0689769927412271E-004
   5.8200000000000002E-002    -7.3475728277117014E-004
   5.9300000000000019E-002    -7.5500493403524160E-004
   6.0400000000000009E-002    -7.6786946738138795E-004
   6.1500000000000027E-002    -7.7367015182971954E-004
   6.2600000000000017E-002    -7.7279144898056984E-004
   6.3700000000000007E-002    -7.6565990457311273E-004
   6.4800000000000024E-002    -7.5273599941283464E-004
   6.5900000000000014E-002    -7.3453376535326242E-004
   6.7000000000000004E-002    -7.1163004031404853E-004
   6.8100000000000022E-002    -6.8463885691016912E-004
   6.9200000000000012E-002    -6.5416080178692937E-004
   7.0300000000000029E-002    -6.2075833557173610E-004
   7.1400000000000019E-002    -5.8498518774285913E-004
   7.2500000000000009E-002    -5.4741586791351438E-004
   7.3600000000000027E-002    -5.0862296484410763E-004
   7.4700000000000016E-002    -4.6912304242141545E-004
   7.5800000000000006E-002    -4.2936249519698322E-004
   7.6900000000000024E-002    -3.8976295036263764E-004
   7.8000000000000014E-002    -3.5075072082690895E-004
   7.9100000000000004E-002    -3.1270983163267374E-004
   8.0200000000000021E-002    -2.7592500555329025E-004
   8.1300000000000011E-002    -2.4060756550170481E-004
   8.2400000000000029E-002    -2.0696855790447444E-004
   8.3500000000000019E-002    -1.7523457063362002E-004
   8.4600000000000009E-002    -1.4557190297637135E-004
   8.5700000000000026E-002    -1.1803589586634189E-004
   8.6800000000000016E-002    -9.2625428806059062E-005
   8.7900000000000006E-002    -6.9370296841952950E-005
   8.9000000000000024E-002    -4.8321107897209004E-005
   9.0100000000000013E-002    -2.9456006814143620E-005
   9.1200000000000003E-002    -1.2659074855037034E-005
   9.2300000000000021E-002     2.1808139081258560E-006
   9.3400000000000011E-002     1.5107330909813754E-005
   9.4500000000000028E-002     2.6163266738876700E-005
   9.5600000000000018E-002     3.5489021684043109E-005
   9.6700000000000008E-002     4.3294436181895435E-005
   9.7800000000000026E-002     4.9725345888873562E-005
   9.8900000000000016E-002     5.4825188271934167E-005
  0.10000000000000001          5.8654666645452380E-005
  0.10110000000000002          6.1387931054923683E-005
  0.10220000000000001          6.3237479480449110E-005
  0.10330000000000003          6.4315870986320078E-005
  0.10440000000000002          6.4644147641956806E-005
  0.10550000000000001          6.4289299189113081E-005
  0.10660000000000003          6.3420251535717398E-005
  0.10770000000000002          6.2188577430788428E-005
  0.10880000000000001          6.0623195167863742E-005
  0.10990000000000003          5.8707122661871836E-005
  0.11100000000000002          5.6522203522035852E-005
  0.11210000000000001          5.4233198170550168E-005
  0.11320000000000002          5.1923630962846801E-005
  0.11430000000000001          4.9539234169060364E-005
  0.11540000000000003          4.7029694542288780E-005
  0.11650000000000002          4.4480417273007333E-005
  0.11760000000000001          4.2033352656289935E-005
  0.11870000000000003          3.9715221646474674E-005
  0.11980000000000002          3.7432950193760917E-005
  0.12090000000000001          3.5144985304214060E-005
  0.12200000000000003          3.2942542020464316E-005
  0.12310000000000001          3.0918636184651405E-005
  0.12420000000000003          2.9031576559646055E-005
  0.12530000000000002          2.7178084565093741E-005
  0.12640000000000001          2.5362662199768238E-005
  0.12750000000000003          2.3699119992670603E-005
  0.12860000000000002          2.2232798073673621E-005
  0.12970000000000001          2.0860834410996176E-005
  0.13080000000000003          1.9479868569760583E-005
  0.13190000000000002          1.8139671738026664E-005
  0.13300000000000001          1.6966163457254879E-005
  0.13410000000000000          1.5965972124831751E-005
  0.13520000000000004          1.5011341929493938E-005
  0.13630000000000003          1.4026501048647333E-005
  0.13740000000000002          1.3092448170937132E-005
  0.13850000000000001          1.2311412319832016E-005
  0.13960000000000000          1.1642625395325013E-005
  0.14070000000000005          1.0961458428937476E-005
  0.14180000000000004          1.0248686521663330E-005
  0.14290000000000003          9.6152161859208718E-006
  0.14400000000000002          9.1234924184391275E-006
  0.14510000000000001          8.6830750660737976E-006
  0.14620000000000000          8.1839807535288855E-006
  0.14730000000000004          7.6608484960161150E-006
  0.14840000000000003          7.2356679083895870E-006
  0.14950000000000002          6.9272764449124224E-006
  0.15060000000000001          6.6203306232637260E-006
  0.15170000000000000          6.2402027651842218E-006
  0.15280000000000005          5.8628374972613528E-006
  0.15390000000000004          5.5912914831424132E-006
  0.15500000000000003          5.3930948524794076E-006
  0.15610000000000002          5.1495881052687764E-006
  0.15720000000000001          4.8396950660389848E-006
  0.15830000000000000          4.5718866203969810E-006
  0.15940000000000004          4.4147827793494798E-006
  0.16050000000000003          4.2878523345279973E-006
  0.16160000000000002          4.0817030821926892E-006
  0.16270000000000001          3.8233338273130357E-006
  0.16380000000000000          3.6337085020932136E-006
  0.16490000000000005          3.5438631584838731E-006
  0.16600000000000004          3.4498634704505093E-006
  0.16710000000000003          3.2716038731450681E-006
  0.16820000000000002          3.0697228794451803E-006
  0.16930000000000001          2.9466791602317244E-006
  0.17040000000000000          2.8896552066726144E-006
  0.17150000000000004          2.7960361421719426E-006
  0.17260000000000003          2.6349143809056841E-006
  0.17370000000000002          2.4919193037931109E-006
  0.17480000000000001          2.4316848339367425E-006
  0.17590000000000000          2.3959541977092158E-006
  0.17700000000000005          2.2947115212446079E-006
  0.17810000000000004          2.1460130028572166E-006
  0.17920000000000003          2.0477114048844669E-006
  0.18030000000000002          2.0264078557374887E-006
  0.18140000000000001          1.9971362235082779E-006
  0.18250000000000000          1.8940041854875744E-006
  0.18360000000000004          1.7691241964712390E-006
  0.18470000000000003          1.7104370044762618E-006
  0.18580000000000002          1.7079812550946372E-006
  0.18690000000000001          1.6723928411011002E-006
  0.18800000000000000          1.5723674096079776E-006
  0.18910000000000005          1.4787209465794149E-006
  0.19020000000000004          1.4524226799039752E-006
  0.19130000000000003          1.4526406175718876E-006
  0.19240000000000002          1.4030482589078019E-006
  0.19350000000000001          1.3091154187350185E-006
  0.19460000000000005          1.2466017551560071E-006
  0.19570000000000004          1.2437060377123998E-006
  0.19680000000000003          1.2404758535922156E-006
  0.19790000000000002          1.1827639809780521E-006
  0.19900000000000001          1.1028112112398958E-006
  0.20010000000000000          1.0656601716618752E-006
  0.20120000000000005          1.0697552852434455E-006
  0.20230000000000004          1.0540852599660866E-006
  0.20340000000000003          9.9457884061848745E-007
  0.20450000000000002          9.3794392341806088E-007
  0.20560000000000000          9.2568456011576927E-007
  0.20670000000000005          9.3047361815479235E-007
  0.20780000000000004          9.0180884626533953E-007
  0.20890000000000003          8.4542745071303216E-007
