 -0.12000000000000000          0.0000000000000000     
 -0.11889999999999999          0.0000000000000000     
 -0.11780000000000000         -1.8012178916176607E-033
 -0.11670000000000000         -1.3550497612868639E-008
 -0.11559999999999999          4.5017500838184787E-008
 -0.11449999999999999          5.3513254272274935E-008
 -0.11340000000000000         -3.1081916063158133E-007
 -0.11230000000000000         -2.7573020133786486E-007
 -0.11119999999999999          1.2863783922512084E-006
 -0.11009999999999999          1.6800776165837306E-006
 -0.10900000000000000         -3.4199506444565486E-006
 -0.10790000000000000         -7.7485447036451660E-006
 -0.10679999999999999          3.7166239508223953E-006
 -0.10569999999999999          2.3921144020278007E-005
 -0.10460000000000000          1.2480367331590969E-005
 -0.10349999999999999         -4.3498250306583941E-005
 -0.10239999999999999         -6.9086643634364009E-005
 -0.10130000000000000          1.9003746274393052E-005
 -0.10020000000000000          1.4771893620491028E-004
  -9.9099999999999994E-002     1.1355000606272370E-004
  -9.7999999999999990E-002    -1.2561277253553271E-004
  -9.6899999999999986E-002    -2.8829945949837565E-004
  -9.5799999999999996E-002    -9.6642877906560898E-005
  -9.4699999999999993E-002     2.6992155471816659E-004
  -9.3599999999999989E-002     3.2502631074748933E-004
  -9.2499999999999999E-002    -3.3385229471605271E-005
  -9.1399999999999995E-002    -2.9695493867620826E-004
  -9.0299999999999991E-002    -6.8481735070236027E-005
  -8.9200000000000002E-002     2.7522791060619056E-004
  -8.8099999999999984E-002     1.0228422615909949E-004
  -8.6999999999999994E-002    -4.3246129644103348E-004
  -8.5899999999999990E-002    -4.9852154916152358E-004
  -8.4799999999999986E-002     1.3584396219812334E-004
  -8.3699999999999997E-002     6.4473343081772327E-004
  -8.2599999999999993E-002     3.9465402369387448E-004
  -8.1499999999999989E-002    -3.3398053346900269E-005
  -8.0399999999999999E-002     1.0606455180095509E-004
  -7.9299999999999995E-002     1.7762304923962802E-004
  -7.8199999999999992E-002    -1.0205822763964534E-003
  -7.7100000000000002E-002    -2.9079962987452745E-003
  -7.5999999999999984E-002    -3.2130712643265724E-003
  -7.4899999999999994E-002    -1.2291393941268325E-003
  -7.3799999999999991E-002     5.3331890376284719E-004
  -7.2699999999999987E-002    -3.8434157613664865E-004
  -7.1599999999999997E-002    -2.4793322663754225E-003
  -7.0499999999999993E-002    -2.1057312842458487E-003
  -6.9399999999999989E-002     8.0681574763730168E-004
  -6.8300000000000000E-002     1.7622358864173293E-003
  -6.7199999999999996E-002    -2.1006730385124683E-003
  -6.6099999999999992E-002    -7.3478897102177143E-003
  -6.5000000000000002E-002    -8.6113810539245605E-003
  -6.3899999999999985E-002    -6.1162719503045082E-003
  -6.2799999999999995E-002    -5.1202862523496151E-003
  -6.1699999999999991E-002    -7.9795485362410545E-003
  -6.0599999999999994E-002    -1.1102791875600815E-002
  -5.9499999999999990E-002    -1.1529259383678436E-002
  -5.8399999999999994E-002    -1.2255980633199215E-002
  -5.7299999999999990E-002    -1.7035856842994690E-002
  -5.6199999999999986E-002    -2.2990442812442780E-002
  -5.5099999999999996E-002    -2.4437876418232918E-002
  -5.3999999999999992E-002    -2.3329613730311394E-002
  -5.2899999999999989E-002    -2.8541531413793564E-002
  -5.1799999999999985E-002    -4.2121253907680511E-002
  -5.0699999999999995E-002    -5.3262058645486832E-002
  -4.9599999999999991E-002    -5.2623093128204346E-002
  -4.8499999999999988E-002    -4.7960881143808365E-002
  -4.7399999999999998E-002    -5.6052353233098984E-002
  -4.6299999999999994E-002    -7.9322151839733124E-002
  -4.5199999999999990E-002   -0.10089036822319031     
  -4.4099999999999986E-002   -0.10736054182052612     
  -4.2999999999999997E-002   -0.10738755762577057     
  -4.1899999999999993E-002   -0.11875670403242111     
  -4.0799999999999989E-002   -0.14316001534461975     
  -3.9699999999999985E-002   -0.16606016457080841     
  -3.8599999999999995E-002   -0.18039046227931976     
  -3.7499999999999992E-002   -0.19598132371902466     
  -3.6399999999999988E-002   -0.22030492126941681     
  -3.5299999999999984E-002   -0.24407413601875305     
  -3.4199999999999994E-002   -0.25720408558845520     
  -3.3099999999999991E-002   -0.27050584554672241     
  -3.1999999999999987E-002   -0.30270391702651978     
  -3.0899999999999997E-002   -0.34759435057640076     
  -2.9799999999999993E-002   -0.37502357363700867     
  -2.8699999999999989E-002   -0.37271094322204590     
  -2.7599999999999986E-002   -0.36894583702087402     
  -2.6499999999999996E-002   -0.39626413583755493     
  -2.5399999999999992E-002   -0.44369822740554810     
  -2.4299999999999988E-002   -0.46845868229866028     
  -2.3199999999999985E-002   -0.45503908395767212     
  -2.2099999999999995E-002   -0.43440198898315430     
  -2.0999999999999991E-002   -0.43743550777435303     
  -1.9899999999999987E-002   -0.44962814450263977     
  -1.8799999999999983E-002   -0.43694600462913513     
  -1.7699999999999994E-002   -0.39824783802032471     
  -1.6599999999999990E-002   -0.36223453283309937     
  -1.5499999999999986E-002   -0.33450877666473389     
  -1.4399999999999996E-002   -0.28334143757820129     
  -1.3299999999999992E-002   -0.19308301806449890     
  -1.2199999999999989E-002    -9.5009781420230865E-002
  -1.1099999999999985E-002    -2.5447277352213860E-002
  -9.9999999999999950E-003     3.7409689277410507E-002
  -8.8999999999999913E-003    0.15095616877079010     
  -7.7999999999999875E-003    0.32276141643524170     
  -6.6999999999999837E-003    0.49245971441268921     
  -5.5999999999999939E-003    0.61790579557418823     
  -4.4999999999999901E-003    0.73268353939056396     
  -3.3999999999999864E-003    0.90140891075134277     
  -2.2999999999999826E-003     1.1157102584838867     
  -1.1999999999999927E-003     1.3115688562393188     
  -9.9999999999988987E-005     1.4641560316085815     
   1.0000000000000148E-003     1.6213978528976440     
   2.1000000000000185E-003     1.8216520547866821     
   3.2000000000000084E-003     2.0239796638488770     
   4.3000000000000121E-003     2.1709876060485840     
   5.4000000000000159E-003     2.2678527832031250     
   6.5000000000000058E-003     2.3890714645385742     
   7.6000000000000234E-003     2.5506870746612549     
   8.7000000000000133E-003     2.6726319789886475     
   9.8000000000000032E-003     2.6932749748229980     
   1.0900000000000021E-002     2.6541421413421631     
   1.2000000000000011E-002     2.6429064273834229     
   1.3100000000000001E-002     2.6558425426483154     
   1.4200000000000018E-002     2.5946846008300781     
   1.5300000000000008E-002     2.4225003719329834     
   1.6400000000000026E-002     2.2129726409912109     
   1.7500000000000016E-002     2.0320732593536377     
   1.8600000000000005E-002     1.8295955657958984     
   1.9700000000000023E-002     1.5203483104705811     
   2.0800000000000013E-002     1.1269413232803345     
   2.1900000000000003E-002    0.75510776042938232     
   2.3000000000000020E-002    0.43296074867248535     
   2.4100000000000010E-002     6.4544089138507843E-002
   2.5200000000000000E-002   -0.42810058593750000     
   2.6300000000000018E-002   -0.97046357393264771     
   2.7400000000000008E-002    -1.4289786815643311     
   2.8500000000000025E-002    -1.8037587404251099     
   2.9600000000000015E-002    -2.2181506156921387     
   3.0700000000000005E-002    -2.7267425060272217     
   3.1800000000000023E-002    -3.2236878871917725     
   3.2900000000000013E-002    -3.5944066047668457     
   3.4000000000000002E-002    -3.8793628215789795     
   3.5100000000000020E-002    -4.1962094306945801     
   3.6200000000000010E-002    -4.5421848297119141     
   3.7300000000000028E-002    -4.7881178855895996     
   3.8400000000000017E-002    -4.8769688606262207     
   3.9500000000000007E-002    -4.9144706726074219     
   4.0600000000000025E-002    -5.0044755935668945     
   4.1700000000000015E-002    -5.0681986808776855     
   4.2800000000000005E-002    -4.9625349044799805     
   4.3900000000000022E-002    -4.6935157775878906     
   4.5000000000000012E-002    -4.4216980934143066     
   4.6100000000000002E-002    -4.2224678993225098     
   4.7200000000000020E-002    -3.9708409309387207     
   4.8300000000000010E-002    -3.5431406497955322     
   4.9400000000000027E-002    -3.0088984966278076     
   5.0500000000000017E-002    -2.5289537906646729     
   5.1600000000000007E-002    -2.1257498264312744     
   5.2700000000000025E-002    -1.6547815799713135     
   5.3800000000000014E-002    -1.0402331352233887     
   5.4900000000000004E-002   -0.41510751843452454     
   5.6000000000000022E-002     7.6189324259757996E-002
   5.7100000000000012E-002    0.48584401607513428     
   5.8200000000000002E-002    0.98423910140991211     
   5.9300000000000019E-002     1.5780675411224365     
   6.0400000000000009E-002     2.0886106491088867     
   6.1500000000000027E-002     2.4113047122955322     
   6.2600000000000017E-002     2.6653401851654053     
   6.3700000000000007E-002     3.0110237598419189     
   6.4800000000000024E-002     3.3910210132598877     
   6.5900000000000014E-002     3.6218557357788086     
   6.7000000000000004E-002     3.6683053970336914     
   6.8100000000000022E-002     3.7023239135742188     
   6.9200000000000012E-002     3.8359260559082031     
   7.0300000000000029E-002     3.9349277019500732     
   7.1400000000000019E-002     3.8396077156066895     
   7.2500000000000009E-002     3.6074185371398926     
   7.3600000000000027E-002     3.4457194805145264     
   7.4700000000000016E-002     3.3969490528106689     
   7.5800000000000006E-002     3.2758438587188721     
   7.6900000000000024E-002     2.9536502361297607     
   7.8000000000000014E-002     2.5626995563507080     
   7.9100000000000004E-002     2.3050262928009033     
   8.0200000000000021E-002     2.1518700122833252     
   8.1300000000000011E-002     1.9007154703140259     
   8.2400000000000029E-002     1.4957159757614136     
   8.3500000000000019E-002     1.1185436248779297     
   8.4600000000000009E-002    0.90837508440017700     
   8.5700000000000026E-002    0.75023704767227173     
   8.6800000000000016E-002    0.46019527316093445     
   8.7900000000000006E-002     8.2085125148296356E-002
   8.9000000000000024E-002   -0.16993293166160583     
   9.0100000000000013E-002   -0.24013413488864899     
   9.1200000000000003E-002   -0.32461559772491455     
   9.2300000000000021E-002   -0.57203894853591919     
   9.3400000000000011E-002   -0.85274440050125122     
   9.4500000000000028E-002   -0.95118993520736694     
   9.5600000000000018E-002   -0.89327394962310791     
   9.6700000000000008E-002   -0.90478903055191040     
   9.7800000000000026E-002    -1.0689268112182617     
   9.8900000000000016E-002    -1.2045691013336182     
  0.10000000000000001         -1.1522524356842041     
  0.10110000000000002         -1.0215930938720703     
  0.10220000000000001         -1.0202949047088623     
  0.10330000000000003         -1.1295846700668335     
  0.10440000000000002         -1.1363005638122559     
  0.10550000000000001        -0.96677982807159424     
  0.10660000000000003        -0.81048685312271118     
  0.10770000000000002        -0.83090460300445557     
  0.10880000000000001        -0.91421902179718018     
  0.10990000000000003        -0.84301793575286865     
  0.11100000000000002        -0.62943905591964722     
  0.11210000000000001        -0.49844199419021606     
  0.11320000000000002        -0.54638904333114624     
  0.11430000000000001        -0.59961694478988647     
  0.11540000000000003        -0.48541656136512756     
  0.11650000000000002        -0.29485616087913513     
  0.11760000000000001        -0.23867587745189667     
  0.11870000000000003        -0.31973704695701599     
  0.11980000000000002        -0.33104932308197021     
  0.12090000000000001        -0.17987740039825439     
  0.12200000000000003         -3.4813918173313141E-002
  0.12310000000000001         -6.4007401466369629E-002
  0.12420000000000003        -0.17417742311954498     
  0.12530000000000002        -0.15193286538124084     
  0.12640000000000001          9.4910878688097000E-003
  0.12750000000000003         0.10046333074569702     
  0.12860000000000002          1.5821997076272964E-002
  0.12970000000000001         -8.6539357900619507E-002
  0.13080000000000003         -3.1235152855515480E-002
  0.13190000000000002         0.10940314084291458     
  0.13300000000000001         0.13111042976379395     
  0.13410000000000000          1.4969713054597378E-002
  0.13520000000000004         -4.7771796584129333E-002
  0.13630000000000003          4.6759843826293945E-002
  0.13740000000000002         0.15551228821277618     
  0.13850000000000001         0.11156611889600754     
  0.13960000000000000         -1.7671253532171249E-002
  0.14070000000000005         -3.5605553537607193E-002
  0.14180000000000004          8.2744501531124115E-002
  0.14290000000000003         0.15488880872726440     
  0.14400000000000002          7.2128728032112122E-002
  0.14510000000000001         -3.8270357996225357E-002
  0.14620000000000000         -1.2883419170975685E-002
  0.14730000000000004          9.8913997411727905E-002
  0.14840000000000003         0.11783638596534729     
  0.14950000000000002          1.3829523697495461E-002
  0.15060000000000001         -5.1841754466295242E-002
  0.15170000000000000          2.0194485783576965E-002
  0.15280000000000005         0.11394437402486801     
  0.15390000000000004          7.9270519316196442E-002
  0.15500000000000003         -3.5871382802724838E-002
  0.15610000000000002         -5.9211749583482742E-002
  0.15720000000000001          4.1754011064767838E-002
  0.15830000000000000         0.11215364933013916     
  0.15940000000000004          4.6406272798776627E-002
  0.16050000000000003         -5.5663578212261200E-002
  0.16160000000000002         -4.5040991157293320E-002
  0.16270000000000001          5.2712544798851013E-002
  0.16380000000000000          8.4784537553787231E-002
  0.16490000000000005          7.1497750468552113E-003
  0.16600000000000004         -5.6153520941734314E-002
  0.16710000000000003         -1.0255411267280579E-002
  0.16820000000000002          6.6771775484085083E-002
  0.16930000000000001          5.1759321242570877E-002
  0.17040000000000000         -3.1659301370382309E-002
  0.17150000000000004         -5.3138002753257751E-002
  0.17260000000000003          2.0378232002258301E-002
  0.17370000000000002          7.5015090405941010E-002
  0.17480000000000001          2.6419248431921005E-002
  0.17590000000000000         -5.1906041800975800E-002
  0.17700000000000005         -4.3071396648883820E-002
  0.17810000000000004          3.6063063889741898E-002
  0.17920000000000003          6.5039850771427155E-002
  0.18030000000000002          3.7262015976011753E-003
  0.18140000000000001         -5.1990810781717300E-002
  0.18250000000000000         -2.0394761115312576E-002
  0.18360000000000004          4.5124344527721405E-002
  0.18470000000000003          4.4224955141544342E-002
  0.18580000000000002         -1.7710469663143158E-002
  0.18690000000000001         -4.4277623295783997E-002
  0.18800000000000000          1.7803800292313099E-003
  0.18910000000000005          4.6163786202669144E-002
  0.19020000000000004          2.1640587598085403E-002
  0.19130000000000003         -3.0938060954213142E-002
  0.19240000000000002         -3.0524590983986855E-002
  0.19350000000000001          1.9421903416514397E-002
  0.19460000000000005          4.0825027972459793E-002
  0.19570000000000004          2.8743580915033817E-003
  0.19680000000000003         -3.4445207566022873E-002
  0.19790000000000002         -1.5582171268761158E-002
  0.19900000000000001          2.7542294934391975E-002
  0.20010000000000000          2.8865609318017960E-002
  0.20120000000000005         -1.0842506773769855E-002
  0.20230000000000004         -2.9672525823116302E-002
  0.20340000000000003         -1.1199994478374720E-003
  0.20450000000000002          2.8842369094491005E-002
  0.20560000000000000          1.5549039468169212E-002
  0.20670000000000005         -1.7991987988352776E-002
  0.20780000000000004         -2.0374538376927376E-002
  0.20890000000000003          9.6542024984955788E-003
