 -0.12000000000000000          0.0000000000000000     
 -0.11889999999999999          0.0000000000000000     
 -0.11780000000000000          5.7030726807738574E-009
 -0.11670000000000000          6.2262417444003404E-009
 -0.11559999999999999         -2.3212104238723441E-008
 -0.11449999999999999         -3.3697602930260473E-008
 -0.11340000000000000          5.4658176651400936E-008
 -0.11230000000000000          1.2594773579621688E-007
 -0.11119999999999999         -5.2622109336653011E-008
 -0.11009999999999999         -3.1760373531142250E-007
 -0.10900000000000000         -1.0819401552453201E-007
 -0.10790000000000000          5.4488799605678651E-007
 -0.10679999999999999          5.8939764358001412E-007
 -0.10569999999999999         -5.1740300932578975E-007
 -0.10460000000000000         -1.3211156328907236E-006
 -0.10349999999999999         -8.3327208244554640E-008
 -0.10239999999999999          1.9580500065785600E-006
 -0.10130000000000000          1.4124528888714849E-006
 -0.10020000000000000         -1.9452718333923258E-006
  -9.9099999999999994E-002    -3.3329806683468632E-006
  -9.7999999999999990E-002     5.4441835573015851E-007
  -9.6899999999999986E-002     5.1065871957689524E-006
  -9.5799999999999996E-002     2.9420932605717098E-006
  -9.4699999999999993E-002    -4.6294330786622595E-006
  -9.3599999999999989E-002    -7.1327790465147700E-006
  -9.2499999999999999E-002     5.5258072961805738E-007
  -9.1399999999999995E-002     8.8268207036890090E-006
  -9.0299999999999991E-002     5.4045594879426062E-006
  -8.9200000000000002E-002    -6.2548074311052915E-006
  -8.8099999999999984E-002    -1.0009001925936900E-005
  -8.6999999999999994E-002     1.3862987202628574E-007
  -8.5899999999999990E-002     1.0309049685020000E-005
  -8.4799999999999986E-002     6.2049325606494676E-006
  -8.3699999999999997E-002    -5.8799741964321584E-006
  -8.2599999999999993E-002    -8.4263156168162823E-006
  -8.1499999999999989E-002     9.7220129191555316E-007
  -8.0399999999999999E-002     6.6569555201567709E-006
  -7.9299999999999995E-002     2.2716081105045305E-007
  -7.8199999999999992E-002    -5.9926424000877887E-006
  -7.7100000000000002E-002     1.4306202444913652E-007
  -7.5999999999999984E-002     8.6112077042344026E-006
  -7.4899999999999994E-002     2.1688888409698848E-006
  -7.3799999999999991E-002    -1.2870443242718466E-005
  -7.2699999999999987E-002    -1.1679435374389868E-005
  -7.1599999999999997E-002     9.8756727311410941E-006
  -7.0499999999999993E-002     2.2379856090992689E-005
  -6.9399999999999989E-002     3.4231725294375792E-006
  -6.8300000000000000E-002    -2.5092467694776133E-005
  -6.7199999999999996E-002    -2.3284343114937656E-005
  -6.6099999999999992E-002     9.1068604888278060E-006
  -6.5000000000000002E-002     2.8760743589373305E-005
  -6.3899999999999985E-002     8.8642791524762288E-006
  -6.2799999999999995E-002    -2.2659502064925618E-005
  -6.1699999999999991E-002    -2.3610760763403960E-005
  -6.0599999999999994E-002     2.6589777917251922E-006
  -5.9499999999999990E-002     1.6138999853865243E-005
  -5.8399999999999994E-002     1.5832316648811684E-006
  -5.7299999999999990E-002    -1.2537260772660375E-005
  -5.6199999999999986E-002    -4.1047269405680709E-006
  -5.5099999999999996E-002     6.2183626141631976E-006
  -5.3999999999999992E-002    -7.8824987213010900E-006
  -5.2899999999999989E-002    -2.8482154448283836E-005
  -5.1799999999999985E-002    -1.7078587916330434E-005
  -5.0699999999999995E-002     1.9314196833875030E-005
  -4.9599999999999991E-002     2.7491787477629259E-005
  -4.8499999999999988E-002    -1.4166172149998602E-005
  -4.7399999999999998E-002    -5.4577194532612339E-005
  -4.6299999999999994E-002    -3.6872588680125773E-005
  -4.5199999999999990E-002     1.7810378267313354E-005
  -4.4099999999999986E-002     3.5681048757396638E-005
  -4.2999999999999997E-002    -6.5744025050662458E-006
  -4.1899999999999993E-002    -5.0297057896386832E-005
  -4.0799999999999989E-002    -4.0457980503560975E-005
  -3.9699999999999985E-002    -1.0474327609699685E-006
  -3.8599999999999995E-002     8.3113245636923239E-006
  -3.7499999999999992E-002    -1.7158261471195146E-005
  -3.6399999999999988E-002    -2.8495307560660876E-005
  -3.5299999999999984E-002    -7.6676124081132002E-006
  -3.4199999999999994E-002     3.2100685984914890E-006
  -3.3099999999999991E-002    -2.4622455384815112E-005
  -3.1999999999999987E-002    -5.0716123951133341E-005
  -3.0899999999999997E-002    -2.4377164663746953E-005
  -2.9799999999999993E-002     2.8383572498569265E-005
  -2.8699999999999989E-002     3.2647694752085954E-005
  -2.7599999999999986E-002    -2.3627406335435808E-005
  -2.6499999999999996E-002    -6.3681320170871913E-005
  -2.5399999999999992E-002    -2.8859094527433626E-005
  -2.4299999999999988E-002     3.6081873986404389E-005
  -2.3199999999999985E-002     4.6894601837266237E-005
  -2.2099999999999995E-002    -1.1764801399749558E-007
  -2.0999999999999991E-002    -2.9158278266550042E-005
  -1.9899999999999987E-002     9.6611461231077556E-007
  -1.8799999999999983E-002     4.1176219383487478E-005
  -1.7699999999999994E-002     3.4850039810407907E-005
  -1.6599999999999990E-002     7.0544574555242434E-006
  -1.5499999999999986E-002     1.8682783775147982E-005
  -1.4399999999999996E-002     6.3179460994433612E-005
  -1.3299999999999992E-002     7.3822877311613411E-005
  -1.2199999999999989E-002     3.1456682336283848E-005
  -1.1099999999999985E-002     3.1805607250134926E-006
  -9.9999999999999950E-003     4.3204694520682096E-005
  -8.8999999999999913E-003     1.0515828034840524E-004
  -7.7999999999999875E-003     1.0596798529149964E-004
  -6.6999999999999837E-003     4.8303230869350955E-005
  -5.5999999999999939E-003     1.8252090740134008E-005
  -4.4999999999999901E-003     5.7311575801577419E-005
  -3.3999999999999864E-003     1.0494763409951702E-004
  -2.2999999999999826E-003     9.4436894869431853E-005
  -1.1999999999999927E-003     4.9545305955689400E-005
  -9.9999999999988987E-005     4.0057220758171752E-005
   1.0000000000000148E-003     7.2407347033731639E-005
   2.1000000000000185E-003     8.4519488154910505E-005
   3.2000000000000084E-003     4.7115812776610255E-005
   4.3000000000000121E-003     1.1978484508290421E-005
   5.4000000000000159E-003     2.7971547751803882E-005
   6.5000000000000058E-003     6.1959144659340382E-005
   7.6000000000000234E-003     4.7850786359049380E-005
   8.7000000000000133E-003    -1.0675419616745785E-005
   9.8000000000000032E-003    -4.0786282625049353E-005
   1.0900000000000021E-002    -1.1816747246484738E-005
   1.2000000000000011E-002     1.7935226424015127E-005
   1.3100000000000001E-002    -9.9054095699102618E-006
   1.4200000000000018E-002    -6.7556058638729155E-005
   1.5300000000000008E-002    -8.4176208474673331E-005
   1.6400000000000026E-002    -5.2717070502694696E-005
   1.7500000000000016E-002    -3.7754281947854906E-005
   1.8600000000000005E-002    -7.3890048952307552E-005
   1.9700000000000023E-002    -1.1479115346446633E-004
   2.0800000000000013E-002    -1.0804767953231931E-004
   2.1900000000000003E-002    -7.5463285611476749E-005
   2.3000000000000020E-002    -7.5713600381277502E-005
   2.4100000000000010E-002    -1.1176060070283711E-004
   2.5200000000000000E-002    -1.2846880417782813E-004
   2.6300000000000018E-002    -1.0048699914477766E-004
   2.7400000000000008E-002    -7.1610455051995814E-005
   2.8500000000000025E-002    -8.4704835899174213E-005
   2.9600000000000015E-002    -1.1256161087658256E-004
   3.0700000000000005E-002    -1.0293722880305722E-004
   3.1800000000000023E-002    -6.1436956457328051E-005
   3.2900000000000013E-002    -3.9655595173826441E-005
   3.4000000000000002E-002    -5.7654280681163073E-005
   3.5100000000000020E-002    -7.4476214649621397E-005
   3.6200000000000010E-002    -5.0551392632769421E-005
   3.7300000000000028E-002    -8.9669892986421473E-006
   3.8400000000000017E-002     3.7050008359074127E-006
   3.9500000000000007E-002    -1.2177719327155501E-005
   4.0600000000000025E-002    -1.4026126336830202E-005
   4.1700000000000015E-002     1.3772139936918393E-005
   4.2800000000000005E-002     3.6698213079944253E-005
   4.3900000000000022E-002     3.0913401133148000E-005
   4.5000000000000012E-002     2.2340907889883965E-005
   4.6100000000000002E-002     4.0883849578676745E-005
   4.7200000000000020E-002     6.8872352130711079E-005
   4.8300000000000010E-002     6.9745234213769436E-005
   4.9400000000000027E-002     4.7729972720844671E-005
   5.0500000000000017E-002     4.1781328036449850E-005
   5.1600000000000007E-002     6.3371386204380542E-005
   5.2700000000000025E-002     7.8763354395050555E-005
   5.3800000000000014E-002     6.6334127041045576E-005
   5.4900000000000004E-002     4.8981077270582318E-005
   5.6000000000000022E-002     5.3311785450205207E-005
   5.7100000000000012E-002     6.5517298935446888E-005
   5.8200000000000002E-002     5.5233882449101657E-005
   5.9300000000000019E-002     2.9398901460808702E-005
   6.0400000000000009E-002     2.3315840735449456E-005
   6.1500000000000027E-002     4.3713866034522653E-005
   6.2600000000000017E-002     5.4462321713799611E-005
   6.3700000000000007E-002     3.1334941013483331E-005
   6.4800000000000024E-002     1.0234018645860488E-006
   6.5900000000000014E-002    -5.7804676600881066E-008
   6.7000000000000004E-002     1.8705379261518829E-005
   6.8100000000000022E-002     1.9684986909851432E-005
   6.9200000000000012E-002    -1.3826306712871883E-006
   7.0300000000000029E-002    -1.1170928701176308E-005
   7.1400000000000019E-002     1.4978508033891558E-006
   7.2500000000000009E-002     4.9538894018041901E-006
   7.3600000000000027E-002    -2.0510131435003132E-005
   7.4700000000000016E-002    -4.2015806684503332E-005
   7.5800000000000006E-002    -2.1958932848065160E-005
   7.6900000000000024E-002     1.6290046914946288E-005
   7.8000000000000014E-002     1.5961724784574471E-005
   7.9100000000000004E-002    -2.7509700885275379E-005
   8.0200000000000021E-002    -5.4723313951399177E-005
   8.1300000000000011E-002    -2.8669326638919301E-005
   8.2400000000000029E-002     1.0080936590384226E-005
   8.3500000000000019E-002     6.4150681282626465E-006
   8.4600000000000009E-002    -2.6228422939311713E-005
   8.5700000000000026E-002    -3.1556544854538515E-005
   8.6800000000000016E-002    -2.3469081043003825E-006
   8.7900000000000006E-002     9.3428352556657046E-006
   8.9000000000000024E-002    -1.9415438146097586E-005
   9.0100000000000013E-002    -3.9920309063745663E-005
   9.1200000000000003E-002    -8.9525401563150808E-006
   9.2300000000000021E-002     3.5700755688594654E-005
   9.3400000000000011E-002     2.5670373361208476E-005
   9.4500000000000028E-002    -3.0726765544386581E-005
   9.5600000000000018E-002    -5.1828057621605694E-005
   9.6700000000000008E-002    -4.4099560909671709E-006
   9.7800000000000026E-002     4.3575208110269159E-005
   9.8900000000000016E-002     2.4235689124907367E-005
  0.10000000000000001         -2.7881818823516369E-005
  0.10110000000000002         -3.0495964892907068E-005
  0.10220000000000001          1.7998976545641199E-005
  0.10330000000000003          3.7548961699940264E-005
  0.10440000000000002         -5.1420615818642545E-006
  0.10550000000000001         -4.0873950638342649E-005
  0.10660000000000003         -7.3007549872272648E-006
  0.10770000000000002          4.8043646529549733E-005
  0.10880000000000001          3.7027704820502549E-005
  0.10990000000000003         -3.0021497877896763E-005
  0.11100000000000002         -5.4061332775745541E-005
  0.11210000000000001          2.4388648398598889E-006
  0.11320000000000002          5.5857493862276897E-005
  0.11430000000000001          2.7902153306058608E-005
  0.11540000000000003         -3.5499699151841924E-005
  0.11650000000000002         -3.6382905818754807E-005
  0.11760000000000001          2.3069022063282318E-005
  0.11870000000000003          4.5518223487306386E-005
  0.11980000000000002         -6.6938937379745767E-006
  0.12090000000000001         -5.0595877837622538E-005
  0.12200000000000003         -1.2606194104591850E-005
  0.12310000000000001          5.2131472330074757E-005
  0.12420000000000003          4.1376970330020413E-005
  0.12530000000000002         -3.3951022487599403E-005
  0.12640000000000001         -6.1667626141570508E-005
  0.12750000000000003          1.5858021242820541E-006
  0.12860000000000002          6.2540646467823535E-005
  0.12970000000000001          3.1779156415723264E-005
  0.13080000000000003         -4.1285995393991470E-005
  0.13190000000000002         -4.6114062570268288E-005
  0.13300000000000001          1.9199835151084699E-005
  0.13410000000000000          4.8603244067635387E-005
  0.13520000000000004         -4.1555690586392302E-006
  0.13630000000000003         -5.3216761443763971E-005
  0.13740000000000002         -1.6536398106836714E-005
  0.13850000000000001          5.2471470553427935E-005
  0.13960000000000000          4.5259530452312902E-005
  0.14070000000000005         -3.2097290386445820E-005
  0.14180000000000004         -6.4221021602861583E-005
  0.14290000000000003         -1.8954468714582617E-006
  0.14400000000000002          6.1731356254313141E-005
  0.14510000000000001          3.2458567147841677E-005
  0.14620000000000000         -4.2775118345161900E-005
  0.14730000000000004         -5.0047437980538234E-005
  0.14840000000000003          1.7301221305388026E-005
  0.14950000000000002          5.2318726375233382E-005
  0.15060000000000001          2.4632470285723684E-006
  0.15170000000000000         -5.0242273573530838E-005
  0.15280000000000005         -1.9960003555752337E-005
  0.15390000000000004          4.7041863581398502E-005
  0.15500000000000003          4.3878208089154214E-005
  0.15610000000000002         -2.9279177397256717E-005
  0.15720000000000001         -6.2484054069500417E-005
  0.15830000000000000         -3.9174769881356042E-006
  0.15940000000000004          5.9940153732895851E-005
  0.16050000000000003          3.5210076021030545E-005
  0.16160000000000002         -3.8341677282005548E-005
  0.16270000000000001         -5.0476242904551327E-005
  0.16380000000000000          1.2075713129888754E-005
  0.16490000000000005          5.0279570132261142E-005
  0.16600000000000004          8.0341715147369541E-006
  0.16710000000000003         -4.4263393647270277E-005
  0.16820000000000002         -2.3329850591835566E-005
  0.16930000000000001          3.6776295019080862E-005
  0.17040000000000000          3.9592090615769848E-005
  0.17150000000000004         -2.1770183593616821E-005
  0.17260000000000003         -5.2946361392969266E-005
  0.17370000000000002         -4.3394575186539441E-006
  0.17480000000000001          5.1781753427349031E-005
  0.17590000000000000          3.1476072763325647E-005
  0.17700000000000005         -3.3691136195557192E-005
  0.17810000000000004         -4.6415600081672892E-005
  0.17920000000000003          8.7780481408117339E-006
  0.18030000000000002          4.5922668505227193E-005
  0.18140000000000001          1.1157354492752347E-005
  0.18250000000000000         -3.7981317291269079E-005
  0.18360000000000004         -2.5374760298291221E-005
  0.18470000000000003          2.6687286663218401E-005
  0.18580000000000002          3.5680524888448417E-005
  0.18690000000000001         -1.1883042134286370E-005
  0.18800000000000000         -4.1269897337770090E-005
  0.18910000000000005         -6.6080397118639667E-006
  0.19020000000000004          3.8963862607488409E-005
  0.19130000000000003          2.6276991775375791E-005
  0.19240000000000002         -2.4444139853585511E-005
  0.19350000000000001         -3.6770950828213245E-005
  0.19460000000000005          5.1004667511733714E-006
  0.19570000000000004          3.5509696317603812E-005
  0.19680000000000003          9.9292310551390983E-006
  0.19790000000000002         -2.9199718483141623E-005
  0.19900000000000001         -2.1204119548201561E-005
  0.20010000000000000          1.9844625057885423E-005
  0.20120000000000005          2.9899027140345424E-005
  0.20230000000000004         -5.5713094297971111E-006
  0.20340000000000003         -3.1542993383482099E-005
  0.20450000000000002         -9.5071509349509142E-006
  0.20560000000000000          2.5291032216046005E-005
  0.20670000000000005          2.0367790057207458E-005
  0.20780000000000004         -1.4584707059839275E-005
  0.20890000000000003         -2.5883371563395485E-005
