 -0.12000000000000000          0.0000000000000000
 -0.11889999999999999          0.0000000000000000
 -0.11780000000000000          0.0000000000000000
 -0.11670000000000000          1.2546758770826116E-011
 -0.11559999999999999          1.3697731317263706E-011
 -0.11449999999999999         -3.8519867850972389E-011
 -0.11340000000000000         -6.0436995685808625E-011
 -0.11230000000000000          8.1728110390422160E-011
 -0.11119999999999999          2.1664800509135773E-010
 -0.11009999999999999         -3.4040520402456309E-011
 -0.10900000000000000         -4.8208020908546700E-010
 -0.10790000000000000         -2.7206739638963029E-010
 -0.10679999999999999          7.1667333179092907E-010
 -0.10569999999999999          1.0246075099473728E-009
 -0.10460000000000000         -4.2161327207246302E-010
 -0.10349999999999999         -1.8818469005310590E-009
 -0.10239999999999999         -6.0493343667644695E-010
 -0.10130000000000000          2.4258637321139531E-009
 -0.10020000000000000          2.5024646799209904E-009
  -9.9099999999999994E-002    -1.8537349433245254E-009
  -9.7999999999999990E-002    -4.8300936583700604E-009
  -9.6899999999999986E-002    -6.5601296617145977E-010
  -9.5799999999999996E-002     6.4044045622324575E-009
  -9.4699999999999993E-002     5.8165876559712615E-009
  -9.3599999999999989E-002    -3.7803609131970006E-009
  -9.2499999999999999E-002    -9.8755217337043177E-009
  -9.1399999999999995E-002    -2.5646735846152069E-009
  -9.0299999999999991E-002     9.5434895541757214E-009
  -8.9200000000000002E-002     9.3253706978657647E-009
  -8.8099999999999984E-002    -4.2171088843190319E-009
  -8.6999999999999994E-002    -1.2694439277538550E-008
  -8.5899999999999990E-002    -3.9121101913508483E-009
  -8.4799999999999986E-002     9.9854222668227521E-009
  -8.3699999999999997E-002     9.7386685382616633E-009
  -8.2599999999999993E-002    -2.9505253795747421E-009
  -8.1499999999999989E-002    -8.7989979746794234E-009
  -8.0399999999999999E-002    -8.1144507779740138E-010
  -7.9299999999999995E-002     5.8461280261212778E-009
  -7.8199999999999992E-002    -3.1210903306266857E-010
  -7.7100000000000002E-002    -7.3377419695930257E-009
  -7.5999999999999984E-002     3.1674864554159798E-012
  -7.4899999999999994E-002     1.1607330208107669E-008
  -7.3799999999999991E-002     4.7740180697530832E-009
  -7.2699999999999987E-002    -1.6707955907691030E-008
  -7.1599999999999997E-002    -2.0919548759934514E-008
  -7.0499999999999993E-002     5.0187098921128381E-009
  -6.9399999999999989E-002     2.8316048172882802E-008
  -6.8300000000000000E-002     1.2550323447158007E-008
  -6.7199999999999996E-002    -2.6888070436825728E-008
  -6.6099999999999992E-002    -3.8678408031955769E-008
  -6.5000000000000002E-002    -6.8551369025726672E-009
  -6.3899999999999985E-002     2.4601028769666300E-008
  -6.2799999999999995E-002     1.2652989767047984E-008
  -6.1699999999999991E-002    -2.5253639179823040E-008
  -6.0599999999999994E-002    -3.9294992149052632E-008
  -5.9499999999999990E-002    -1.9398857631358624E-008
  -5.8399999999999994E-002    -3.7799625651757651E-009
  -5.7299999999999990E-002    -1.5911945538960026E-008
  -5.6199999999999986E-002    -3.1371094166843250E-008
  -5.5099999999999996E-002    -2.4942425014273795E-008
  -5.3999999999999992E-002    -1.7670023666482848E-008
  -5.2899999999999989E-002    -4.2288789359190559E-008
  -5.1799999999999985E-002    -8.0368245392037352E-008
  -5.0699999999999995E-002    -7.9865834834436100E-008
  -4.9599999999999991E-002    -3.7826531240625627E-008
  -4.8499999999999988E-002    -1.9334242651325440E-008
  -4.7399999999999998E-002    -6.9026619087253493E-008
  -4.6299999999999994E-002    -1.3945614796284644E-007
  -4.5199999999999990E-002    -1.5010529352821322E-007
  -4.4099999999999986E-002    -1.0022376528695531E-007
  -4.2999999999999997E-002    -7.1628960540692788E-008
  -4.1899999999999993E-002    -1.1481756700959522E-007
  -4.0799999999999989E-002    -1.8240602628338820E-007
  -3.9699999999999985E-002    -2.0380555554311286E-007
  -3.8599999999999995E-002    -1.8461716422280006E-007
  -3.7499999999999992E-002    -1.8539435586717445E-007
  -3.6399999999999988E-002    -2.2213960448880243E-007
  -3.5299999999999984E-002    -2.4808218768157531E-007
  -3.4199999999999994E-002    -2.3942277493915753E-007
  -3.3099999999999991E-002    -2.4102789097923960E-007
  -3.1999999999999987E-002    -2.9296072057150013E-007
  -3.0899999999999997E-002    -3.5235132145317039E-007
  -2.9799999999999993E-002    -3.4702009088505292E-007
  -2.8699999999999989E-002    -2.9066583806525159E-007
  -2.7599999999999986E-002    -2.7511410394254199E-007
  -2.6499999999999996E-002    -3.4223225497953536E-007
  -2.5399999999999992E-002    -4.1563438912817219E-007
  -2.4299999999999988E-002    -4.0557796410212177E-007
  -2.3199999999999985E-002    -3.3558626455487683E-007
  -2.2099999999999995E-002    -3.0267491979429906E-007
  -2.0999999999999991E-002    -3.3746187000360806E-007
  -1.9899999999999987E-002    -3.6665525726675696E-007
  -1.8799999999999983E-002    -3.3259490805903624E-007
  -1.7699999999999994E-002    -2.7417283376962587E-007
  -1.6599999999999990E-002    -2.5789211122173583E-007
  -1.5499999999999986E-002    -2.6231694505440828E-007
  -1.4399999999999996E-002    -2.1656516935308900E-007
  -1.3299999999999992E-002    -1.2116021252950304E-007
  -1.2199999999999989E-002    -5.4208491917506763E-008
  -1.1099999999999985E-002    -5.2535167327505405E-008
  -9.9999999999999950E-003    -4.6219497562560719E-008
  -8.8999999999999913E-003     4.3425711027111902E-008
  -7.7999999999999875E-003     1.8325084738535224E-007
  -6.6999999999999837E-003     2.7374750288799987E-007
  -5.5999999999999939E-003     2.9017428460065275E-007
  -4.4999999999999901E-003     3.1779154596733861E-007
  -3.3999999999999864E-003     4.1801351358117245E-007
  -2.2999999999999826E-003     5.4542533689527772E-007
  -1.1999999999999927E-003     6.2250859400592162E-007
  -9.9999999999988987E-005     6.5575477492529899E-007
   1.0000000000000148E-003     7.1668529244561796E-007
   2.1000000000000185E-003     8.1921285755015560E-007
   3.2000000000000084E-003     9.0047848289032117E-007
   4.3000000000000121E-003     9.1654231937354780E-007
   5.4000000000000159E-003     9.2162150622243644E-007
   6.5000000000000058E-003     9.8285579497314757E-007
   7.6000000000000234E-003     1.0667175729395240E-006
   8.7000000000000133E-003     1.0901514997385675E-006
   9.8000000000000032E-003     1.0414161124572274E-006
   1.0900000000000021E-002     9.9813132692361251E-007
   1.2000000000000011E-002     1.0120156730408780E-006
   1.3100000000000001E-002     1.0345820555812679E-006
   1.4200000000000018E-002     9.9071257864125073E-007
   1.5300000000000008E-002     8.9298691818839870E-007
   1.6400000000000026E-002     8.1372070326324319E-007
   1.7500000000000016E-002     7.7555733923873049E-007
   1.8600000000000005E-002     7.2042763576973812E-007
   1.9700000000000023E-002     6.0710038951583556E-007
   2.0800000000000013E-002     4.7447863948946178E-007
   2.1900000000000003E-002     3.7944323594274465E-007
   2.3000000000000020E-002     3.0785813009970298E-007
   2.4100000000000010E-002     2.0244891629772610E-007
   2.5200000000000000E-002     5.5872998672157337E-008
   2.6300000000000018E-002    -7.5913710873010132E-008
   2.7400000000000008E-002    -1.5898304184247536E-007
   2.8500000000000025E-002    -2.3322510855905421E-007
   2.9600000000000015E-002    -3.4575862173369387E-007
   3.0700000000000005E-002    -4.7617160703339323E-007
   3.1800000000000023E-002    -5.7011448006960563E-007
   3.2900000000000013E-002    -6.1879751456217491E-007
   3.4000000000000002E-002    -6.6836912537837634E-007
   3.5100000000000020E-002    -7.4545562256389530E-007
   3.6200000000000010E-002    -8.1854057043528883E-007
   3.7300000000000028E-002    -8.4929337162975571E-007
   3.8400000000000017E-002    -8.4651043152916827E-007
   3.9500000000000007E-002    -8.5235581082088174E-007
   4.0600000000000025E-002    -8.7363497414116864E-007
   4.1700000000000015E-002    -8.7359109102180810E-007
   4.2800000000000005E-002    -8.3631414327101083E-007
   4.3900000000000022E-002    -7.9387376672457322E-007
   4.5000000000000012E-002    -7.6945042337683844E-007
   4.6100000000000002E-002    -7.4056231369468151E-007
   4.7200000000000020E-002    -6.8465624281088822E-007
   4.8300000000000010E-002    -6.0293609749351162E-007
   4.9400000000000027E-002    -5.3297071644919924E-007
   5.0500000000000017E-002    -4.8407196118205320E-007
   5.1600000000000007E-002    -4.2508148112574418E-007
   5.2700000000000025E-002    -3.4799700188159477E-007
   5.3800000000000014E-002    -2.7293941684547463E-007
   5.4900000000000004E-002    -2.1531181459977233E-007
   5.6000000000000022E-002    -1.5610380899033771E-007
   5.7100000000000012E-002    -8.3326256117288722E-008
   5.8200000000000002E-002    -1.4782487234299424E-008
   5.9300000000000019E-002     2.4302313050839075E-008
   6.0400000000000009E-002     4.8236426408720945E-008
   6.1500000000000027E-002     9.1976417593286897E-008
   6.2600000000000017E-002     1.5427922051003407E-007
   6.3700000000000007E-002     1.9918552141007240E-007
   6.4800000000000024E-002     2.0853853754942975E-007
   6.5900000000000014E-002     2.0923094723457325E-007
   6.7000000000000004E-002     2.2936806942652765E-007
   6.8100000000000022E-002     2.5381038426530722E-007
   6.9200000000000012E-002     2.5100166567426641E-007
   7.0300000000000029E-002     2.2906867513938778E-007
   7.1400000000000019E-002     2.2679479627640831E-007
   7.2500000000000009E-002     2.4790065822344332E-007
   7.3600000000000027E-002     2.4792376507321023E-007
   7.4700000000000016E-002     2.0393518695982493E-007
   7.5800000000000006E-002     1.5863081159750436E-007
   7.6900000000000024E-002     1.6070484321062395E-007
   7.8000000000000014E-002     1.8880434993207018E-007
   7.9100000000000004E-002     1.7860732270946755E-007
   8.0200000000000021E-002     1.2058332288233942E-007
   8.1300000000000011E-002     7.5071461935749539E-008
   8.2400000000000029E-002     7.8712460549468233E-008
   8.3500000000000019E-002     8.9767894451142638E-008
   8.4600000000000009E-002     5.8012112447158870E-008
   8.5700000000000026E-002     1.1063892912943629E-008
   8.6800000000000016E-002     1.1482449657762572E-008
   8.7900000000000006E-002     4.9128086487826295E-008
   8.9000000000000024E-002     4.7915559520106399E-008
   9.0100000000000013E-002    -1.7386442507927313E-008
   9.1200000000000003E-002    -7.1684780778014101E-008
   9.2300000000000021E-002    -4.5129375791930215E-008
   9.3400000000000011E-002     1.9805604267730814E-008
   9.4500000000000028E-002     2.3187279651892823E-008
   9.5600000000000018E-002    -4.4587707748178218E-008
   9.6700000000000008E-002    -8.8873733261607413E-008
   9.7800000000000026E-002    -5.4228511459086803E-008
   9.8900000000000016E-002    -3.2885356660017351E-009
  0.10000000000000001         -1.5111796258793220E-008
  0.10110000000000002         -6.0833713177999016E-008
  0.10220000000000001         -5.6571160200746817E-008
  0.10330000000000003         -4.1958885255155565E-009
  0.10440000000000002          6.8754091309131127E-009
  0.10550000000000001         -5.2982006337742860E-008
  0.10660000000000003         -9.4126882288492197E-008
  0.10770000000000002         -4.0543305601659085E-008
  0.10880000000000001          4.5027849893131133E-008
  0.10990000000000003          4.2034059788420564E-008
  0.11100000000000002         -4.6423352273450291E-008
  0.11210000000000001         -9.3619121344090672E-008
  0.11320000000000002         -3.3509035546330779E-008
  0.11430000000000001          4.4028727330669426E-008
  0.11540000000000003          3.0620270763392909E-008
  0.11650000000000002         -3.9943522267549270E-008
  0.11760000000000001         -5.1937036005256232E-008
  0.11870000000000003          1.0238457193167960E-008
  0.11980000000000002          4.1830666930309235E-008
  0.12090000000000001         -1.1453281878459620E-008
  0.12200000000000003         -6.2958591229289596E-008
  0.12310000000000001         -2.0830528413284810E-008
  0.12420000000000003          6.0583232652788865E-008
  0.12530000000000002          5.7374563766643405E-008
  0.12640000000000001         -3.2189870324828007E-008
  0.12750000000000003         -7.7890760508125823E-008
  0.12860000000000002         -1.1876487349127274E-008
  0.12970000000000001          6.7687146554362698E-008
  0.13080000000000003          4.4753811323516857E-008
  0.13190000000000002         -4.0027742898018914E-008
  0.13300000000000001         -5.5240533924916235E-008
  0.13410000000000000          1.8347112273886523E-008
  0.13520000000000004          6.1335803991369175E-008
  0.13630000000000003          4.3808698890757114E-009
  0.13740000000000002         -6.2012958323975909E-008
  0.13850000000000001         -2.9113826016669009E-008
  0.13960000000000000          5.7577057788193997E-008
  0.14070000000000005          6.4282616563104966E-008
  0.14180000000000004         -2.4415756527673693E-008
  0.14290000000000003         -7.8513501478028047E-008
  0.14400000000000002         -1.8308536908762107E-008
  0.14510000000000001          6.5300341134388873E-008
  0.14620000000000000          4.9791282208389021E-008
  0.14730000000000004         -3.4842930318745857E-008
  0.14840000000000003         -5.7962772359587689E-008
  0.14950000000000002          9.7608410243310573E-009
  0.15060000000000001          5.6252396518630121E-008
  0.15170000000000000          7.5880004501982512E-009
  0.15280000000000005         -5.6247014157406738E-008
  0.15390000000000004         -2.8926313788701918E-008
  0.15500000000000003          5.1862055983065147E-008
  0.15610000000000002          5.9401592977792461E-008
  0.15720000000000001         -2.4632520023715188E-008
  0.15830000000000000         -7.7149863386694051E-008
  0.15940000000000004         -1.8450352357035626E-008
  0.16050000000000003          6.6167636703085009E-008
  0.16160000000000002          5.4411749772498297E-008
  0.16270000000000001         -3.1361192753820433E-008
  0.16380000000000000         -6.2905350262099091E-008
  0.16490000000000005         -5.2776100156748385E-010
  0.16600000000000004          5.4013916894746217E-008
  0.16710000000000003          1.9657706573639189E-008
  0.16820000000000002         -4.2261380173158614E-008
  0.16930000000000001         -3.0560649122435279E-008
  0.17040000000000000          3.5350662841437952E-008
  0.17150000000000004          4.7849198381300084E-008
  0.17260000000000003         -1.7536608609702853E-008
  0.17370000000000002         -6.1244996629739035E-008
  0.17480000000000001         -1.3178552471515559E-008
  0.17590000000000000          5.7220002958047189E-008
  0.17700000000000005          4.5135450932320964E-008
  0.17810000000000004         -3.1248216458834577E-008
  0.17920000000000003         -5.9536116481240242E-008
  0.18030000000000002         -2.3678083937994643E-009
  0.18140000000000001          5.1231666020612465E-008
  0.18250000000000000          2.4362487138773758E-008
  0.18360000000000004         -3.5256864094890261E-008
  0.18470000000000003         -3.5382587526555653E-008
  0.18580000000000002          1.8421863146045325E-008
  0.18690000000000001          3.7716773704232764E-008
  0.18800000000000000         -7.4581993914080158E-009
  0.18910000000000005         -4.3437353269837331E-008
  0.19020000000000004         -1.0657785765033623E-008
  0.19130000000000003          4.2481548945261238E-008
  0.19240000000000002          3.4451623776021734E-008
  0.19350000000000001         -2.3698644824321491E-008
  0.19460000000000005         -4.5461547415470704E-008
  0.19570000000000004         -9.6808665250858184E-011
  0.19680000000000003          4.3432248020280895E-008
  0.19790000000000002          2.2492313789257423E-008
  0.19900000000000001         -2.7777376843118873E-008
  0.20010000000000000         -3.3057894199828297E-008
  0.20120000000000005          8.2925497579822149E-009
  0.20230000000000004          2.9819972269251593E-008
  0.20340000000000003          2.5503255063341612E-009
  0.20450000000000002         -2.4646194418664891E-008
  0.20560000000000000         -6.7758287869423839E-009
  0.20670000000000005          2.6569388467123645E-008
  0.20780000000000004          2.0122433497249403E-008
  0.20890000000000003         -1.8989288363968626E-008
