 -0.12000000000000000          0.0000000000000000     
 -0.11889999999999999          0.0000000000000000     
 -0.11780000000000000          0.0000000000000000     
 -0.11670000000000000          0.0000000000000000     
 -0.11559999999999999          0.0000000000000000     
 -0.11449999999999999          0.0000000000000000     
 -0.11340000000000000          3.7333332904071134E-015
 -0.11230000000000000         -5.2391147721693974E-015
 -0.11119999999999999         -3.3520241297284661E-014
 -0.11009999999999999          3.2159591287737876E-014
 -0.10900000000000000          1.4327482342896269E-013
 -0.10790000000000000         -1.5196447344847236E-013
 -0.10679999999999999         -3.2490785235872455E-013
 -0.10569999999999999          1.2175888552609648E-012
 -0.10460000000000000          1.2988460133811497E-012
 -0.10349999999999999         -7.2000695336416065E-012
 -0.10239999999999999         -1.2619194751650742E-011
 -0.10130000000000000          1.8466891210655589E-011
 -0.10020000000000000          6.7603270204052990E-011
  -9.9099999999999994E-002     1.8233045281923488E-011
  -9.7999999999999990E-002    -1.6871842811738702E-010
  -9.6899999999999986E-002    -2.3723317754686946E-010
  -9.5799999999999996E-002     8.9115298473885218E-011
  -9.4699999999999993E-002     5.0614695767947637E-010
  -9.3599999999999989E-002     3.7834343991072217E-010
  -9.2499999999999999E-002    -7.5518084841075250E-011
  -9.1399999999999995E-002     4.1879198026117948E-011
  -9.0299999999999991E-002    -3.2150067330594112E-011
  -8.9200000000000002E-002    -2.6504538563898450E-009
  -8.8099999999999984E-002    -6.0058358286596558E-009
  -8.6999999999999994E-002    -1.3967901280054207E-009
  -8.5899999999999990E-002     1.4788883895278104E-008
  -8.4799999999999986E-002     2.5754621546525414E-008
  -8.3699999999999997E-002     6.6298277978660280E-009
  -8.2599999999999993E-002    -3.6520649615567891E-008
  -8.1499999999999989E-002    -5.7627151051065084E-008
  -8.0399999999999999E-002    -2.6412399378727969E-008
  -7.9299999999999995E-002     2.2333031424182082E-008
  -7.8199999999999992E-002     4.1578417153687042E-008
  -7.7100000000000002E-002     6.3671642180906929E-008
  -7.5999999999999984E-002     1.4729280906067288E-007
  -7.4899999999999994E-002     1.9699429287811654E-007
  -7.3799999999999991E-002    -2.0897159558330713E-008
  -7.2699999999999987E-002    -5.1091825525872991E-007
  -7.1599999999999997E-002    -7.9450580869888654E-007
  -7.0499999999999993E-002    -3.4839018780985498E-007
  -6.9399999999999989E-002     6.1628082903553150E-007
  -6.8300000000000000E-002     1.1884603736689314E-006
  -6.7199999999999996E-002     8.7752971467125462E-007
  -6.6099999999999992E-002     3.2737898436607793E-007
  -6.5000000000000002E-002     2.8893941816932056E-007
  -6.3899999999999985E-002     1.3261070819226006E-007
  -6.2799999999999995E-002    -1.4620601405113121E-006
  -6.1699999999999991E-002    -3.9155388549261261E-006
  -6.0599999999999994E-002    -4.2238812056893948E-006
  -5.9499999999999990E-002    -5.7086322158284020E-007
  -5.8399999999999994E-002     4.2886367737082765E-006
  -5.7299999999999990E-002     5.6677226893953048E-006
  -5.6199999999999986E-002     3.3839201023511123E-006
  -5.5099999999999996E-002     2.6299810542695923E-006
  -5.3999999999999992E-002     6.1273658502614126E-006
  -5.2899999999999989E-002     7.9302844824269414E-006
  -5.1799999999999985E-002    -2.1664529015197331E-007
  -5.0699999999999995E-002    -1.6294774468406104E-005
  -4.9599999999999991E-002    -2.7285434043733403E-005
  -4.8499999999999988E-002    -2.4141843823599629E-005
  -4.7399999999999998E-002    -1.2703183529083617E-005
  -4.6299999999999994E-002    -3.5877615118806716E-006
  -4.5199999999999990E-002     5.6161534303100780E-006
  -4.4099999999999986E-002     2.7780064556282014E-005
  -4.2999999999999997E-002     6.2786108173895627E-005
  -4.1899999999999993E-002     8.6703046690672636E-005
  -4.0799999999999989E-002     7.4396106356289238E-005
  -3.9699999999999985E-002     2.8585935069713742E-005
  -3.8599999999999995E-002    -2.5379193175467663E-005
  -3.7499999999999992E-002    -7.3121453169733286E-005
  -3.6399999999999988E-002    -1.2463757593650371E-004
  -3.5299999999999984E-002    -1.8645127420313656E-004
  -3.4199999999999994E-002    -2.3336593585554510E-004
  -3.3099999999999991E-002    -2.2416851425077766E-004
  -3.1999999999999987E-002    -1.4123786240816116E-004
  -3.0899999999999997E-002     1.8914588508778252E-006
  -2.9799999999999993E-002     1.9039721519220620E-004
  -2.8699999999999989E-002     4.2089048656634986E-004
  -2.7599999999999986E-002     6.7195791052654386E-004
  -2.6499999999999996E-002     8.8486488675698638E-004
  -2.5399999999999992E-002     1.0035801678895950E-003
  -2.4299999999999988E-002     1.0293002706021070E-003
  -2.3199999999999985E-002     1.0064601665362716E-003
  -2.2099999999999995E-002     9.5362536376342177E-004
  -2.0999999999999991E-002     8.4789725951850414E-004
  -1.9899999999999987E-002     7.0377369411289692E-004
  -1.8799999999999983E-002     6.3457578653469682E-004
  -1.7699999999999994E-002     7.8356981975957751E-004
  -1.6599999999999990E-002     1.1934589128941298E-003
  -1.5499999999999986E-002     1.7907529836520553E-003
  -1.4399999999999996E-002     2.5123851373791695E-003
  -1.3299999999999992E-002     3.3940102439373732E-003
  -1.2199999999999989E-002     4.4889473356306553E-003
  -1.1099999999999985E-002     5.7372241280972958E-003
  -9.9999999999999950E-003     6.9985343143343925E-003
  -8.8999999999999913E-003     8.2271443679928780E-003
  -7.7999999999999875E-003     9.5555642619729042E-003
  -6.6999999999999837E-003     1.1164450086653233E-002
  -5.5999999999999939E-003     1.3121169991791248E-002
  -4.4999999999999901E-003     1.5408033505082130E-002
  -3.3999999999999864E-003     1.8075061962008476E-002
  -2.2999999999999826E-003     2.1270198747515678E-002
  -1.1999999999999927E-003     2.5113446637988091E-002
  -9.9999999999988987E-005     2.9618730768561363E-002
   1.0000000000000148E-003     3.4785889089107513E-002
   2.1000000000000185E-003     4.0691185742616653E-002
   3.2000000000000084E-003     4.7413736581802368E-002
   4.3000000000000121E-003     5.4913915693759918E-002
   5.4000000000000159E-003     6.3119463622570038E-002
   6.5000000000000058E-003     7.2122342884540558E-002
   7.6000000000000234E-003     8.2213945686817169E-002
   8.7000000000000133E-003     9.3557745218276978E-002
   9.8000000000000032E-003    0.10604780167341232     
   1.0900000000000021E-002    0.11948518455028534     
   1.2000000000000011E-002    0.13391070067882538     
   1.3100000000000001E-002    0.14966434240341187     
   1.4200000000000018E-002    0.16695882380008698     
   1.5300000000000008E-002    0.18560643494129181     
   1.6400000000000026E-002    0.20520441234111786     
   1.7500000000000016E-002    0.22549122571945190     
   1.8600000000000005E-002    0.24645361304283142     
   1.9700000000000023E-002    0.26794940233230591     
   2.0800000000000013E-002    0.28954648971557617     
   2.1900000000000003E-002    0.31085339188575745     
   2.3000000000000020E-002    0.33159032464027405     
   2.4100000000000010E-002    0.35155385732650757     
   2.5200000000000000E-002    0.37028241157531738     
   2.6300000000000018E-002    0.38706967234611511     
   2.7400000000000008E-002    0.40144777297973633     
   2.8500000000000025E-002    0.41286638379096985     
   2.9600000000000015E-002    0.42054012417793274     
   3.0700000000000005E-002    0.42318826913833618     
   3.1800000000000023E-002    0.42004424333572388     
   3.2900000000000013E-002    0.41018733382225037     
   3.4000000000000002E-002    0.39303636550903320     
   3.5100000000000020E-002    0.36749377846717834     
   3.6200000000000010E-002    0.33309847116470337     
   3.7300000000000028E-002    0.28894984722137451     
   3.8400000000000017E-002    0.23464491963386536     
   3.9500000000000007E-002    0.16944305598735809     
   4.0600000000000025E-002     9.3114048242568970E-002
   4.1700000000000015E-002     5.0663235597312450E-003
   4.2800000000000005E-002    -9.4909302890300751E-002
   4.3900000000000022E-002   -0.20700557529926300     
   4.5000000000000012E-002   -0.33082833886146545     
   4.6100000000000002E-002   -0.46530839800834656     
   4.7200000000000020E-002   -0.61012732982635498     
   4.8300000000000010E-002   -0.76411998271942139     
   4.9400000000000027E-002   -0.92554712295532227     
   5.0500000000000017E-002    -1.0928366184234619     
   5.1600000000000007E-002    -1.2634600400924683     
   5.2700000000000025E-002    -1.4347836971282959     
   5.3800000000000014E-002    -1.6045200824737549     
   5.4900000000000004E-002    -1.7715666294097900     
   5.6000000000000022E-002    -1.9306204319000244     
   5.7100000000000012E-002    -2.0764706134796143     
   5.8200000000000002E-002    -2.2102162837982178     
   5.9300000000000019E-002    -2.3262386322021484     
   6.0400000000000009E-002    -2.4216239452362061     
   6.1500000000000027E-002    -2.4914662837982178     
   6.2600000000000017E-002    -2.5322635173797607     
   6.3700000000000007E-002    -2.5430207252502441     
   6.4800000000000024E-002    -2.5192017555236816     
   6.5900000000000014E-002    -2.4611811637878418     
   6.7000000000000004E-002    -2.3647322654724121     
   6.8100000000000022E-002    -2.2292628288269043     
   6.9200000000000012E-002    -2.0545239448547363     
   7.0300000000000029E-002    -1.8374887704849243     
   7.1400000000000019E-002    -1.5818405151367188     
   7.2500000000000009E-002    -1.2905896902084351     
   7.3600000000000027E-002   -0.96516853570938110     
   7.4700000000000016E-002   -0.60838890075683594     
   7.5800000000000006E-002   -0.22568243741989136     
   7.6900000000000024E-002    0.18182605504989624     
   7.8000000000000014E-002    0.61210572719573975     
   7.9100000000000004E-002     1.0544286966323853     
   8.0200000000000021E-002     1.4965438842773438     
   8.1300000000000011E-002     1.9328609704971313     
   8.2400000000000029E-002     2.3632745742797852     
   8.3500000000000019E-002     2.7859745025634766     
   8.4600000000000009E-002     3.1890828609466553     
   8.5700000000000026E-002     3.5579240322113037     
   8.6800000000000016E-002     3.8835642337799072     
   8.7900000000000006E-002     4.1647739410400391     
   8.9000000000000024E-002     4.4028759002685547     
   9.0100000000000013E-002     4.5937514305114746     
   9.1200000000000003E-002     4.7283110618591309     
   9.2300000000000021E-002     4.7987356185913086     
   9.3400000000000011E-002     4.8042030334472656     
   9.4500000000000028E-002     4.7463521957397461     
   9.5600000000000018E-002     4.6258101463317871     
   9.6700000000000008E-002     4.4448833465576172     
   9.7800000000000026E-002     4.2096595764160156     
   9.8900000000000016E-002     3.9190011024475098     
  0.10000000000000001          3.5732767581939697     
  0.10110000000000002          3.1756012439727783     
  0.10220000000000001          2.7372183799743652     
  0.10330000000000003          2.2700555324554443     
  0.10440000000000002          1.7854524850845337     
  0.10550000000000001          1.2876758575439453     
  0.10660000000000003         0.76929205656051636     
  0.10770000000000002         0.23918546736240387     
  0.10880000000000001        -0.28202676773071289     
  0.10990000000000003        -0.77814191579818726     
  0.11100000000000002         -1.2429114580154419     
  0.11210000000000001         -1.6876896619796753     
  0.11320000000000002         -2.1098492145538330     
  0.11430000000000001         -2.4935691356658936     
  0.11540000000000003         -2.8271899223327637     
  0.11650000000000002         -3.1071553230285645     
  0.11760000000000001         -3.3361628055572510     
  0.11870000000000003         -3.5158371925354004     
  0.11980000000000002         -3.6436836719512939     
  0.12090000000000001         -3.7233822345733643     
  0.12200000000000003         -3.7552042007446289     
  0.12310000000000001         -3.7359144687652588     
  0.12420000000000003         -3.6632158756256104     
  0.12530000000000002         -3.5403709411621094     
  0.12640000000000001         -3.3838407993316650     
  0.12750000000000003         -3.2038729190826416     
  0.12860000000000002         -3.0005557537078857     
  0.12970000000000001         -2.7656311988830566     
  0.13080000000000003         -2.4980428218841553     
  0.13190000000000002         -2.2120866775512695     
  0.13300000000000001         -1.9273618459701538     
  0.13410000000000000         -1.6481816768646240     
  0.13520000000000004         -1.3677304983139038     
  0.13630000000000003         -1.0821911096572876     
  0.13740000000000002        -0.80043238401412964     
  0.13850000000000001        -0.53568476438522339     
  0.13960000000000000        -0.29003325104713440     
  0.14070000000000005         -5.8323416858911514E-002
  0.14180000000000004         0.15720398724079132     
  0.14290000000000003         0.34760451316833496     
  0.14400000000000002         0.51172399520874023     
  0.14510000000000001         0.65872228145599365     
  0.14620000000000000         0.79322981834411621     
  0.14730000000000004         0.90514945983886719     
  0.14840000000000003         0.98468554019927979     
  0.14950000000000002          1.0371861457824707     
  0.15060000000000001          1.0776585340499878     
  0.15170000000000000          1.1106319427490234     
  0.15280000000000005          1.1253973245620728     
  0.15390000000000004          1.1137690544128418     
  0.15500000000000003          1.0867024660110474     
  0.15610000000000002          1.0592350959777832     
  0.15720000000000001          1.0298886299133301     
  0.15830000000000000         0.98363131284713745     
  0.15940000000000004         0.91831624507904053     
  0.16050000000000003         0.85103446245193481     
  0.16160000000000002         0.79580807685852051     
  0.16270000000000001         0.74461871385574341     
  0.16380000000000000         0.68063944578170776     
  0.16490000000000005         0.60341608524322510     
  0.16600000000000004         0.53233200311660767     
  0.16710000000000003         0.47727891802787781     
  0.16820000000000002         0.42672067880630493     
  0.16930000000000001         0.36787065863609314     
  0.17040000000000000         0.30661943554878235     
  0.17150000000000004         0.25827261805534363     
  0.17260000000000003         0.22214683890342712     
  0.17370000000000002         0.18229977786540985     
  0.17480000000000001         0.13392941653728485     
  0.17590000000000000          9.2744126915931702E-002
  0.17700000000000005          7.2526179254055023E-002
  0.17810000000000004          6.1777073889970779E-002
  0.17920000000000003          3.7643413990736008E-002
  0.18030000000000002          1.1389341671019793E-003
  0.18140000000000001         -2.3990951478481293E-002
  0.18250000000000000         -2.6623195037245750E-002
  0.18360000000000004         -2.3888699710369110E-002
  0.18470000000000003         -3.5793680697679520E-002
  0.18580000000000002         -5.5688742548227310E-002
  0.18690000000000001         -6.2420725822448730E-002
  0.18800000000000000         -5.3838040679693222E-002
  0.18910000000000005         -5.0609592348337173E-002
  0.19020000000000004         -6.3204303383827209E-002
  0.19130000000000003         -7.4776463210582733E-002
  0.19240000000000002         -6.6797778010368347E-002
  0.19350000000000001         -4.8983868211507797E-002
  0.19460000000000005         -4.6117570251226425E-002
  0.19570000000000004         -6.0631878674030304E-002
  0.19680000000000003         -6.8710148334503174E-002
  0.19790000000000002         -5.5576171725988388E-002
  0.19900000000000001         -3.7835668772459030E-002
  0.20010000000000000         -3.7264015525579453E-002
  0.20120000000000005         -4.8392325639724731E-002
  0.20230000000000004         -4.8635572195053101E-002
  0.20340000000000003         -3.4092281013727188E-002
  0.20450000000000002         -2.5345470756292343E-002
  0.20560000000000000         -3.4043382853269577E-002
  0.20670000000000005         -4.3264321982860565E-002
  0.20780000000000004         -3.3285666257143021E-002
  0.20890000000000003         -1.3730061240494251E-002
