 -0.12000000000000000          0.0000000000000000     
 -0.11889999999999999          0.0000000000000000     
 -0.11780000000000000          0.0000000000000000     
 -0.11670000000000000          0.0000000000000000     
 -0.11559999999999999          0.0000000000000000     
 -0.11449999999999999          0.0000000000000000     
 -0.11340000000000000         -5.0400041778919658E-011
 -0.11230000000000000          6.1749230728658233E-011
 -0.11119999999999999          4.5327128161964936E-010
 -0.11009999999999999         -3.4988217878506589E-010
 -0.10900000000000000         -1.9119192895544757E-009
 -0.10790000000000000          1.7202750335343353E-009
 -0.10679999999999999          4.5018269112517828E-009
 -0.10569999999999999         -1.5300422262498614E-008
 -0.10460000000000000         -2.0413299495203319E-008
 -0.10349999999999999          8.7564664852379792E-008
 -0.10239999999999999          1.8019845526850986E-007
 -0.10130000000000000         -1.8741263829724630E-007
 -0.10020000000000000         -8.7553388539163279E-007
  -9.9099999999999994E-002    -4.2462670535314828E-007
  -9.7999999999999990E-002     1.9266897197667276E-006
  -9.6899999999999986E-002     3.2367904623242794E-006
  -9.5799999999999996E-002    -3.3880974115163554E-007
  -9.4699999999999993E-002    -5.8439982240088284E-006
  -9.3599999999999989E-002    -5.2812638386967592E-006
  -9.2499999999999999E-002    -1.9170643383858987E-007
  -9.1399999999999995E-002    -1.8451584082868067E-006
  -9.0299999999999991E-002    -2.6707300548878266E-006
  -8.9200000000000002E-002     2.8631595341721550E-005
  -8.8099999999999984E-002     7.8958364611025900E-005
  -8.6999999999999994E-002     4.2796586058102548E-005
  -8.5899999999999990E-002    -1.4914677012711763E-004
  -8.4799999999999986E-002    -3.2458433997817338E-004
  -8.3699999999999997E-002    -1.6476234304718673E-004
  -8.2599999999999993E-002     3.3557356800884008E-004
  -8.1499999999999989E-002     6.7431660136207938E-004
  -8.0399999999999999E-002     4.2978354031220078E-004
  -7.9299999999999995E-002    -8.2553939137142152E-005
  -7.8199999999999992E-002    -2.9874112806282938E-004
  -7.7100000000000002E-002    -5.4656784050166607E-004
  -7.5999999999999984E-002    -1.6551497392356396E-003
  -7.4899999999999994E-002    -2.7830703184008598E-003
  -7.3799999999999991E-002    -1.0521232616156340E-003
  -7.2699999999999987E-002     4.4935764744877815E-003
  -7.1599999999999997E-002     9.1465143486857414E-003
  -7.0499999999999993E-002     6.3053136691451073E-003
  -6.9399999999999989E-002    -3.4620615188032389E-003
  -6.8300000000000000E-002    -1.0884708724915981E-002
  -6.7199999999999996E-002    -9.4780456274747849E-003
  -6.6099999999999992E-002    -5.2102589979767799E-003
  -6.5000000000000002E-002    -7.1801538579165936E-003
  -6.3899999999999985E-002    -9.6179414540529251E-003
  -6.2799999999999995E-002     4.5374687761068344E-003
  -6.1699999999999991E-002     3.5034582018852234E-002
  -6.0599999999999994E-002     5.1643263548612595E-002
  -5.9499999999999990E-002     2.7876717969775200E-002
  -5.8399999999999994E-002    -1.7235552892088890E-002
  -5.7299999999999990E-002    -3.6459300667047501E-002
  -5.6199999999999986E-002    -2.1838732063770294E-002
  -5.5099999999999996E-002    -2.5898382067680359E-002
  -5.3999999999999992E-002    -8.5925176739692688E-002
  -5.2899999999999989E-002   -0.14581152796745300     
  -5.1799999999999985E-002   -0.10320702940225601     
  -5.0699999999999995E-002     5.5662408471107483E-002
  -4.9599999999999991E-002    0.21879301965236664     
  -4.8499999999999988E-002    0.28160613775253296     
  -4.7399999999999998E-002    0.27288851141929626     
  -4.6299999999999994E-002    0.27942359447479248     
  -4.5199999999999990E-002    0.26516082882881165     
  -4.4099999999999986E-002     6.9869831204414368E-002
  -4.2999999999999997E-002   -0.36275538802146912     
  -4.1899999999999993E-002   -0.83790081739425659     
  -4.0799999999999989E-002    -1.0858993530273438     
  -3.9699999999999985E-002    -1.0451478958129883     
  -3.8599999999999995E-002   -0.84874612092971802     
  -3.7499999999999992E-002   -0.52859282493591309     
  -3.6399999999999988E-002    0.10935215651988983     
  -3.5299999999999984E-002     1.2088246345520020     
  -3.4199999999999994E-002     2.5600728988647461     
  -3.3099999999999991E-002     3.7126305103302002     
  -3.1999999999999987E-002     4.3307909965515137     
  -3.0899999999999997E-002     4.2512483596801758     
  -2.9799999999999993E-002     3.1980891227722168     
  -2.8699999999999989E-002    0.71900367736816406     
  -2.7599999999999986E-002    -3.4011909961700439     
  -2.6499999999999996E-002    -8.8299036026000977     
  -2.5399999999999992E-002    -15.053004264831543     
  -2.4299999999999988E-002    -21.975772857666016     
  -2.3199999999999985E-002    -29.821804046630859     
  -2.2099999999999995E-002    -38.386447906494141     
  -2.0999999999999991E-002    -46.829433441162109     
  -1.9899999999999987E-002    -54.606571197509766     
  -1.8799999999999983E-002    -62.441623687744141     
  -1.7699999999999994E-002    -71.946281433105469     
  -1.6599999999999990E-002    -84.317146301269531     
  -1.5499999999999986E-002    -99.914062500000000     
  -1.4399999999999996E-002    -119.32918548583984     
  -1.3299999999999992E-002    -144.33174133300781     
  -1.2199999999999989E-002    -177.18080139160156     
  -1.1099999999999985E-002    -219.21177673339844     
  -9.9999999999999950E-003    -270.78649902343750     
  -8.8999999999999913E-003    -332.74826049804688     
  -7.7999999999999875E-003    -407.32580566406250     
  -6.6999999999999837E-003    -497.22454833984375     
  -5.5999999999999939E-003    -604.44891357421875     
  -4.4999999999999901E-003    -730.77880859375000     
  -3.3999999999999864E-003    -879.16857910156250     
  -2.2999999999999826E-003    -1053.8901367187500     
  -1.1999999999999927E-003    -1259.2760009765625     
  -9.9999999999988987E-005    -1499.2377929687500     
   1.0000000000000148E-003    -1778.5849609375000     
   2.1000000000000185E-003    -2104.0104980468750     
   3.2000000000000084E-003    -2482.9211425781250     
   4.3000000000000121E-003    -2921.5925292968750     
   5.4000000000000159E-003    -3425.8039550781250     
   6.5000000000000058E-003    -4003.3718261718750     
   7.6000000000000234E-003    -4665.0761718750000     
   8.7000000000000133E-003    -5421.6396484375000     
   9.8000000000000032E-003    -6280.9570312500000     
   1.0900000000000021E-002    -7249.3115234375000     
   1.2000000000000011E-002    -8335.0292968750000     
   1.3100000000000001E-002    -9550.0136718750000     
   1.4200000000000018E-002    -10906.411132812500     
   1.5300000000000008E-002    -12413.613281250000     
   1.6400000000000026E-002    -14077.958007812500     
   1.7500000000000016E-002    -15906.831054687500     
   1.8600000000000005E-002    -17907.685546875000     
   1.9700000000000023E-002    -20085.773437500000     
   2.0800000000000013E-002    -22442.533203125000     
   2.1900000000000003E-002    -24976.371093750000     
   2.3000000000000020E-002    -27685.220703125000     
   2.4100000000000010E-002    -30563.447265625000     
   2.5200000000000000E-002    -33598.488281250000     
   2.6300000000000018E-002    -36771.917968750000     
   2.7400000000000008E-002    -40066.375000000000     
   2.8500000000000025E-002    -43456.531250000000     
   2.9600000000000015E-002    -46913.382812500000     
   3.0700000000000005E-002    -50396.683593750000     
   3.1800000000000023E-002    -53858.480468750000     
   3.2900000000000013E-002    -57243.617187500000     
   3.4000000000000002E-002    -60494.468750000000     
   3.5100000000000020E-002    -63545.285156250000     
   3.6200000000000010E-002    -66320.031250000000     
   3.7300000000000028E-002    -68729.851562500000     
   3.8400000000000017E-002    -70695.820312500000     
   3.9500000000000007E-002    -72130.234375000000     
   4.0600000000000025E-002    -72936.414062500000     
   4.1700000000000015E-002    -73009.117187500000     
   4.2800000000000005E-002    -72245.937500000000     
   4.3900000000000022E-002    -70550.328125000000     
   4.5000000000000012E-002    -67829.812500000000     
   4.6100000000000002E-002    -63990.894531250000     
   4.7200000000000020E-002    -58936.230468750000     
   4.8300000000000010E-002    -52585.707031250000     
   4.9400000000000027E-002    -44880.144531250000     
   5.0500000000000017E-002    -35762.285156250000     
   5.1600000000000007E-002    -25195.244140625000     
   5.2700000000000025E-002    -13169.849609375000     
   5.3800000000000014E-002     298.95730590820312     
   5.4900000000000004E-002     15192.959960937500     
   5.6000000000000022E-002     31461.578125000000     
   5.7100000000000012E-002     49013.949218750000     
   5.8200000000000002E-002     67708.851562500000     
   5.9300000000000019E-002     87409.023437500000     
   6.0400000000000009E-002     107947.91406250000     
   6.1500000000000027E-002     129141.32031250000     
   6.2600000000000017E-002     150727.57812500000     
   6.3700000000000007E-002     172428.89062500000     
   6.4800000000000024E-002     193986.40625000000     
   6.5900000000000014E-002     215086.17187500000     
   6.7000000000000004E-002     235414.93750000000     
   6.8100000000000022E-002     254621.37500000000     
   6.9200000000000012E-002     272348.21875000000     
   7.0300000000000029E-002     288283.00000000000     
   7.1400000000000019E-002     302079.12500000000     
   7.2500000000000009E-002     313380.12500000000     
   7.3600000000000027E-002     321875.40625000000     
   7.4700000000000016E-002     327311.21875000000     
   7.5800000000000006E-002     329474.59375000000     
   7.6900000000000024E-002     328144.43750000000     
   7.8000000000000014E-002     323073.37500000000     
   7.9100000000000004E-002     314126.90625000000     
   8.0200000000000021E-002     301312.06250000000     
   8.1300000000000011E-002     284691.31250000000     
   8.2400000000000029E-002     264303.15625000000     
   8.3500000000000019E-002     240180.39062500000     
   8.4600000000000009E-002     212476.93750000000     
   8.5700000000000026E-002     181500.34375000000     
   8.6800000000000016E-002     147605.46875000000     
   8.7900000000000006E-002     111138.33593750000     
   8.9000000000000024E-002     72484.812500000000     
   9.0100000000000013E-002     32101.474609375000     
   9.1200000000000003E-002    -9499.4189453125000     
   9.2300000000000021E-002    -51808.101562500000     
   9.3400000000000011E-002    -94309.148437500000     
   9.4500000000000028E-002    -136422.29687500000     
   9.5600000000000018E-002    -177531.29687500000     
   9.6700000000000008E-002    -217035.31250000000     
   9.7800000000000026E-002    -254475.12500000000     
   9.8900000000000016E-002    -289445.87500000000     
  0.10000000000000001         -321468.50000000000     
  0.10110000000000002         -350011.09375000000     
  0.10220000000000001         -374655.96875000000     
  0.10330000000000003         -395081.34375000000     
  0.10440000000000002         -411184.43750000000     
  0.10550000000000001         -422840.12500000000     
  0.10660000000000003         -429904.59375000000     
  0.10770000000000002         -432245.25000000000     
  0.10880000000000001         -429854.62500000000     
  0.10990000000000003         -422901.31250000000     
  0.11100000000000002         -411682.25000000000     
  0.11210000000000001         -396430.65625000000     
  0.11320000000000002         -377353.75000000000     
  0.11430000000000001         -354805.96875000000     
  0.11540000000000003         -329212.06250000000     
  0.11650000000000002         -301009.03125000000     
  0.11760000000000001         -270554.31250000000     
  0.11870000000000003         -238343.59375000000     
  0.11980000000000002         -205001.03125000000     
  0.12090000000000001         -171035.65625000000     
  0.12200000000000003         -136783.93750000000     
  0.12310000000000001         -102517.68750000000     
  0.12420000000000003         -68747.960937500000     
  0.12530000000000002         -36066.109375000000     
  0.12640000000000001         -4924.3085937500000     
  0.12750000000000003          24498.882812500000     
  0.12860000000000002          52093.480468750000     
  0.12970000000000001          77586.093750000000     
  0.13080000000000003          100675.06250000000     
  0.13190000000000002          121149.44531250000     
  0.13300000000000001          138991.82812500000     
  0.13410000000000000          154210.03125000000     
  0.13520000000000004          166751.12500000000     
  0.13630000000000003          176599.46875000000     
  0.13740000000000002          183899.92187500000     
  0.13850000000000001          188852.98437500000     
  0.13960000000000000          191537.26562500000     
  0.14070000000000005          191941.67187500000     
  0.14180000000000004          190203.48437500000     
  0.14290000000000003          186671.00000000000     
  0.14400000000000002          181706.37500000000     
  0.14510000000000001          175452.85937500000     
  0.14620000000000000          167922.34375000000     
  0.14730000000000004          159260.56250000000     
  0.14840000000000003          149797.34375000000     
  0.14950000000000002          139849.81250000000     
  0.15060000000000001          129541.15625000000     
  0.15170000000000000          118944.80468750000     
  0.15280000000000005          108227.27343750000     
  0.15390000000000004          97634.195312500000     
  0.15500000000000003          87269.460937500000     
  0.15610000000000002          77112.375000000000     
  0.15720000000000001          67208.671875000000     
  0.15830000000000000          57793.082031250000     
  0.15940000000000004          49073.171875000000     
  0.16050000000000003          41010.105468750000     
  0.16160000000000002          33409.058593750000     
  0.16270000000000001          26235.708984375000     
  0.16380000000000000          19677.779296875000     
  0.16490000000000005          13910.552734375000     
  0.16600000000000004          8844.6582031250000     
  0.16710000000000003          4296.5209960937500     
  0.16820000000000002          210.10180664062500     
  0.16930000000000001         -3322.1657714843750     
  0.17040000000000000         -6286.1655273437500     
  0.17150000000000004         -8810.4990234375000     
  0.17260000000000003         -10975.450195312500     
  0.17370000000000002         -12710.840820312500     
  0.17480000000000001         -13957.547851562500     
  0.17590000000000000         -14841.654296875000     
  0.17700000000000005         -15592.314453125000     
  0.17810000000000004         -16249.198242187500     
  0.17920000000000003         -16635.552734375000     
  0.18030000000000002         -16631.990234375000     
  0.18140000000000001         -16382.876953125000     
  0.18250000000000000         -16133.057617187500     
  0.18360000000000004         -15927.015625000000     
  0.18470000000000003         -15608.227539062500     
  0.18580000000000002         -15088.305664062500     
  0.18690000000000001         -14471.295898437500     
  0.18800000000000000         -13890.114257812500     
  0.18910000000000005         -13308.861328125000     
  0.19020000000000004         -12625.868164062500     
  0.19130000000000003         -11885.246093750000     
  0.19240000000000002         -11227.872070312500     
  0.19350000000000001         -10669.137695312500     
  0.19460000000000005         -10051.032226562500     
  0.19570000000000004         -9272.1953125000000     
  0.19680000000000003         -8461.8525390625000     
  0.19790000000000002         -7807.9042968750000     
  0.19900000000000001         -7294.4462890625000     
  0.20010000000000000         -6726.0585937500000     
  0.20120000000000005         -6012.1308593750000     
  0.20230000000000004         -5290.3251953125000     
  0.20340000000000003         -4703.1811523437500     
  0.20450000000000002         -4196.9018554687500     
  0.20560000000000000         -3624.9279785156250     
  0.20670000000000005         -2988.3354492187500     
  0.20780000000000004         -2428.3562011718750     
  0.20890000000000003         -1994.8851318359375     
