 -0.12000000000000000          0.0000000000000000     
 -0.11889999999999999          0.0000000000000000     
 -0.11780000000000000          0.0000000000000000     
 -0.11670000000000000          0.0000000000000000     
 -0.11559999999999999          0.0000000000000000     
 -0.11449999999999999          0.0000000000000000     
 -0.11340000000000000          0.0000000000000000     
 -0.11230000000000000          0.0000000000000000     
 -0.11119999999999999          0.0000000000000000     
 -0.11009999999999999          0.0000000000000000     
 -0.10900000000000000          0.0000000000000000     
 -0.10790000000000000          0.0000000000000000     
 -0.10679999999999999          0.0000000000000000     
 -0.10569999999999999          0.0000000000000000     
 -0.10460000000000000          0.0000000000000000     
 -0.10349999999999999         -5.8029894897201363E-037
 -0.10239999999999999          8.7791462687488970E-036
 -0.10130000000000000         -3.3869768981969600E-035
 -0.10020000000000000         -1.1358984435044378E-034
  -9.9099999999999994E-002     1.0884279638152769E-033
  -9.7999999999999990E-002     5.0352260339443116E-035
  -9.6899999999999986E-002    -1.6895411161095447E-032
  -9.5799999999999996E-002     1.4173899293231995E-032
  -9.4699999999999993E-002     1.9331681684018592E-031
  -9.3599999999999989E-002    -2.1519199088271714E-031
  -9.2499999999999999E-002    -1.8623112497252530E-030
  -9.1399999999999995E-002     1.8817095396211666E-030
  -9.0299999999999991E-002     1.5838679343770494E-029
  -8.9200000000000002E-002    -1.0261090680644224E-029
  -8.8099999999999984E-002    -1.1950045026414163E-028
  -8.6999999999999994E-002     1.5768382900800360E-029
  -8.5899999999999990E-002     7.8708837559669501E-028
  -8.4799999999999986E-002     3.7380405586973457E-028
  -8.3699999999999997E-002    -4.3965398400664034E-027
  -8.2599999999999993E-002    -5.2248310794108329E-027
  -8.1499999999999989E-002     1.9779690337077656E-026
  -8.0399999999999999E-002     4.2861996157669655E-026
  -7.9299999999999995E-002    -6.2686998233734898E-026
  -7.8199999999999992E-002    -2.6040448857955657E-025
  -7.7100000000000002E-002     5.5012176649815496E-026
  -7.5999999999999984E-002     1.2168773080865286E-024
  -7.4899999999999994E-002     9.3010930992161540E-025
  -7.3799999999999991E-002    -4.1885780664199136E-024
  -7.2699999999999987E-002    -8.0056728551012953E-024
  -7.1599999999999997E-002     8.2975734781384159E-024
  -7.0499999999999993E-002     3.9413210541615132E-023
  -6.9399999999999989E-002     1.1130945701804260E-023
  -6.8300000000000000E-002    -1.3093717777604987E-022
  -6.7199999999999996E-002    -1.8345057538578153E-022
  -6.6099999999999992E-002     2.4593148927935758E-022
  -6.5000000000000002E-002     8.9320147980535422E-022
  -6.3899999999999985E-002     2.1643245855806304E-022
  -6.2799999999999995E-002    -2.6002248879987532E-021
  -6.1699999999999991E-002    -3.7083512563743079E-021
  -6.0599999999999994E-002     3.5373025841605593E-021
  -5.9499999999999990E-002     1.5212966219972565E-020
  -5.8399999999999994E-002     7.9687017843728453E-021
  -5.7299999999999990E-002    -3.3475611649108896E-020
  -5.6199999999999986E-002    -6.2769922236990270E-020
  -5.5099999999999996E-002     1.3667531110607819E-020
  -5.3999999999999992E-002     1.8274331293993203E-019
  -5.2899999999999989E-002     1.9140081787545930E-019
  -5.1799999999999985E-002    -2.2226841952606800E-019
  -5.0699999999999995E-002    -7.5095364435958165E-019
  -4.9599999999999991E-002    -4.1295823689094676E-019
  -4.8499999999999988E-002     1.2419489274193936E-018
  -4.7399999999999998E-002     2.5350422253177877E-018
  -4.6299999999999994E-002     4.7365628495099336E-019
  -4.5199999999999990E-002    -4.9328386434007771E-018
  -4.4099999999999986E-002    -7.4331425917137879E-018
  -4.2999999999999997E-002     5.1177514572169797E-019
  -4.1899999999999993E-002     1.5748177176056086E-017
  -4.0799999999999989E-002     2.0021984481823615E-017
  -3.9699999999999985E-002    -3.2697425978213150E-018
  -3.8599999999999995E-002    -4.2060608827271909E-017
  -3.7499999999999992E-002    -5.2615132349705573E-017
  -3.6399999999999988E-002     5.6010622323861740E-019
  -3.5299999999999984E-002     9.3602408157740925E-017
  -3.4199999999999994E-002     1.4007316350806380E-016
  -3.3099999999999991E-002     5.5173512648825932E-017
  -3.1999999999999987E-002    -1.5904623830541710E-016
  -3.0899999999999997E-002    -3.6995977151234284E-016
  -2.9799999999999993E-002    -3.4546919027102403E-016
  -2.8699999999999989E-002     1.0988835695671366E-016
  -2.7599999999999986E-002     8.9429029181015704E-016
  -2.6499999999999996E-002     1.3752152704704147E-015
  -2.5399999999999992E-002     6.0553051322318006E-016
  -2.4299999999999988E-002    -1.7149844319322297E-015
  -2.3199999999999985E-002    -4.1250953458746471E-015
  -2.2099999999999995E-002    -3.6578232677747079E-015
  -2.0999999999999991E-002     1.6091530650078436E-015
  -1.9899999999999987E-002     9.3098153562372679E-015
  -1.8799999999999983E-002     1.2547702982169343E-014
  -1.7699999999999994E-002     4.7696111857699168E-015
  -1.6599999999999990E-002    -1.3164332803375107E-014
  -1.5499999999999986E-002    -3.0176300911191611E-014
  -1.4399999999999996E-002    -3.0368628212195173E-014
  -1.3299999999999992E-002    -3.8847361945640833E-015
  -1.2199999999999989E-002     4.3509144990192331E-014
  -1.1099999999999985E-002     8.7210640998310746E-014
  -9.9999999999999950E-003     8.9446523375991821E-014
  -8.8999999999999913E-003     1.6895832267451415E-014
  -7.7999999999999875E-003    -1.2886336420679656E-013
  -6.6999999999999837E-003    -2.8120339173529074E-013
  -5.5999999999999939E-003    -3.1068442089832171E-013
  -4.4999999999999901E-003    -9.0013046116169809E-014
  -3.3999999999999864E-003     3.8848541354316590E-013
  -2.2999999999999826E-003     9.1327618211012318E-013
  -1.1999999999999927E-003     1.0725351813276052E-012
  -9.9999999999988987E-005     4.5338502375168177E-013
   1.0000000000000148E-003    -1.0216715711289237E-012
   2.1000000000000185E-003    -2.7930279616894538E-012
   3.2000000000000084E-003    -3.6537591528718050E-012
   4.3000000000000121E-003    -2.2418815935620895E-012
   5.4000000000000159E-003     1.9992885385428094E-012
   6.5000000000000058E-003     7.8260696534382390E-012
   7.6000000000000234E-003     1.1917068026834343E-011
   8.7000000000000133E-003     9.9792977700796648E-012
   9.8000000000000032E-003    -7.4296108544882888E-013
   1.0900000000000021E-002    -1.8521056216469489E-011
   1.2000000000000011E-002    -3.5515746593661746E-011
   1.3100000000000001E-002    -3.9292839815185943E-011
   1.4200000000000018E-002    -1.8312719396451627E-011
   1.5300000000000008E-002     2.9783866345445276E-011
   1.6400000000000026E-002     9.0757512616335134E-011
   1.7500000000000016E-002     1.3259444930913133E-010
   1.8600000000000005E-002     1.1518323794756924E-010
   1.9700000000000023E-002     1.1119110840396296E-011
   2.0800000000000013E-002    -1.6912614364539280E-010
   2.1900000000000003E-002    -3.6093822375349305E-010
   2.3000000000000020E-002    -4.5310183383051594E-010
   2.4100000000000010E-002    -3.2762276225284381E-010
   2.5200000000000000E-002     7.4189258902901400E-011
   2.6300000000000018E-002     6.8366950989329212E-010
   2.7400000000000008E-002     1.2727687792590814E-009
   2.8500000000000025E-002     1.4950202187336004E-009
   2.9600000000000015E-002     1.0139240558260099E-009
   3.0700000000000005E-002    -3.0826308172748895E-010
   3.1800000000000023E-002    -2.2336161809022315E-009
   3.2900000000000013E-002    -4.0818948221499340E-009
   3.4000000000000002E-002    -4.8587418532974880E-009
   3.5100000000000020E-002    -3.6019338622850228E-009
   3.6200000000000010E-002     1.2806984639457397E-010
   3.7300000000000028E-002     5.7877862502664357E-009
   3.8400000000000017E-002     1.1653758846819073E-008
   3.9500000000000007E-002     1.5093640115537710E-008
   4.0600000000000025E-002     1.3372564389158015E-008
   4.1700000000000015E-002     4.8400612406851451E-009
   4.2800000000000005E-002    -9.8893400135580123E-009
   4.3900000000000022E-002    -2.7285530279641534E-008
   4.5000000000000012E-002    -4.1255539429130295E-008
   4.6100000000000002E-002    -4.4699657308910901E-008
   4.7200000000000020E-002    -3.2026395757611681E-008
   4.8300000000000010E-002    -1.9043804311280610E-009
   4.9400000000000027E-002     4.0787433874811541E-008
   5.0500000000000017E-002     8.4832620927954849E-008
   5.1600000000000007E-002     1.1496379670461465E-007
   5.2700000000000025E-002     1.1638534402891310E-007
   5.3800000000000014E-002     8.0462797313884948E-008
   5.4900000000000004E-002     9.7974863777494647E-009
   5.6000000000000022E-002    -7.9340630065871665E-008
   5.7100000000000012E-002    -1.5882334025718592E-007
   5.8200000000000002E-002    -1.9521310434811312E-007
   5.9300000000000019E-002    -1.5999067670691147E-007
   6.0400000000000009E-002    -4.0882170537770435E-008
   6.1500000000000027E-002     1.4919176294370118E-007
   6.2600000000000017E-002     3.6889878174406476E-007
   6.3700000000000007E-002     5.5311812729996745E-007
   6.4800000000000024E-002     6.2540027556678979E-007
   6.5900000000000014E-002     5.1586926019808743E-007
   6.7000000000000004E-002     1.8020361380877148E-007
   6.8100000000000022E-002    -3.8569612570427125E-007
   6.9200000000000012E-002    -1.1402715927033569E-006
   7.0300000000000029E-002    -2.0029801817145199E-006
   7.1400000000000019E-002    -2.8729205041599926E-006
   7.2500000000000009E-002    -3.6556941722665215E-006
   7.3600000000000027E-002    -4.2920901250909083E-006
   7.4700000000000016E-002    -4.7807920964260120E-006
   7.5800000000000006E-002    -5.1884949243685696E-006
   7.6900000000000024E-002    -5.6441976994392462E-006
   7.8000000000000014E-002    -6.3185971157508902E-006
   7.9100000000000004E-002    -7.3942242124758195E-006
   8.0200000000000021E-002    -9.0341709437780082E-006
   8.1300000000000011E-002    -1.1358592018950731E-005
   8.2400000000000029E-002    -1.4436530364037026E-005
   8.3500000000000019E-002    -1.8295866539119743E-005
   8.4600000000000009E-002    -2.2949439880903810E-005
   8.5700000000000026E-002    -2.8430462407413870E-005
   8.6800000000000016E-002    -3.4826694900402799E-005
   8.7900000000000006E-002    -4.2302435758756474E-005
   8.9000000000000024E-002    -5.1103179430356249E-005
   9.0100000000000013E-002    -6.1544327763840556E-005
   9.1200000000000003E-002    -7.3986477218568325E-005
   9.2300000000000021E-002    -8.8806387793738395E-005
   9.3400000000000011E-002    -1.0638183448463678E-004
   9.4500000000000028E-002    -1.2708932626992464E-004
   9.5600000000000018E-002    -1.5131580585148185E-004
   9.6700000000000008E-002    -1.7948121239896864E-004
   9.7800000000000026E-002    -2.1206837845966220E-004
   9.8900000000000016E-002    -2.4965018383227289E-004
  0.10000000000000001         -2.9288913356140256E-004
  0.10110000000000002         -3.4252490149810910E-004
  0.10220000000000001         -3.9935455424711108E-004
  0.10330000000000003         -4.6419730642810464E-004
  0.10440000000000002         -5.3786905482411385E-004
  0.10550000000000001         -6.2115502078086138E-004
  0.10660000000000003         -7.1482040220871568E-004
  0.10770000000000002         -8.1962585682049394E-004
  0.10880000000000001         -9.3633157666772604E-004
  0.10990000000000003         -1.0656864615157247E-003
  0.11100000000000002         -1.2083938345313072E-003
  0.11210000000000001         -1.3651188928633928E-003
  0.11320000000000002         -1.5364481369033456E-003
  0.11430000000000001         -1.7228075303137302E-003
  0.11540000000000003         -1.9244101131334901E-003
  0.11650000000000002         -2.1412274800240993E-003
  0.11760000000000001         -2.3729188833385706E-003
  0.11870000000000003         -2.6188476476818323E-003
  0.11980000000000002         -2.8780288994312286E-003
  0.12090000000000001         -3.1490537803620100E-003
  0.12200000000000003         -3.4301276318728924E-003
  0.12310000000000001         -3.7189789582043886E-003
  0.12420000000000003         -4.0128114633262157E-003
  0.12530000000000002         -4.3082148768007755E-003
  0.12640000000000001         -4.6012373641133308E-003
  0.12750000000000003         -4.8873135820031166E-003
  0.12860000000000002         -5.1614451222121716E-003
  0.12970000000000001         -5.4181078448891640E-003
  0.13080000000000003         -5.6509673595428467E-003
  0.13190000000000002         -5.8530559763312340E-003
  0.13300000000000001         -6.0170977376401424E-003
  0.13410000000000000         -6.1354325152933598E-003
  0.13520000000000004         -6.2001831829547882E-003
  0.13630000000000003         -6.2029492110013962E-003
  0.13740000000000002         -6.1349347233772278E-003
  0.13850000000000001         -5.9878039173781872E-003
  0.13960000000000000         -5.7534365914762020E-003
  0.14070000000000005         -5.4240226745605469E-003
  0.14180000000000004         -4.9924962222576141E-003
  0.14290000000000003         -4.4526681303977966E-003
  0.14400000000000002         -3.7992240395396948E-003
  0.14510000000000001         -3.0278954654932022E-003
  0.14620000000000000         -2.1359333768486977E-003
  0.14730000000000004         -1.1223532492294908E-003
  0.14840000000000003          1.2059729669999797E-005
  0.14950000000000002          1.2645565439015627E-003
  0.15060000000000001          2.6296507567167282E-003
  0.15170000000000000          4.0994067676365376E-003
  0.15280000000000005          5.6644133292138577E-003
  0.15390000000000004          7.3132305406033993E-003
  0.15500000000000003          9.0307109057903290E-003
  0.15610000000000002          1.0798159986734390E-002
  0.15720000000000001          1.2595633044838905E-002
  0.15830000000000000          1.4401434920728207E-002
  0.15940000000000004          1.6192536801099777E-002
  0.16050000000000003          1.7944363877177238E-002
  0.16160000000000002          1.9629122689366341E-002
  0.16270000000000001          2.1218335255980492E-002
  0.16380000000000000          2.2683694958686829E-002
  0.16490000000000005          2.3997060954570770E-002
  0.16600000000000004          2.5131151080131531E-002
  0.16710000000000003          2.6058921590447426E-002
  0.16820000000000002          2.6755113154649734E-002
  0.16930000000000001          2.7197130024433136E-002
  0.17040000000000000          2.7364248409867287E-002
  0.17150000000000004          2.7238942682743073E-002
  0.17260000000000003          2.6808423921465874E-002
  0.17370000000000002          2.6064664125442505E-002
  0.17480000000000001          2.5003591552376747E-002
  0.17590000000000000          2.3624716326594353E-002
  0.17700000000000005          2.1931998431682587E-002
  0.17810000000000004          1.9935883581638336E-002
  0.17920000000000003          1.7653150483965874E-002
  0.18030000000000002          1.5105006285011768E-002
  0.18140000000000001          1.2316347099840641E-002
  0.18250000000000000          9.3164201825857162E-003
  0.18360000000000004          6.1396593227982521E-003
  0.18470000000000003          2.8250128962099552E-003
  0.18580000000000002         -5.8666733093559742E-004
  0.18690000000000001         -4.0530906990170479E-003
  0.18800000000000000         -7.5298394076526165E-003
  0.18910000000000005         -1.0970651172101498E-002
  0.19020000000000004         -1.4329457655549049E-002
  0.19130000000000003         -1.7561923712491989E-002
  0.19240000000000002         -2.0625045523047447E-002
  0.19350000000000001         -2.3477552458643913E-002
  0.19460000000000005         -2.6081353425979614E-002
  0.19570000000000004         -2.8402769938111305E-002
  0.19680000000000003         -3.0412994325160980E-002
  0.19790000000000002         -3.2086648046970367E-002
  0.19900000000000001         -3.3403262495994568E-002
  0.20010000000000000         -3.4349720925092697E-002
  0.20120000000000005         -3.4919492900371552E-002
  0.20230000000000004         -3.5111017525196075E-002
  0.20340000000000003         -3.4927342087030411E-002
  0.20450000000000002         -3.4376498311758041E-002
  0.20560000000000000         -3.3472742885351181E-002
  0.20670000000000005         -3.2237619161605835E-002
  0.20780000000000004         -3.0697222799062729E-002
  0.20890000000000003         -2.8880795463919640E-002
