 -0.12000000000000000          0.0000000000000000
 -0.11889999999999999          0.0000000000000000
 -0.11780000000000000          0.0000000000000000
 -0.11670000000000000          0.0000000000000000
 -0.11559999999999999          0.0000000000000000
 -0.11449999999999999          0.0000000000000000
 -0.11340000000000000          0.0000000000000000
 -0.11230000000000000          0.0000000000000000
 -0.11119999999999999         -4.1322777735891047E-023
 -0.11009999999999999          2.1174049059865123E-022
 -0.10900000000000000          3.3840590453139518E-022
 -0.10790000000000000         -3.1919964817367598E-021
 -0.10679999999999999         -2.4595753052447201E-021
 -0.10569999999999999          2.7823366970086150E-020
 -0.10460000000000000          2.6122027702300764E-020
 -0.10349999999999999         -1.7167837637975160E-019
 -0.10239999999999999         -2.5715574413746935E-019
 -0.10130000000000000          7.4125474488224427E-019
 -0.10020000000000000          1.8589535962730836E-018
  -9.9099999999999994E-002    -1.7697984154908931E-018
  -9.7999999999999990E-002    -9.5481334029904102E-018
  -9.6899999999999986E-002    -2.3307699730478176E-018
  -9.5799999999999996E-002     3.3285158896537696E-017
  -9.4699999999999993E-002     4.3579160230686559E-017
  -9.3599999999999989E-002    -6.3014235252485424E-017
  -9.2499999999999999E-002    -2.0800597350146714E-016
  -9.1399999999999995E-002    -5.0403999163012525E-017
  -9.0299999999999991E-002     5.3073035714013288E-016
  -8.9200000000000002E-002     7.6570592585662595E-016
  -8.8099999999999984E-002    -4.3524203012533025E-016
  -8.6999999999999994E-002    -2.3900199277082559E-015
  -8.5899999999999990E-002    -1.9493908474477271E-015
  -8.4799999999999986E-002     2.7732839133742240E-015
  -8.3699999999999997E-002     7.5284813512389512E-015
  -8.2599999999999993E-002     4.3198341496790416E-015
  -8.1499999999999989E-002    -7.9972658066662129E-015
  -8.0399999999999999E-002    -1.8157059243715384E-014
  -7.9299999999999995E-002    -1.3027941017109378E-014
  -7.8199999999999992E-002     7.5585942195467888E-015
  -7.7100000000000002E-002     3.2724213285982226E-014
  -7.5999999999999984E-002     5.1969777629555167E-014
  -7.4899999999999994E-002     4.7131708393955210E-014
  -7.3799999999999991E-002    -2.2096114814153939E-014
  -7.2699999999999987E-002    -1.7327815343606140E-013
  -7.1599999999999997E-002    -2.9815126062482378E-013
  -7.0499999999999993E-002    -1.6148347036729765E-013
  -6.9399999999999989E-002     3.5283896030607886E-013
  -6.8300000000000000E-002     9.3191079852950054E-013
  -6.7199999999999996E-002     9.1752061677496943E-013
  -6.6099999999999992E-002    -7.2036953767569412E-014
  -6.5000000000000002E-002    -1.5639357213784177E-012
  -6.3899999999999985E-002    -2.4554796130421552E-012
  -6.2799999999999995E-002    -1.9365472767041148E-012
  -6.1699999999999991E-002    -9.0352333633521992E-014
  -6.0599999999999994E-002     2.4414153424606733E-012
  -5.9499999999999990E-002     4.9988116944399419E-012
  -5.8399999999999994E-002     6.6478667189173724E-012
  -5.7299999999999990E-002     5.6404850408420248E-012
  -5.6199999999999986E-002     1.9965356679117058E-013
  -5.5099999999999996E-002    -9.2706909857187547E-012
  -5.3999999999999992E-002    -1.8935302978362323E-011
  -5.2899999999999989E-002    -2.3220611197749541E-011
  -5.1799999999999985E-002    -1.7981453132032144E-011
  -5.0699999999999995E-002    -1.9797798383319742E-012
  -4.9599999999999991E-002     2.3476746588424469E-011
  -4.8499999999999988E-002     5.3602167843225246E-011
  -4.7399999999999998E-002     7.7266019971045097E-011
  -4.6299999999999994E-002     7.7324084635232992E-011
  -4.5199999999999990E-002     3.8913438443755055E-011
  -4.4099999999999986E-002    -3.8352741121849832E-011
  -4.2999999999999997E-002    -1.3492898465194969E-010
  -4.1899999999999993E-002    -2.1769241964619823E-010
  -4.0799999999999989E-002    -2.5185598051535862E-010
  -3.9699999999999985E-002    -2.1002634353894933E-010
  -3.8599999999999995E-002    -7.8454721885723444E-011
  -3.7499999999999992E-002     1.3512030383466822E-010
  -3.6399999999999988E-002     3.9504749471674927E-010
  -3.5299999999999984E-002     6.4197525073694806E-010
  -3.4199999999999994E-002     8.0890250053755608E-010
  -3.3099999999999991E-002     8.3885032253760983E-010
  -3.1999999999999987E-002     6.9849409589650691E-010
  -3.0899999999999997E-002     3.9552042196966397E-010
  -2.9799999999999993E-002     1.6630299567998996E-012
  -2.8699999999999989E-002    -3.4263319959038085E-010
  -2.7599999999999986E-002    -4.7086284871156181E-010
  -2.6499999999999996E-002    -2.6797250529675409E-010
  -2.5399999999999992E-002     2.7371799271591613E-010
  -2.4299999999999988E-002     1.0588684373757928E-009
  -2.3199999999999985E-002     1.9248072025135343E-009
  -2.2099999999999995E-002     2.6510913464505848E-009
  -2.0999999999999991E-002     2.9409445989614369E-009
  -1.9899999999999987E-002     2.4368354001325088E-009
  -1.8799999999999983E-002     8.0758572051919941E-010
  -1.7699999999999994E-002    -2.1462482902023794E-009
  -1.6599999999999990E-002    -6.4552407863516237E-009
  -1.5499999999999986E-002    -1.2028899654126235E-008
  -1.4399999999999996E-002    -1.8728703921055967E-008
  -1.3299999999999992E-002    -2.6424304522265629E-008
  -1.2199999999999989E-002    -3.5052753588615815E-008
  -1.1099999999999985E-002    -4.4698051482328083E-008
  -9.9999999999999950E-003    -5.5652940034178755E-008
  -8.8999999999999913E-003    -6.8428235522333125E-008
  -7.7999999999999875E-003    -8.3746726886602119E-008
  -6.6999999999999837E-003    -1.0258067817403571E-007
  -5.5999999999999939E-003    -1.2618795608432265E-007
  -4.4999999999999901E-003    -1.5604412340053386E-007
  -3.3999999999999864E-003    -1.9367884362964105E-007
  -2.2999999999999826E-003    -2.4060551595539437E-007
  -1.1999999999999927E-003    -2.9845287485841254E-007
  -9.9999999999988987E-005    -3.6916529211339366E-007
   1.0000000000000148E-003    -4.5503344381359057E-007
   2.1000000000000185E-003    -5.5858532732599997E-007
   3.2000000000000084E-003    -6.8262448849054636E-007
   4.3000000000000121E-003    -8.3059188682454987E-007
   5.4000000000000159E-003    -1.0069517202282441E-006
   6.5000000000000058E-003    -1.2172073411420570E-006
   7.6000000000000234E-003    -1.4676018054160522E-006
   8.7000000000000133E-003    -1.7648902712608106E-006
   9.8000000000000032E-003    -2.1164887584745884E-006
   1.0900000000000021E-002    -2.5307888336101314E-006
   1.2000000000000011E-002    -3.0172357128321892E-006
   1.3100000000000001E-002    -3.5862165077560348E-006
   1.4200000000000018E-002    -4.2490032683417667E-006
   1.5300000000000008E-002    -5.0178769015474245E-006
   1.6400000000000026E-002    -5.9064104789285921E-006
   1.7500000000000016E-002    -6.9297047957661562E-006
   1.8600000000000005E-002    -8.1046764535130933E-006
   1.9700000000000023E-002    -9.4501310741179623E-006
   2.0800000000000013E-002    -1.0986304005200509E-005
   2.1900000000000003E-002    -1.2734163647110108E-005
   2.3000000000000020E-002    -1.4714898497913964E-005
   2.4100000000000010E-002    -1.6949979908531532E-005
   2.5200000000000000E-002    -1.9462260752334259E-005
   2.6300000000000018E-002    -2.2275917217484675E-005
   2.7400000000000008E-002    -2.5415383788640611E-005
   2.8500000000000025E-002    -2.8903908969368786E-005
   2.9600000000000015E-002    -3.2763073249952868E-005
   3.0700000000000005E-002    -3.7013851397205144E-005
   3.1800000000000023E-002    -4.1677241824800149E-005
   3.2900000000000013E-002    -4.6773457142990083E-005
   3.4000000000000002E-002    -5.2318740927148610E-005
   3.5100000000000020E-002    -5.8323945268057287E-005
   3.6200000000000010E-002    -6.4794876379892230E-005
   3.7300000000000028E-002    -7.1731956268195063E-005
   3.8400000000000017E-002    -7.9129924415610731E-005
   3.9500000000000007E-002    -8.6977459432091564E-005
   4.0600000000000025E-002    -9.5254836196545511E-005
   4.1700000000000015E-002    -1.0393296543043107E-004
   4.2800000000000005E-002    -1.1297075980110094E-004
   4.3900000000000022E-002    -1.2231612345203757E-004
   4.5000000000000012E-002    -1.3190718891564757E-004
   4.6100000000000002E-002    -1.4167171320877969E-004
   4.7200000000000020E-002    -1.5152568812482059E-004
   4.8300000000000010E-002    -1.6137052443809807E-004
   4.9400000000000027E-002    -1.7109133477788419E-004
   5.0500000000000017E-002    -1.8055865075439215E-004
   5.1600000000000007E-002    -1.8963516049552709E-004
   5.2700000000000025E-002    -1.9817419524770230E-004
   5.3800000000000014E-002    -2.0601892902050167E-004
   5.4900000000000004E-002    -2.1299647050909698E-004
   5.6000000000000022E-002    -2.1892461518291384E-004
   5.7100000000000012E-002    -2.2361490118782967E-004
   5.8200000000000002E-002    -2.2688269382342696E-004
   5.9300000000000019E-002    -2.2854277631267905E-004
   6.0400000000000009E-002    -2.2840929159428924E-004
   6.1500000000000027E-002    -2.2629737213719636E-004
   6.2600000000000017E-002    -2.2202999389264733E-004
   6.3700000000000007E-002    -2.1544608171097934E-004
   6.4800000000000024E-002    -2.0639991271309555E-004
   6.5900000000000014E-002    -1.9476839224807918E-004
   6.7000000000000004E-002    -1.8045143224298954E-004
   6.8100000000000022E-002    -1.6337711713276803E-004
   6.9200000000000012E-002    -1.4349659613799304E-004
   7.0300000000000029E-002    -1.2079584848834202E-004
   7.1400000000000019E-002    -9.5300441898871213E-005
   7.2500000000000009E-002    -6.7086410126648843E-005
   7.3600000000000027E-002    -3.6273046134738252E-005
   7.4700000000000016E-002    -3.0113158118183492E-006
   7.5800000000000006E-002     3.2510884921066463E-005
   7.6900000000000024E-002     7.0061389124020934E-005
   7.8000000000000014E-002     1.0935584577964619E-004
   7.9100000000000004E-002     1.5005895693320781E-004
   8.0200000000000021E-002     1.9180162053089589E-004
   8.1300000000000011E-002     2.3418974888045341E-004
   8.2400000000000029E-002     2.7680513449013233E-004
   8.3500000000000019E-002     3.1920027686282992E-004
   8.4600000000000009E-002     3.6089876084588468E-004
   8.5700000000000026E-002     4.0140716009773314E-004
   8.6800000000000016E-002     4.4022710062563419E-004
   8.7900000000000006E-002     4.7686736797913909E-004
   8.9000000000000024E-002     5.1084993174299598E-004
   9.0100000000000013E-002     5.4171896772459149E-004
   9.1200000000000003E-002     5.6904030498117208E-004
   9.2300000000000021E-002     5.9240183327347040E-004
   9.3400000000000011E-002     6.1142496997490525E-004
   9.4500000000000028E-002     6.2578363576903939E-004
   9.5600000000000018E-002     6.3521921401843429E-004
   9.6700000000000008E-002     6.3953851349651814E-004
   9.7800000000000026E-002     6.3860206864774227E-004
   9.8900000000000016E-002     6.3232128741219640E-004
  0.10000000000000001          6.2067445833235979E-004
  0.10110000000000002          6.0372089501470327E-004
  0.10220000000000001          5.8160466141998768E-004
  0.10330000000000003          5.5453594541177154E-004
  0.10440000000000002          5.2278046496212482E-004
  0.10550000000000001          4.8666013753972948E-004
  0.10660000000000003          4.4655834790319204E-004
  0.10770000000000002          4.0291302138939500E-004
  0.10880000000000001          3.5621059942059219E-004
  0.10990000000000003          3.0697445617988706E-004
  0.11100000000000002          2.5575704057700932E-004
  0.11210000000000001          2.0312455308157951E-004
  0.11320000000000002          1.4965636364649981E-004
  0.11430000000000001          9.5926654466893524E-005
  0.11540000000000003          4.2507494072197005E-005
  0.11650000000000002         -1.0034680599346757E-005
  0.11760000000000001         -6.1151469708420336E-005
  0.11870000000000003         -1.1033906775992364E-004
  0.11980000000000002         -1.5714652545284480E-004
  0.12090000000000001         -2.0116381347179413E-004
  0.12200000000000003         -2.4200981715694070E-004
  0.12310000000000001         -2.7934595709666610E-004
  0.12420000000000003         -3.1290858169086277E-004
  0.12530000000000002         -3.4251224133186042E-004
  0.12640000000000001         -3.6802512477152050E-004
  0.12750000000000003         -3.8935570046305656E-004
  0.12860000000000002         -4.0646057459525764E-004
  0.12970000000000001         -4.1936503839679062E-004
  0.13080000000000003         -4.2815753840841353E-004
  0.13190000000000002         -4.3297407682985067E-004
  0.13300000000000001         -4.3398092384450138E-004
  0.13410000000000000         -4.3138177716173232E-004
  0.13520000000000004         -4.2542643495835364E-004
  0.13630000000000003         -4.1639272239990532E-004
  0.13740000000000002         -4.0456929127685726E-004
  0.13850000000000001         -3.9025780279189348E-004
  0.13960000000000000         -3.7378180422820151E-004
  0.14070000000000005         -3.5548111191019416E-004
  0.14180000000000004         -3.3568518119864166E-004
  0.14290000000000003         -3.1469966052100062E-004
  0.14400000000000002         -2.9282047762535512E-004
  0.14510000000000001         -2.7035130187869072E-004
  0.14620000000000000         -2.4759166990406811E-004
  0.14730000000000004         -2.2480713960248977E-004
  0.14840000000000003         -2.0222093735355884E-004
  0.14950000000000002         -1.8003526201937348E-004
  0.15060000000000001         -1.5844836889300495E-004
  0.15170000000000000         -1.3764227333012968E-004
  0.15280000000000005         -1.1775801249314100E-004
  0.15390000000000004         -9.8895870905835181E-005
  0.15500000000000003         -8.1140184192918241E-005
  0.15610000000000002         -6.4569489040877670E-005
  0.15720000000000001         -4.9241276428801939E-005
  0.15830000000000000         -3.5175769880879670E-005
  0.15940000000000004         -2.2366488337866031E-005
  0.16050000000000003         -1.0804108569573145E-005
  0.16160000000000002         -4.7880274678391288E-007
  0.16270000000000001          8.6407790149678476E-006
  0.16380000000000000          1.6612970284768380E-005
  0.16490000000000005          2.3503613192588091E-005
  0.16600000000000004          2.9368282412178814E-005
  0.16710000000000003          3.4261636756127700E-005
  0.16820000000000002          3.8260404835455120E-005
  0.16930000000000001          4.1455674363533035E-005
  0.17040000000000000          4.3924013880314305E-005
  0.17150000000000004          4.5720065827481449E-005
  0.17260000000000003          4.6902914618840441E-005
  0.17370000000000002          4.7555735363857821E-005
  0.17480000000000001          4.7769171942491084E-005
  0.17590000000000000          4.7607816668460146E-005
  0.17700000000000005          4.7108936996664852E-005
  0.17810000000000004          4.6313267375808209E-005
  0.17920000000000003          4.5283421059139073E-005
  0.18030000000000002          4.4085030822316185E-005
  0.18140000000000001          4.2760599171742797E-005
  0.18250000000000000          4.1333179979119450E-005
  0.18360000000000004          3.9829228626331314E-005
  0.18470000000000003          3.8285394111881033E-005
  0.18580000000000002          3.6731344152940437E-005
  0.18690000000000001          3.5179658880224451E-005
  0.18800000000000000          3.3641157642705366E-005
  0.18910000000000005          3.2140724215423688E-005
  0.19020000000000004          3.0703849915880710E-005
  0.19130000000000003          2.9333257771213539E-005
  0.19240000000000002          2.8013253540848382E-005
  0.19350000000000001          2.6739644454210065E-005
  0.19460000000000005          2.5532297513564117E-005
  0.19570000000000004          2.4411905542365275E-005
  0.19680000000000003          2.3373440853902139E-005
  0.19790000000000002          2.2393591279978864E-005
  0.19900000000000001          2.1461622964125127E-005
  0.20010000000000000          2.0587907783919945E-005
  0.20120000000000005          1.9780860384344123E-005
  0.20230000000000004          1.9028166207135655E-005
  0.20340000000000003          1.8310201994609088E-005
  0.20450000000000002          1.7623333405936137E-005
  0.20560000000000000          1.6976930055534467E-005
  0.20670000000000005          1.6369593140552752E-005
  0.20780000000000004          1.5781646652612835E-005
  0.20890000000000003          1.5196384993032552E-005
