 -0.12000000000000000          0.0000000000000000
 -0.11889999999999999          0.0000000000000000
 -0.11780000000000000          0.0000000000000000
 -0.11670000000000000          0.0000000000000000
 -0.11559999999999999          0.0000000000000000
 -0.11449999999999999          0.0000000000000000
 -0.11340000000000000          0.0000000000000000
 -0.11230000000000000          4.5173367227286533E-021
 -0.11119999999999999         -2.1335585054060316E-021
 -0.11009999999999999         -5.0255093159369238E-020
 -0.10900000000000000          6.3249081147095817E-021
 -0.10790000000000000          3.2296879276220831E-019
 -0.10679999999999999          1.0674503433646278E-019
 -0.10569999999999999         -1.4623059134956105E-018
 -0.10460000000000000         -1.2596261906999581E-018
 -0.10349999999999999          4.7662514990678041E-018
 -0.10239999999999999          7.2483628505786299E-018
 -0.10130000000000000         -1.0592433209906969E-017
 -0.10020000000000000         -2.7792567132622285E-017
  -9.9099999999999994E-002     1.2570451183550935E-017
  -9.7999999999999990E-002     7.9820487274198914E-017
  -9.6899999999999986E-002     1.2145859375127466E-017
  -9.5799999999999996E-002    -1.8955670917265182E-016
  -9.4699999999999993E-002    -1.2844009241981205E-016
  -9.3599999999999989E-002     3.9215229942820152E-016
  -9.2499999999999999E-002     5.3949026600151845E-016
  -9.1399999999999995E-002    -6.0574322437205929E-016
  -9.0299999999999991E-002    -1.6980255617787777E-015
  -8.9200000000000002E-002     1.2997041625770455E-016
  -8.8099999999999984E-002     3.8443754981438896E-015
  -8.6999999999999994E-002     2.7951547275888037E-015
  -8.5899999999999990E-002    -5.4413002661295781E-015
  -8.4799999999999986E-002    -9.5917426494343365E-015
  -8.3699999999999997E-002     2.5228179649370219E-015
  -8.2599999999999993E-002     1.8417230495662226E-014
  -8.1499999999999989E-002     8.2132575141501650E-015
  -8.0399999999999999E-002    -2.5318190876059618E-014
  -7.9299999999999995E-002    -2.8646860952179568E-014
  -7.8199999999999992E-002     2.6885462714627828E-014
  -7.7100000000000002E-002     6.7104619929335418E-014
  -7.5999999999999984E-002    -4.8576907538231025E-015
  -7.4899999999999994E-002    -1.2584727639326776E-013
  -7.3799999999999991E-002    -8.8558900609905095E-014
  -7.2699999999999987E-002     1.4607455869897201E-013
  -7.1599999999999997E-002     2.6607229332113735E-013
  -7.0499999999999993E-002    -1.4646290636462916E-014
  -6.9399999999999989E-002    -4.1285120396146457E-013
  -6.8300000000000000E-002    -2.8991365514860479E-013
  -6.7199999999999996E-002     3.7689499416369843E-013
  -6.6099999999999992E-002     6.6022854501232575E-013
  -6.5000000000000002E-002    -1.0487738336204672E-013
  -6.3899999999999985E-002    -1.0222491256262067E-012
  -6.2799999999999995E-002    -5.2546834071465209E-013
  -6.1699999999999991E-002     1.1612621671555634E-012
  -6.0599999999999994E-002     1.6429056465955272E-012
  -5.9499999999999990E-002    -4.3080491431146672E-013
  -5.8399999999999994E-002    -2.6582687873838440E-012
  -5.7299999999999990E-002    -1.4798648417801985E-012
  -5.6199999999999986E-002     2.3741883025535371E-012
  -5.5099999999999996E-002     3.6569926774310257E-012
  -5.3999999999999992E-002    -3.4671514249039193E-013
  -5.2899999999999989E-002    -4.7691898173718439E-012
  -5.1799999999999985E-002    -2.8353621533971918E-012
  -5.0699999999999995E-002     3.9462998840944508E-012
  -4.9599999999999991E-002     6.1617963335869330E-012
  -4.8499999999999988E-002    -6.3214413087778198E-013
  -4.7399999999999998E-002    -7.9608594022451129E-012
  -4.6299999999999994E-002    -4.8448896804165198E-012
  -4.5199999999999990E-002     5.9953418098113165E-012
  -4.4099999999999986E-002     1.0003349711074083E-011
  -4.2999999999999997E-002     7.0871081355936005E-013
  -4.1899999999999993E-002    -9.9524563937358757E-012
  -4.0799999999999989E-002    -7.5308197178269864E-012
  -3.9699999999999985E-002     4.1725143305748613E-012
  -3.8599999999999995E-002     8.2181709354367527E-012
  -3.7499999999999992E-002    -6.3636200258940234E-013
  -3.6399999999999988E-002    -8.0517432998750138E-012
  -3.5299999999999984E-002    -1.8646915608822034E-012
  -3.4199999999999994E-002     9.1502118382269515E-012
  -3.3099999999999991E-002     8.9047606094405651E-012
  -3.1999999999999987E-002    -8.5705563739740809E-013
  -3.0899999999999997E-002    -4.3743624174308327E-012
  -2.9799999999999993E-002     6.2624991997717316E-013
  -2.8699999999999989E-002    -1.9761713966615080E-012
  -2.7599999999999986E-002    -1.6762662438662979E-011
  -2.6499999999999996E-002    -2.0915975548763122E-011
  -2.5399999999999992E-002     2.9953259924470066E-012
  -2.4299999999999988E-002     3.0768467634834096E-011
  -2.3199999999999985E-002     2.1646859652002526E-011
  -2.2099999999999995E-002    -1.9666823725117411E-011
  -2.0999999999999991E-002    -3.8420641668146516E-011
  -1.9899999999999987E-002    -5.0978912931320952E-012
  -1.8799999999999983E-002     3.2632712504421235E-011
  -1.7699999999999994E-002     9.1986409808675340E-012
  -1.6599999999999990E-002    -5.9741551983183427E-011
  -1.5499999999999986E-002    -8.4250571796840035E-011
  -1.4399999999999996E-002    -1.9535616180288429E-011
  -1.3299999999999992E-002     6.4368538277292942E-011
  -1.2199999999999989E-002     6.8488166526936567E-011
  -1.1099999999999985E-002    -7.3239418002524204E-012
  -9.9999999999999950E-003    -7.1402890544636222E-011
  -8.8999999999999913E-003    -6.8138911180071204E-011
  -7.7999999999999875E-003    -4.3166109575665246E-011
  -6.6999999999999837E-003    -6.1326568823183436E-011
  -5.5999999999999939E-003    -1.0986034998383687E-010
  -4.4999999999999901E-003    -1.3016411559707564E-010
  -3.3999999999999864E-003    -1.1098839208800726E-010
  -2.2999999999999826E-003    -9.1785419542578239E-011
  -1.1999999999999927E-003    -8.1058618150997575E-011
  -9.9999999999988987E-005    -4.9500754190079377E-011
   1.0000000000000148E-003    -2.1744859385330884E-011
   2.1000000000000185E-003    -9.5117802523247974E-011
   3.2000000000000084E-003    -3.0036903519992109E-010
   4.3000000000000121E-003    -5.0011172980646279E-010
   5.4000000000000159E-003    -5.2231652336587331E-010
   6.5000000000000058E-003    -3.9161607290338907E-010
   7.6000000000000234E-003    -3.2764599366963409E-010
   8.7000000000000133E-003    -4.5178114027599747E-010
   9.8000000000000032E-003    -6.1710719867491548E-010
   1.0900000000000021E-002    -6.1411059570914972E-010
   1.2000000000000011E-002    -4.6203027515012707E-010
   1.3100000000000001E-002    -4.5142120597141400E-010
   1.4200000000000018E-002    -7.4753236933844391E-010
   1.5300000000000008E-002    -1.1770301400204630E-009
   1.6400000000000026E-002    -1.4716680096782397E-009
   1.7500000000000016E-002    -1.5436545375280275E-009
   1.8600000000000005E-002    -1.5273033948659531E-009
   1.9700000000000023E-002    -1.5623164983935567E-009
   2.0800000000000013E-002    -1.6180914386154654E-009
   2.1900000000000003E-002    -1.6278027814564666E-009
   2.3000000000000020E-002    -1.7071890567876835E-009
   2.4100000000000010E-002    -1.8799468648467155E-009
   2.5200000000000000E-002    -2.1171899788896553E-009
   2.6300000000000018E-002    -2.3576627317112298E-009
   2.7400000000000008E-002    -2.5782866952539507E-009
   2.8500000000000025E-002    -2.8420195086198419E-009
   2.9600000000000015E-002    -3.3527565168611773E-009
   3.0700000000000005E-002    -3.5045339963346578E-009
   3.1800000000000023E-002    -3.1899980434957342E-009
   3.2900000000000013E-002    -2.8934072915376419E-009
   3.4000000000000002E-002    -2.9894580144684824E-009
   3.5100000000000020E-002    -3.1806624001262662E-009
   3.6200000000000010E-002    -3.0200049128126238E-009
   3.7300000000000028E-002    -2.5755992894005431E-009
   3.8400000000000017E-002    -2.4060458070351842E-009
   3.9500000000000007E-002    -2.6024078447761667E-009
   4.0600000000000025E-002    -2.9304894066939369E-009
   4.1700000000000015E-002    -3.1474403083819880E-009
   4.2800000000000005E-002    -2.5648578816372947E-009
   4.3900000000000022E-002    -1.7253699580166426E-009
   4.5000000000000012E-002    -5.4926108106201355E-010
   4.6100000000000002E-002    -1.2859041956247985E-011
   4.7200000000000020E-002     1.3228355910666068E-010
   4.8300000000000010E-002     7.7071893311853046E-010
   4.9400000000000027E-002     1.6492075483043322E-009
   5.0500000000000017E-002     2.8095092918789533E-009
   5.1600000000000007E-002     3.4240346113989517E-009
   5.2700000000000025E-002     4.4331311954692865E-009
   5.3800000000000014E-002     5.5584918889906021E-009
   5.4900000000000004E-002     6.0715033001201846E-009
   5.6000000000000022E-002     6.4248717457360272E-009
   5.7100000000000012E-002     7.9302049371676731E-009
   5.8200000000000002E-002     1.0015545726105302E-008
   5.9300000000000019E-002     1.0866963329192458E-008
   6.0400000000000009E-002     1.0759876545307634E-008
   6.1500000000000027E-002     1.1097577967689176E-008
   6.2600000000000017E-002     1.2915750247088909E-008
   6.3700000000000007E-002     1.4116814384124154E-008
   6.4800000000000024E-002     1.4536691850253192E-008
   6.5900000000000014E-002     1.3865267156631944E-008
   6.7000000000000004E-002     1.3212085647751337E-008
   6.8100000000000022E-002     1.3886952032748923E-008
   6.9200000000000012E-002     1.5582736878627657E-008
   7.0300000000000029E-002     1.5839955125329652E-008
   7.1400000000000019E-002     1.4977249662706527E-008
   7.2500000000000009E-002     1.2060796805712926E-008
   7.3600000000000027E-002     8.8414395804647938E-009
   7.4700000000000016E-002     7.9361592852933427E-009
   7.5800000000000006E-002     1.0032764841128028E-008
   7.6900000000000024E-002     1.2416254691061113E-008
   7.8000000000000014E-002     1.0569378261493512E-008
   7.9100000000000004E-002     4.2392787058531667E-009
   8.0200000000000021E-002    -1.2499261625720237E-009
   8.1300000000000011E-002    -1.8693395720248418E-009
   8.2400000000000029E-002    -8.4351098328383500E-010
   8.3500000000000019E-002    -7.2928296734886544E-010
   8.4600000000000009E-002    -2.8445708011304305E-009
   8.5700000000000026E-002    -7.4953190321025431E-009
   8.6800000000000016E-002    -1.3053955250086346E-008
   8.7900000000000006E-002    -1.6934148305836061E-008
   8.9000000000000024E-002    -1.6376931810668793E-008
   9.0100000000000013E-002    -1.2253920544935681E-008
   9.1200000000000003E-002    -8.8934717368260863E-009
   9.2300000000000021E-002    -1.2766297352584388E-008
   9.3400000000000011E-002    -2.2592907100715820E-008
   9.4500000000000028E-002    -3.0037679010774809E-008
   9.5600000000000018E-002    -2.6946441522568421E-008
   9.6700000000000008E-002    -1.7073547908807996E-008
   9.7800000000000026E-002    -1.1298410207416509E-008
   9.8900000000000016E-002    -1.5132325614786168E-008
  0.10000000000000001         -2.3031537565998406E-008
  0.10110000000000002         -2.8044635058677159E-008
  0.10220000000000001         -2.5506938783337318E-008
  0.10330000000000003         -1.7929098206082017E-008
  0.10440000000000002         -9.7217798256110655E-009
  0.10550000000000001         -5.6162203776466413E-009
  0.10660000000000003         -8.8943155063248014E-009
  0.10770000000000002         -1.6518399093001790E-008
  0.10880000000000001         -1.7689398390530187E-008
  0.10990000000000003         -1.0486814083776608E-008
  0.11100000000000002          4.4835529733333601E-010
  0.11210000000000001          5.0901185488783085E-009
  0.11320000000000002          2.9963604930571819E-009
  0.11430000000000001         -1.9266570561171648E-009
  0.11540000000000003         -4.1139918138810572E-009
  0.11650000000000002         -1.7180681322059854E-009
  0.11760000000000001          6.3908376368715381E-009
  0.11870000000000003          1.6520852241797002E-008
  0.11980000000000002          1.8928016487507193E-008
  0.12090000000000001          1.2791169012871251E-008
  0.12200000000000003          4.2550003520602786E-009
  0.12310000000000001          1.6234126265501914E-009
  0.12420000000000003          9.2415808339296746E-009
  0.12530000000000002          2.0037498771330320E-008
  0.12640000000000001          2.3130398929538387E-008
  0.12750000000000003          1.5260413377404802E-008
  0.12860000000000002          5.5315458880045298E-009
  0.12970000000000001          1.9392225603098723E-009
  0.13080000000000003          7.5303407953697388E-009
  0.13190000000000002          1.6124468871225872E-008
  0.13300000000000001          2.0211754048204966E-008
  0.13410000000000000          1.6107751577010276E-008
  0.13520000000000004          6.7132970293926064E-009
  0.13630000000000003         -6.3049843124218796E-010
  0.13740000000000002         -8.4346152284808795E-010
  0.13850000000000001          5.5735913662147141E-009
  0.13960000000000000          1.1845783021158240E-008
  0.14070000000000005          1.0859039001331894E-008
  0.14180000000000004          2.2073107786013679E-009
  0.14290000000000003         -6.3371214942264942E-009
  0.14400000000000002         -7.0230767867940358E-009
  0.14510000000000001          1.2480423638994154E-010
  0.14620000000000000          7.8074364751046232E-009
  0.14730000000000004          9.5279544254367465E-009
  0.14840000000000003          4.3477266231661815E-009
  0.14950000000000002         -4.1719796506356488E-009
  0.15060000000000001         -1.1225934848368979E-008
  0.15170000000000000         -1.1896928775456672E-008
  0.15280000000000005         -5.2998214705723967E-009
  0.15390000000000004          4.2830867741372458E-009
  0.15500000000000003          7.9641733208291043E-009
  0.15610000000000002          5.3053311743767040E-010
  0.15720000000000001         -1.0997418087299593E-008
  0.15830000000000000         -1.4421214444837460E-008
  0.15940000000000004         -4.4924761688491799E-009
  0.16050000000000003          8.7685982919083472E-009
  0.16160000000000002          1.0991739074484030E-008
  0.16270000000000001         -7.1665090528583164E-011
  0.16380000000000000         -1.2406840887990711E-008
  0.16490000000000005         -1.4882028942508896E-008
  0.16600000000000004         -7.3767028041515914E-009
  0.16710000000000003          2.2381030362339516E-009
  0.16820000000000002          7.7267898745958519E-009
  0.16930000000000001          6.8758772009402946E-009
  0.17040000000000000         -8.0696027637827683E-010
  0.17150000000000004         -1.0956577867204942E-008
  0.17260000000000003         -1.4226144706697141E-008
  0.17370000000000002         -3.8701983839928289E-009
  0.17480000000000001          1.2652231262677560E-008
  0.17590000000000000          1.7352148162785852E-008
  0.17700000000000005          2.7190354412454099E-009
  0.17810000000000004         -1.6679091885407615E-008
  0.17920000000000003         -1.9477518264920946E-008
  0.18030000000000002         -2.6303277333994401E-009
  0.18140000000000001          1.4607495657514846E-008
  0.18250000000000000          1.4577523188563646E-008
  0.18360000000000004          9.3522511956933840E-010
  0.18470000000000003         -9.3461212102852187E-009
  0.18580000000000002         -7.7795201391950286E-009
  0.18690000000000001         -8.0802009527758401E-010
  0.18800000000000000          3.6054541574515042E-009
  0.18910000000000005          5.0960431430269182E-009
  0.19020000000000004          4.8599382296288240E-009
  0.19130000000000003          4.5723475006198555E-010
  0.19240000000000002         -8.0031616889186807E-009
  0.19350000000000001         -1.1336691585484004E-008
  0.19460000000000005         -1.5833592215130921E-009
  0.19570000000000004          1.3318335767564804E-008
  0.19680000000000003          1.5226804706003350E-008
  0.19790000000000002         -1.6463931606924831E-010
  0.19900000000000001         -1.5011648812901512E-008
  0.20010000000000000         -1.1769977881215254E-008
  0.20120000000000005          4.0777194953989238E-009
  0.20230000000000004          1.1705313163190567E-008
  0.20340000000000003          3.3938452048687395E-009
  0.20450000000000002         -6.6716530078281266E-009
  0.20560000000000000         -4.7688897275577347E-009
  0.20670000000000005          3.5277292198543364E-009
  0.20780000000000004          4.7749457721124600E-009
  0.20890000000000003         -1.1517584663778280E-009
