 -0.12000000000000000          0.0000000000000000     
 -0.11889999999999999          0.0000000000000000     
 -0.11780000000000000          0.0000000000000000     
 -0.11670000000000000          0.0000000000000000     
 -0.11559999999999999          0.0000000000000000     
 -0.11449999999999999          0.0000000000000000     
 -0.11340000000000000          2.0533348363684509E-018
 -0.11230000000000000         -9.6979957825181736E-019
 -0.11119999999999999         -2.4896559831598607E-017
 -0.11009999999999999          3.8447557530714802E-018
 -0.10900000000000000          1.6964722621721909E-016
 -0.10790000000000000          4.5645503722958325E-017
 -0.10679999999999999         -8.1148853311175371E-016
 -0.10569999999999999         -6.2107780297003274E-016
 -0.10460000000000000          2.8311625216930576E-015
 -0.10349999999999999          3.8672674105763843E-015
 -0.10239999999999999         -6.9812214108309466E-015
 -0.10130000000000000         -1.5927695631596378E-014
 -0.10020000000000000          1.0528583111954221E-014
  -9.9099999999999994E-002     4.8915024456050102E-014
  -9.7999999999999990E-002    -1.9299613939453711E-016
  -9.6899999999999986E-002    -1.2244418261427026E-013
  -9.5799999999999996E-002    -6.3902693087179024E-014
  -9.4699999999999993E-002     2.6441327426185435E-013
  -9.3599999999999989E-002     3.0360479755242586E-013
  -9.2499999999999999E-002    -4.5358888086516336E-013
  -9.1399999999999995E-002    -1.0170527614539182E-012
  -9.0299999999999991E-002     3.3441513989408700E-013
  -8.9200000000000002E-002     2.5192732015094643E-012
  -8.8099999999999984E-002     1.2114471752144862E-012
  -8.6999999999999994E-002    -4.2207617609313353E-012
  -8.5899999999999990E-002    -5.6304080321700756E-012
  -8.4799999999999986E-002     3.6200545599357481E-012
  -8.3699999999999997E-002     1.2731349828543070E-011
  -8.2599999999999993E-002     2.5865579209721767E-012
  -8.1499999999999989E-002    -1.9879735010941424E-011
  -8.0399999999999999E-002    -1.6754595974499686E-011
  -7.9299999999999995E-002     2.3728942422085453E-011
  -7.8199999999999992E-002     4.3523410570012189E-011
  -7.7100000000000002E-002    -1.4428699554591695E-011
  -7.5999999999999984E-002    -8.7705405438232020E-011
  -7.4899999999999994E-002    -3.8045993439039805E-011
  -7.3799999999999991E-002     1.2360085177576252E-010
  -7.2699999999999987E-002     1.6119601486952462E-010
  -7.1599999999999997E-002    -7.3054944038641878E-011
  -7.0499999999999993E-002    -3.0860158872769716E-010
  -6.9399999999999989E-002    -1.2512146874144037E-010
  -6.8300000000000000E-002     3.5897551597940947E-010
  -6.7199999999999996E-002     4.3188269627236764E-010
  -6.6099999999999992E-002    -2.1898752255999909E-010
  -6.5000000000000002E-002    -7.6476258659141649E-010
  -6.3899999999999985E-002    -1.9117768479404162E-010
  -6.2799999999999995E-002     9.9250518914573149E-010
  -6.1699999999999991E-002     9.8562458195061708E-010
  -6.0599999999999994E-002    -7.2366673764534539E-010
  -5.9499999999999990E-002    -1.9550792096367786E-009
  -5.8399999999999994E-002    -4.7684600712472047E-010
  -5.7299999999999990E-002     2.2874799832095505E-009
  -5.6199999999999986E-002     2.3349362443525479E-009
  -5.5099999999999996E-002    -1.2367724622208698E-009
  -5.3999999999999992E-002    -3.8300824733994432E-009
  -5.2899999999999989E-002    -1.1312031311661030E-009
  -5.1799999999999985E-002     3.9615870583986634E-009
  -5.0699999999999995E-002     4.0896201980444857E-009
  -4.9599999999999991E-002    -2.0811075085447328E-009
  -4.8499999999999988E-002    -6.4193894644404281E-009
  -4.7399999999999998E-002    -1.9148862495654839E-009
  -4.6299999999999994E-002     6.3437308739366927E-009
  -4.5199999999999990E-002     6.7492114119716007E-009
  -4.4099999999999986E-002    -2.4029982448325882E-009
  -4.2999999999999997E-002    -9.0708143218876103E-009
  -4.1899999999999993E-002    -3.7452747569943767E-009
  -4.0799999999999989E-002     6.4203602434531604E-009
  -3.9699999999999985E-002     7.1585932737150415E-009
  -3.8599999999999995E-002    -2.1858581611411410E-009
  -3.7499999999999992E-002    -7.3953168033824568E-009
  -3.6399999999999988E-002    -5.5819965316672437E-010
  -3.5299999999999984E-002     7.8191844110619968E-009
  -3.4199999999999994E-002     4.8953681108798719E-009
  -3.3099999999999991E-002    -4.5488022237805126E-009
  -3.1999999999999987E-002    -6.0362936871172224E-009
  -3.0899999999999997E-002     6.7444633211621863E-010
  -2.9799999999999993E-002     1.0905687464202174E-009
  -2.8699999999999989E-002    -7.9049655710150546E-009
  -2.7599999999999986E-002    -8.6098701501668984E-009
  -2.6499999999999996E-002     8.9813285697459833E-009
  -2.5399999999999992E-002     2.3493804235386051E-008
  -2.4299999999999988E-002     8.4794224974871213E-009
  -2.3199999999999985E-002    -2.2925455311906262E-008
  -2.2099999999999995E-002    -2.7309566164035459E-008
  -2.0999999999999991E-002     6.6201089055084594E-009
  -1.9899999999999987E-002     3.2309547037812081E-008
  -1.8799999999999983E-002     6.5042078389865310E-009
  -1.7699999999999994E-002    -4.2004355549352113E-008
  -1.6599999999999990E-002    -4.2517591225532669E-008
  -1.5499999999999986E-002     1.8239914467699236E-008
  -1.4399999999999996E-002     6.7605817832827597E-008
  -1.3299999999999992E-002     4.0112883681331368E-008
  -1.2199999999999989E-002    -3.2634265068054447E-008
  -1.1099999999999985E-002    -6.3702103147988964E-008
  -9.9999999999999950E-003    -2.7661700485737128E-008
  -8.8999999999999913E-003     1.2809627136789459E-008
  -7.7999999999999875E-003     2.9783338018063432E-009
  -6.6999999999999837E-003    -3.0465045597338758E-008
  -5.5999999999999939E-003    -3.1134490541262494E-008
  -4.4999999999999901E-003    -2.0455694083043596E-010
  -3.3999999999999864E-003     1.7539139918198998E-008
  -2.2999999999999826E-003     1.3508245189086665E-008
  -1.1999999999999927E-003     1.9136978224310042E-008
  -9.9999999999988987E-005     2.7016813675118101E-008
   1.0000000000000148E-003    -2.0826394830919526E-008
   2.1000000000000185E-003    -1.2669885052218888E-007
   3.2000000000000084E-003    -1.8373067689481104E-007
   4.3000000000000121E-003    -1.0044662701602647E-007
   5.4000000000000159E-003     4.8748148628874333E-008
   6.5000000000000058E-003     8.7413269511671388E-008
   7.6000000000000234E-003    -2.7671754665448134E-008
   8.7000000000000133E-003    -1.2955976558259863E-007
   9.8000000000000032E-003    -6.6897712258651154E-008
   1.0900000000000021E-002     7.2931740646708931E-008
   1.2000000000000011E-002     6.7567526684797485E-008
   1.3100000000000001E-002    -1.3497769657533354E-007
   1.4200000000000018E-002    -3.3303129498563067E-007
   1.5300000000000008E-002    -3.2924074844231654E-007
   1.6400000000000026E-002    -1.6558357174289995E-007
   1.7500000000000016E-002    -3.2136949101868595E-008
   1.8600000000000005E-002    -1.3731045633846861E-008
   1.9700000000000023E-002    -3.4239366897281798E-008
   2.0800000000000013E-002    -3.1419812529520641E-008
   2.1900000000000003E-002    -4.6878444237563599E-008
   2.3000000000000020E-002    -1.0882531853440014E-007
   2.4100000000000010E-002    -1.6962991367108771E-007
   2.5200000000000000E-002    -1.8204774221430853E-007
   2.6300000000000018E-002    -2.0070001482963562E-007
   2.7400000000000008E-002    -2.9110853461133956E-007
   2.8500000000000025E-002    -3.4032842677333974E-007
   2.9600000000000015E-002    -2.2135533583877987E-007
   3.0700000000000005E-002     9.3725915917275415E-009
   3.1800000000000023E-002     1.2188327502826724E-007
   3.2900000000000013E-002     9.7202281779118493E-008
   3.4000000000000002E-002     3.0497712799615329E-008
   3.5100000000000020E-002     4.4856655279090774E-008
   3.6200000000000010E-002     1.0669412375818865E-007
   3.7300000000000028E-002     9.3764413122698897E-008
   3.8400000000000017E-002     7.6959480566074490E-008
   3.9500000000000007E-002    -1.1362512319923468E-010
   4.0600000000000025E-002    -3.8717016259681714E-009
   4.1700000000000015E-002     2.2663815002488263E-007
   4.2800000000000005E-002     4.5999871645108215E-007
   4.3900000000000022E-002     4.3383874981373083E-007
   4.5000000000000012E-002     3.3129202847703709E-007
   4.6100000000000002E-002     4.5238527945912210E-007
   4.7200000000000020E-002     7.1905333243194036E-007
   4.8300000000000010E-002     8.7555639538550167E-007
   4.9400000000000027E-002     9.8779560175898951E-007
   5.0500000000000017E-002     8.7337156173816766E-007
   5.1600000000000007E-002     5.0713225618892466E-007
   5.2700000000000025E-002     4.1852902654682111E-007
   5.3800000000000014E-002     7.5150109068999882E-007
   5.4900000000000004E-002     1.3102936691211653E-006
   5.6000000000000022E-002     1.4886358030707925E-006
   5.7100000000000012E-002     9.4877037781770923E-007
   5.8200000000000002E-002     2.7411982728153816E-007
   5.9300000000000019E-002     1.2783324621068459E-007
   6.0400000000000009E-002     7.9414616038775421E-007
   6.1500000000000027E-002     1.2730014304906945E-006
   6.2600000000000017E-002     8.3472343703760998E-007
   6.3700000000000007E-002     2.5241001821996178E-007
   6.4800000000000024E-002     4.8529972218602779E-007
   6.5900000000000014E-002     1.1781195325966110E-006
   6.7000000000000004E-002     6.6426048306311714E-007
   6.8100000000000022E-002    -7.3696639901754679E-007
   6.9200000000000012E-002    -9.2938103080086876E-007
   7.0300000000000029E-002     2.4540352683288802E-007
   7.1400000000000019E-002    -1.5741478875952453E-007
   7.2500000000000009E-002    -2.7314479211781872E-006
   7.3600000000000027E-002    -3.6627529880206566E-006
   7.4700000000000016E-002    -5.0783876304194564E-007
   7.5800000000000006E-002     3.3386620543751633E-006
   7.6900000000000024E-002     2.3882328150648391E-006
   7.8000000000000014E-002    -2.9675204586965265E-006
   7.9100000000000004E-002    -7.0116270762810018E-006
   8.0200000000000021E-002    -5.4137803999765310E-006
   8.1300000000000011E-002    -2.1872502031783370E-007
   8.2400000000000029E-002     2.6277277811459498E-006
   8.3500000000000019E-002     4.8940881924863788E-007
   8.4600000000000009E-002    -4.1672569750517141E-006
   8.5700000000000026E-002    -6.5175017880392261E-006
   8.6800000000000016E-002    -4.3673062464222312E-006
   8.7900000000000006E-002     2.3785800351561193E-007
   8.9000000000000024E-002     3.4539571061031893E-006
   9.0100000000000013E-002     2.6692605388234369E-006
   9.1200000000000003E-002    -1.4739840707989060E-006
   9.2300000000000021E-002    -6.0005672821716871E-006
   9.3400000000000011E-002    -7.1232802838494536E-006
   9.4500000000000028E-002    -2.4207924980146345E-006
   9.5600000000000018E-002     4.7884582272672560E-006
   9.6700000000000008E-002     7.3346800490980968E-006
   9.7800000000000026E-002     1.9656613403640222E-006
   9.8900000000000016E-002    -6.0042320910724811E-006
  0.10000000000000001         -7.8076845966279507E-006
  0.10110000000000002         -8.0048664585774532E-007
  0.10220000000000001          8.3971699496032670E-006
  0.10330000000000003          1.0472979738551658E-005
  0.10440000000000002          3.4350910027569626E-006
  0.10550000000000001         -5.0824933168769348E-006
  0.10660000000000003         -6.7687478804145940E-006
  0.10770000000000002         -9.0257094598200638E-007
  0.10880000000000001          6.7205342020315584E-006
  0.10990000000000003          9.1027750386274420E-006
  0.11100000000000002          5.2300724746601190E-006
  0.11210000000000001         -3.8910198441044486E-007
  0.11320000000000002         -4.7593712224625051E-006
  0.11430000000000001         -4.4795042413170449E-006
  0.11540000000000003          2.2241870283323806E-006
  0.11650000000000002          1.0312577614968177E-005
  0.11760000000000001          1.1065899343520869E-005
  0.11870000000000003          8.2398963741070474E-007
  0.11980000000000002         -1.0349009244237095E-005
  0.12090000000000001         -9.9406661320244893E-006
  0.12200000000000003          1.3909415201851516E-006
  0.12310000000000001          1.1394093235139735E-005
  0.12420000000000003          9.7740676210378297E-006
  0.12530000000000002         -3.3314518077531829E-007
  0.12640000000000001         -8.0996114775189199E-006
  0.12750000000000003         -7.4397676144144498E-006
  0.12860000000000002         -1.3660328477271833E-006
  0.12970000000000001          3.4467871046217624E-006
  0.13080000000000003          4.8533543122175615E-006
  0.13190000000000002          3.4840702483052155E-006
  0.13300000000000001         -9.8995815278613009E-007
  0.13410000000000000         -7.0501955633517355E-006
  0.13520000000000004         -8.8431852418580092E-006
  0.13630000000000003         -1.7728089005686343E-006
  0.13740000000000002          8.5083083831705153E-006
  0.13850000000000001          9.9470453278627247E-006
  0.13960000000000000         -7.9065785030252300E-007
  0.14070000000000005         -1.2219757991260849E-005
  0.14180000000000004         -1.1332928806950804E-005
  0.14290000000000003          2.0907492626065505E-007
  0.14400000000000002          8.8135257101384923E-006
  0.14510000000000001          6.3061488617677242E-006
  0.14620000000000000         -1.4284429425970302E-006
  0.14730000000000004         -4.8315796448150650E-006
  0.14840000000000003         -3.2737380024627782E-006
  0.14950000000000002         -1.9488077214191435E-006
  0.15060000000000001         -1.3562610092776595E-006
  0.15170000000000000          2.3771042378939455E-006
  0.15280000000000005          7.3404657996434253E-006
  0.15390000000000004          5.2606201279559173E-006
  0.15500000000000003         -5.5712098401272669E-006
  0.15610000000000002         -1.3846609363099560E-005
  0.15720000000000001         -7.8605853559565730E-006
  0.15830000000000000          7.6234578045841772E-006
  0.15940000000000004          1.4923857634130400E-005
  0.16050000000000003          5.8680930123955477E-006
  0.16160000000000002         -7.5399075285531580E-006
  0.16270000000000001         -9.7396696219220757E-006
  0.16380000000000000         -1.2411300076564658E-006
  0.16490000000000005          5.3943999773764517E-006
  0.16600000000000004          4.0353775148105342E-006
  0.16710000000000003          7.0724638590036193E-007
  0.16820000000000002          6.3474288936049561E-007
  0.16930000000000001         -4.7067257469279866E-007
  0.17040000000000000         -5.8854388953477610E-006
  0.17150000000000004         -8.1766984294517897E-006
  0.17260000000000003          7.1356282660417492E-007
  0.17370000000000002          1.3458072317007463E-005
  0.17480000000000001          1.3066893188806716E-005
  0.17590000000000000         -3.0737396627955604E-006
  0.17700000000000005         -1.6376650819438510E-005
  0.17810000000000004         -1.0296925211150665E-005
  0.17920000000000003          7.2020552579488140E-006
  0.18030000000000002          1.3941934412287083E-005
  0.18140000000000001          3.3334201816614950E-006
  0.18250000000000000         -8.5709716586279683E-006
  0.18360000000000004         -7.1868171289679594E-006
  0.18470000000000003          1.8021202095042099E-006
  0.18580000000000002          4.3611889850581065E-006
  0.18690000000000001         -2.9182597671706390E-008
  0.18800000000000000         -5.2784122317461879E-007
  0.18910000000000005          4.5440697249432560E-006
  0.19020000000000004          4.2112292248930316E-006
  0.19130000000000003         -5.4854440350027289E-006
  0.19240000000000002         -1.1658132279990241E-005
  0.19350000000000001         -2.8115516670368379E-006
  0.19460000000000005          1.1499780157464556E-005
  0.19570000000000004          1.1745664778572973E-005
  0.19680000000000003         -3.2834252579050371E-006
  0.19790000000000002         -1.3287221918290015E-005
  0.19900000000000001         -5.0034154810418840E-006
  0.20010000000000000          8.9370178102399223E-006
  0.20120000000000005          8.8139040599344298E-006
  0.20230000000000004         -3.6310684663476422E-006
  0.20340000000000003         -9.1114452516194433E-006
  0.20450000000000002         -3.2420874163108238E-007
  0.20560000000000000          7.9507772170472890E-006
  0.20670000000000005          2.7440455596661195E-006
  0.20780000000000004         -6.9666234594478738E-006
  0.20890000000000003         -4.9230316108150873E-006
