 -0.12000000000000000          0.0000000000000000     
 -0.11889999999999999         -2.3804462398402393E-004
 -0.11780000000000000          1.6688909090589732E-004
 -0.11670000000000000          6.6972925560548902E-004
 -0.11559999999999999         -1.1048441228922457E-004
 -0.11449999999999999         -1.1875819182023406E-003
 -0.11340000000000000         -2.8042783378623426E-004
 -0.11230000000000000          1.4356311876326799E-003
 -0.11119999999999999          3.2772312988527119E-004
 -0.11009999999999999         -2.5303363800048828E-003
 -0.10900000000000000         -1.1085482547059655E-003
 -0.10790000000000000          5.0206361338496208E-003
 -0.10679999999999999          6.4050024375319481E-003
 -0.10569999999999999         -2.7467783074826002E-003
 -0.10460000000000000         -1.1950998567044735E-002
 -0.10349999999999999         -6.5400348976254463E-003
 -0.10239999999999999          8.9880032464861870E-003
 -0.10130000000000000          1.3437520712614059E-002
 -0.10020000000000000         -8.5764256073161960E-004
  -9.9099999999999994E-002    -1.4127862639725208E-002
  -9.7999999999999990E-002    -6.5306443721055984E-003
  -9.6899999999999986E-002     1.1461478658020496E-002
  -9.5799999999999996E-002     1.3230031356215477E-002
  -9.4699999999999993E-002    -4.0341480635106564E-003
  -9.3599999999999989E-002    -1.4631012454628944E-002
  -9.2499999999999999E-002    -3.7690037861466408E-003
  -9.1399999999999995E-002     9.6112620085477829E-003
  -9.0299999999999991E-002     3.2291109673678875E-003
  -8.9200000000000002E-002    -1.2479634955525398E-002
  -8.8099999999999984E-002    -1.1040860787034035E-002
  -8.6999999999999994E-002     6.2278299592435360E-003
  -8.5899999999999990E-002     1.0888456366956234E-002
  -8.4799999999999986E-002    -5.9583969414234161E-003
  -8.3699999999999997E-002    -1.6754129901528358E-002
  -8.2599999999999993E-002    -1.7533885547891259E-003
  -8.1499999999999989E-002     1.5199365094304085E-002
  -8.0399999999999999E-002     1.9376494456082582E-003
  -7.9299999999999995E-002    -2.7117192745208740E-002
  -7.8199999999999992E-002    -2.7603210881352425E-002
  -7.7100000000000002E-002     4.4783186167478561E-003
  -7.5999999999999984E-002     1.9044239073991776E-002
  -7.4899999999999994E-002    -1.4634957537055016E-002
  -7.3799999999999991E-002    -5.5820371955633163E-002
  -7.2699999999999987E-002    -4.7623552381992340E-002
  -7.1599999999999997E-002    -2.9548250604420900E-003
  -7.0499999999999993E-002     1.0166016407310963E-002
  -6.9399999999999989E-002    -3.2849531620740891E-002
  -6.8300000000000000E-002    -7.7495232224464417E-002
  -6.7199999999999996E-002    -7.1866549551486969E-002
  -6.6099999999999992E-002    -4.1785959154367447E-002
  -6.5000000000000002E-002    -4.6495899558067322E-002
  -6.3899999999999985E-002    -8.6979098618030548E-002
  -6.2799999999999995E-002   -0.11066696047782898     
  -6.1699999999999991E-002   -0.10123332589864731     
  -6.0599999999999994E-002   -0.10588069260120392     
  -5.9499999999999990E-002   -0.15351256728172302     
  -5.8399999999999994E-002   -0.19862218201160431     
  -5.7299999999999990E-002   -0.19040952622890472     
  -5.6199999999999986E-002   -0.16318483650684357     
  -5.5099999999999996E-002   -0.19614845514297485     
  -5.3999999999999992E-002   -0.29097953438758850     
  -5.2899999999999989E-002   -0.35718971490859985     
  -5.1799999999999985E-002   -0.34126746654510498     
  -5.0699999999999995E-002   -0.31019860506057739     
  -4.9599999999999991E-002   -0.35722157359123230     
  -4.8499999999999988E-002   -0.46517297625541687     
  -4.7399999999999998E-002   -0.53224718570709229     
  -4.6299999999999994E-002   -0.52325505018234253     
  -4.5199999999999990E-002   -0.51698631048202515     
  -4.4099999999999986E-002   -0.58169293403625488     
  -4.2999999999999997E-002   -0.67141121625900269     
  -4.1899999999999993E-002   -0.70264977216720581     
  -4.0799999999999989E-002   -0.68643730878829956     
  -3.9699999999999985E-002   -0.70701593160629272     
  -3.8599999999999995E-002   -0.78325116634368896     
  -3.7499999999999992E-002   -0.83285492658615112     
  -3.6399999999999988E-002   -0.80115568637847900     
  -3.5299999999999984E-002   -0.75005996227264404     
  -3.4199999999999994E-002   -0.76329636573791504     
  -3.3099999999999991E-002   -0.80955296754837036     
  -3.1999999999999987E-002   -0.78310626745223999     
  -3.0899999999999997E-002   -0.66532582044601440     
  -2.9799999999999993E-002   -0.55760067701339722     
  -2.8699999999999989E-002   -0.52421051263809204     
  -2.7599999999999986E-002   -0.48884010314941406     
  -2.6499999999999996E-002   -0.34414321184158325     
  -2.5399999999999992E-002   -0.11762953549623489     
  -2.4299999999999988E-002     7.0318140089511871E-002
  -2.3199999999999985E-002    0.18713603913784027     
  -2.2099999999999995E-002    0.33874681591987610     
  -2.0999999999999991E-002    0.60707849264144897     
  -1.9899999999999987E-002    0.93096143007278442     
  -1.8799999999999983E-002     1.1978746652603149     
  -1.7699999999999994E-002     1.4130647182464600     
  -1.6599999999999990E-002     1.6820684671401978     
  -1.5499999999999986E-002     2.0387637615203857     
  -1.4399999999999996E-002     2.3931965827941895     
  -1.3299999999999992E-002     2.6689715385437012     
  -1.2199999999999989E-002     2.9200739860534668     
  -1.1099999999999985E-002     3.2378396987915039     
  -9.9999999999999950E-003     3.5944340229034424     
  -8.8999999999999913E-003     3.8745200634002686     
  -7.7999999999999875E-003     4.0432534217834473     
  -6.6999999999999837E-003     4.1981406211853027     
  -5.5999999999999939E-003     4.4131240844726562     
  -4.4999999999999901E-003     4.6104979515075684     
  -3.3999999999999864E-003     4.6775999069213867     
  -2.2999999999999826E-003     4.6199226379394531     
  -1.1999999999999927E-003     4.5422482490539551     
  -9.9999999999988987E-005     4.4876022338867188     
   1.0000000000000148E-003     4.3664236068725586     
   2.1000000000000185E-003     4.0920114517211914     
   3.2000000000000084E-003     3.7109520435333252     
   4.3000000000000121E-003     3.3257608413696289     
   5.4000000000000159E-003     2.9375143051147461     
   6.5000000000000058E-003     2.4457759857177734     
   7.6000000000000234E-003     1.8073800802230835     
   8.7000000000000133E-003     1.1116666793823242     
   9.8000000000000032E-003    0.45117971301078796     
   1.0900000000000021E-002   -0.20875200629234314     
   1.2000000000000011E-002   -0.96020907163619995     
   1.3100000000000001E-002    -1.7968109846115112     
   1.4200000000000018E-002    -2.6186232566833496     
   1.5300000000000008E-002    -3.3693692684173584     
   1.6400000000000026E-002    -4.1011776924133301     
   1.7500000000000016E-002    -4.8674817085266113     
   1.8600000000000005E-002    -5.6181368827819824     
   1.9700000000000023E-002    -6.2656841278076172     
   2.0800000000000013E-002    -6.8049468994140625     
   2.1900000000000003E-002    -7.3044233322143555     
   2.3000000000000020E-002    -7.7845540046691895     
   2.4100000000000010E-002    -8.1685123443603516     
   2.5200000000000000E-002    -8.3827295303344727     
   2.6300000000000018E-002    -8.4567584991455078     
   2.7400000000000008E-002    -8.4713125228881836     
   2.8500000000000025E-002    -8.4316968917846680     
   2.9600000000000015E-002    -8.2701606750488281     
   3.0700000000000005E-002    -7.9460983276367188     
   3.1800000000000023E-002    -7.5039639472961426     
   3.2900000000000013E-002    -7.0011281967163086     
   3.4000000000000002E-002    -6.4275155067443848     
   3.5100000000000020E-002    -5.7510776519775391     
   3.6200000000000010E-002    -4.9779081344604492     
   3.7300000000000028E-002    -4.1655564308166504     
   3.8400000000000017E-002    -3.3415932655334473     
   3.9500000000000007E-002    -2.4829897880554199     
   4.0600000000000025E-002    -1.5631796121597290     
   4.1700000000000015E-002   -0.62267315387725830     
   4.2800000000000005E-002    0.28427636623382568     
   4.3900000000000022E-002     1.1282105445861816     
   4.5000000000000012E-002     1.9384835958480835     
   4.6100000000000002E-002     2.7267301082611084     
   4.7200000000000020E-002     3.4749755859375000     
   4.8300000000000010E-002     4.1523308753967285     
   4.9400000000000027E-002     4.7396850585937500     
   5.0500000000000017E-002     5.2335114479064941     
   5.1600000000000007E-002     5.6385283470153809     
   5.2700000000000025E-002     5.9624986648559570     
   5.3800000000000014E-002     6.2020707130432129     
   5.4900000000000004E-002     6.3549070358276367     
   5.6000000000000022E-002     6.4131617546081543     
   5.7100000000000012E-002     6.3867101669311523     
   5.8200000000000002E-002     6.2851600646972656     
   5.9300000000000019E-002     6.1073737144470215     
   6.0400000000000009E-002     5.8494787216186523     
   6.1500000000000027E-002     5.5216794013977051     
   6.2600000000000017E-002     5.1571760177612305     
   6.3700000000000007E-002     4.7777891159057617     
   6.4800000000000024E-002     4.3657207489013672     
   6.5900000000000014E-002     3.8950731754302979     
   6.7000000000000004E-002     3.3804125785827637     
   6.8100000000000022E-002     2.8766934871673584     
   6.9200000000000012E-002     2.4131116867065430     
   7.0300000000000029E-002     1.9613000154495239     
   7.1400000000000019E-002     1.4855747222900391     
   7.2500000000000009E-002     1.0085536241531372     
   7.3600000000000027E-002    0.58470857143402100     
   7.4700000000000016E-002    0.22185300290584564     
   7.5800000000000006E-002   -0.12929064035415649     
   7.6900000000000024E-002   -0.49132552742958069     
   7.8000000000000014E-002   -0.81273025274276733     
   7.9100000000000004E-002    -1.0395483970642090     
   8.0200000000000021E-002    -1.2013672590255737     
   8.1300000000000011E-002    -1.3788301944732666     
   8.2400000000000029E-002    -1.5796192884445190     
   8.3500000000000019E-002    -1.7227432727813721     
   8.4600000000000009E-002    -1.7595305442810059     
   8.5700000000000026E-002    -1.7480947971343994     
   8.6800000000000016E-002    -1.7759249210357666     
   8.7900000000000006E-002    -1.8268489837646484     
   8.9000000000000024E-002    -1.8109856843948364     
   9.0100000000000013E-002    -1.7096719741821289     
   9.1200000000000003E-002    -1.6111260652542114     
   9.2300000000000021E-002    -1.5799491405487061     
   9.3400000000000011E-002    -1.5506693124771118     
   9.4500000000000028E-002    -1.4312938451766968     
   9.5600000000000018E-002    -1.2523374557495117     
   9.6700000000000008E-002    -1.1330171823501587     
   9.7800000000000026E-002    -1.1035962104797363     
   9.8900000000000016E-002    -1.0560525655746460     
  0.10000000000000001        -0.90538036823272705     
  0.10110000000000002        -0.72448545694351196     
  0.10220000000000001        -0.63465964794158936     
  0.10330000000000003        -0.62454986572265625     
  0.10440000000000002        -0.56768774986267090     
  0.10550000000000001        -0.42101326584815979     
  0.10660000000000003        -0.29394879937171936     
  0.10770000000000002        -0.27755832672119141     
  0.10880000000000001        -0.29768651723861694     
  0.10990000000000003        -0.22506843507289886     
  0.11100000000000002         -8.0435872077941895E-002
  0.11210000000000001         -1.0278138332068920E-002
  0.11320000000000002         -6.4033217728137970E-002
  0.11430000000000001        -0.11136373877525330     
  0.11540000000000003         -3.4546099603176117E-002
  0.11650000000000002          9.1694943606853485E-002
  0.11760000000000001         0.11236867308616638     
  0.11870000000000003          2.6768738403916359E-002
  0.11980000000000002         -1.1493594385683537E-002
  0.12090000000000001          6.9505408406257629E-002
  0.12200000000000003         0.15180175006389618     
  0.12310000000000001         0.11463038623332977     
  0.12420000000000003          2.4165024980902672E-002
  0.12530000000000002          3.0301993712782860E-002
  0.12640000000000001         0.12935067713260651     
  0.12750000000000003         0.16600246727466583     
  0.12860000000000002          7.4812866747379303E-002
  0.12970000000000001         -1.2466495856642723E-002
  0.13080000000000003          3.5422157496213913E-002
  0.13190000000000002         0.14486868679523468     
  0.13300000000000001         0.14549088478088379     
  0.13410000000000000          3.0221028253436089E-002
  0.13520000000000004         -3.2897092401981354E-002
  0.13630000000000003          4.4318098574876785E-002
  0.13740000000000002         0.13613380491733551     
  0.13850000000000001          9.7270615398883820E-002
  0.13960000000000000         -1.5419999137520790E-002
  0.14070000000000005         -3.2622642815113068E-002
  0.14180000000000004          6.5934576094150543E-002
  0.14290000000000003         0.12171142548322678     
  0.14400000000000002          4.3309055268764496E-002
  0.14510000000000001         -5.2074685692787170E-002
  0.14620000000000000         -2.1019242703914642E-002
  0.14730000000000004          8.4606319665908813E-002
  0.14840000000000003          9.8522819578647614E-002
  0.14950000000000002         -2.8581321239471436E-003
  0.15060000000000001         -6.4898066222667694E-002
  0.15170000000000000          5.5592809803783894E-003
  0.15280000000000005          9.5898509025573730E-002
  0.15390000000000004          6.2779381871223450E-002
  0.15500000000000003         -4.5714758336544037E-002
  0.15610000000000002         -6.3718155026435852E-002
  0.15720000000000001          3.6279264837503433E-002
  0.15830000000000000         0.10053667426109314     
  0.15940000000000004          2.9704108834266663E-002
  0.16050000000000003         -6.9576755166053772E-002
  0.16160000000000002         -4.8753432929515839E-002
  0.16270000000000001          5.6934073567390442E-002
  0.16380000000000000          8.5818491876125336E-002
  0.16490000000000005         -2.8824894689023495E-003
  0.16600000000000004         -7.1480989456176758E-002
  0.16710000000000003         -1.8413681536912918E-002
  0.16820000000000002          6.9040030241012573E-002
  0.16930000000000001          5.4403029382228851E-002
  0.17040000000000000         -3.6809239536523819E-002
  0.17150000000000004         -6.0944467782974243E-002
  0.17260000000000003          1.8900228664278984E-002
  0.17370000000000002          7.7151231467723846E-002
  0.17480000000000001          2.2225560620427132E-002
  0.17590000000000000         -6.1832197010517120E-002
  0.17700000000000005         -4.5998018234968185E-002
  0.17810000000000004          4.5249171555042267E-002
  0.17920000000000003          7.2757355868816376E-002
  0.18030000000000002         -3.9645885117352009E-003
  0.18140000000000001         -6.7581318318843842E-002
  0.18250000000000000         -2.4177951738238335E-002
  0.18360000000000004          5.6249339133501053E-002
  0.18470000000000003          5.1382910460233688E-002
  0.18580000000000002         -2.7178600430488586E-002
  0.18690000000000001         -5.7182293385267258E-002
  0.18800000000000000          4.5482055284082890E-003
  0.18910000000000005          6.0039859265089035E-002
  0.19020000000000004          2.4762576445937157E-002
  0.19130000000000003         -4.4165473431348801E-002
  0.19240000000000002         -4.0657654404640198E-002
  0.19350000000000001          2.6930915191769600E-002
  0.19460000000000005          5.3025733679533005E-002
  0.19570000000000004         -8.4904534742236137E-004
  0.19680000000000003         -4.9863461405038834E-002
  0.19790000000000002         -1.9615860655903816E-002
  0.19900000000000001          4.1168548166751862E-002
  0.20010000000000000          3.9249584078788757E-002
  0.20120000000000005         -1.9826328381896019E-002
  0.20230000000000004         -4.4447153806686401E-002
  0.20340000000000003          8.1494735786691308E-004
  0.20450000000000002          4.4109437614679337E-002
  0.20560000000000000          2.0114108920097351E-002
  0.20670000000000005         -3.1809289008378983E-002
  0.20780000000000004         -3.2062426209449768E-002
  0.20890000000000003          1.7047030851244926E-002
