 -0.12000000000000000          0.0000000000000000     
 -0.11889999999999999          0.0000000000000000     
 -0.11780000000000000          0.0000000000000000     
 -0.11670000000000000          0.0000000000000000     
 -0.11559999999999999          0.0000000000000000     
 -0.11449999999999999          0.0000000000000000     
 -0.11340000000000000          0.0000000000000000     
 -0.11230000000000000         -6.2610237604676322E-021
 -0.11119999999999999          3.3993552728363535E-020
 -0.11009999999999999          6.6132611759822930E-020
 -0.10900000000000000         -5.4153059011403205E-019
 -0.10790000000000000         -6.1443637644928938E-019
 -0.10679999999999999          4.7189384223909960E-018
 -0.10569999999999999          6.3246411615539258E-018
 -0.10460000000000000         -2.7583629581697516E-017
 -0.10349999999999999         -5.4655591706249330E-017
 -0.10239999999999999          1.0399251133545620E-016
 -0.10130000000000000          3.4698270579886946E-016
 -0.10020000000000000         -1.4753875308648560E-016
  -9.9099999999999994E-002    -1.5457923535752618E-015
  -9.7999999999999990E-002    -9.7597073770507329E-016
  -9.6899999999999986E-002     4.4037437745328943E-015
  -9.5799999999999996E-002     7.8493399727577219E-015
  -9.4699999999999993E-002    -4.8829111598275993E-015
  -9.3599999999999989E-002    -2.7708587309912928E-014
  -9.2499999999999999E-002    -1.8216561614194104E-014
  -9.1399999999999995E-002     4.7607642654490245E-014
  -9.0299999999999991E-002     9.6576690871916226E-014
  -8.9200000000000002E-002     1.2177732543335821E-014
  -8.8099999999999984E-002    -1.7227948126245785E-013
  -8.6999999999999994E-002    -2.3096270989481082E-013
  -8.5899999999999990E-002    -2.4176143129540223E-014
  -8.4799999999999986E-002     2.9305095676501747E-013
  -8.3699999999999997E-002     5.2691011276362332E-013
  -8.2599999999999993E-002     6.3044215030741424E-013
  -8.1499999999999989E-002     1.6605397883551892E-013
  -8.0399999999999999E-002    -1.7508367802440694E-012
  -7.9299999999999995E-002    -4.2292181041958532E-012
  -7.8199999999999992E-002    -2.6307530372887689E-012
  -7.7100000000000002E-002     6.7765294244070962E-012
  -7.5999999999999984E-002     1.6768978566839010E-011
  -7.4899999999999994E-002     9.4722181487316703E-012
  -7.3799999999999991E-002    -2.1455797208358440E-011
  -7.2699999999999987E-002    -4.7976862066478887E-011
  -7.1599999999999997E-002    -2.5492191690901223E-011
  -7.0499999999999993E-002     4.8791470863562836E-011
  -6.9399999999999989E-002     1.0636778957628934E-010
  -6.8300000000000000E-002     6.7245285728656512E-011
  -6.7199999999999996E-002    -6.2492719332674085E-011
  -6.6099999999999992E-002    -1.7933655949153859E-010
  -6.5000000000000002E-002    -1.8214096897395393E-010
  -6.3899999999999985E-002    -5.3834523644491483E-011
  -6.2799999999999995E-002     1.6733647800748486E-010
  -6.1699999999999991E-002     4.2062867078307420E-010
  -6.0599999999999994E-002     5.4232984769697623E-010
  -5.9499999999999990E-002     2.4110641261287924E-010
  -5.8399999999999994E-002    -5.9657090378806288E-010
  -5.7299999999999990E-002    -1.4758189115227083E-009
  -5.6199999999999986E-002    -1.4452158358935208E-009
  -5.5099999999999996E-002    -6.1618689317644026E-011
  -5.3999999999999992E-002     1.8243615507174127E-009
  -5.2899999999999989E-002     2.6890758508812951E-009
  -5.1799999999999985E-002     1.9513255455905210E-009
  -5.0699999999999995E-002     5.6001797643645546E-010
  -4.9599999999999991E-002    -4.4649889341386029E-010
  -4.8499999999999988E-002    -1.5386935059424900E-009
  -4.7399999999999998E-002    -3.8974610205855242E-009
  -4.6299999999999994E-002    -6.8687477927653617E-009
  -4.5199999999999990E-002    -7.3373165321299894E-009
  -4.4099999999999986E-002    -2.7024316118229308E-009
  -4.2999999999999997E-002     5.8674234360012179E-009
  -4.1899999999999993E-002     1.4143274995603861E-008
  -4.0799999999999989E-002     1.8592997363953145E-008
  -3.9699999999999985E-002     1.8176219640508862E-008
  -3.8599999999999995E-002     1.2447213926236600E-008
  -3.7499999999999992E-002     1.8125163869786576E-010
  -3.6399999999999988E-002    -1.8150169367459057E-008
  -3.5299999999999984E-002    -3.7640212724454614E-008
  -3.4199999999999994E-002    -5.1196593631175347E-008
  -3.3099999999999991E-002    -5.4442008234900641E-008
  -3.1999999999999987E-002    -4.5790621072683280E-008
  -3.0899999999999997E-002    -2.1594576793404485E-008
  -2.9799999999999993E-002     2.3918774516573649E-008
  -2.8699999999999989E-002     8.9255159707590792E-008
  -2.7599999999999986E-002     1.5776095096953213E-007
  -2.6499999999999996E-002     2.0408906209468114E-007
  -2.5399999999999992E-002     2.0895880936677713E-007
  -2.4299999999999988E-002     1.6317764561790682E-007
  -2.3199999999999985E-002     5.7764825811545961E-008
  -2.2099999999999995E-002    -1.1934373844724178E-007
  -2.0999999999999991E-002    -3.6735787034558598E-007
  -1.9899999999999987E-002    -6.5828970718939672E-007
  -1.8799999999999983E-002    -9.5250072718044976E-007
  -1.7699999999999994E-002    -1.2331375955909607E-006
  -1.6599999999999990E-002    -1.5156664403548348E-006
  -1.5499999999999986E-002    -1.8179822518504807E-006
  -1.4399999999999996E-002    -2.1342295895010466E-006
  -1.3299999999999992E-002    -2.4554956326028332E-006
  -1.2199999999999989E-002    -2.8128295070928289E-006
  -1.1099999999999985E-002    -3.2786269912321586E-006
  -9.9999999999999950E-003    -3.9164506233646534E-006
  -8.8999999999999913E-003    -4.7460234782192856E-006
  -7.7999999999999875E-003    -5.7738302530196961E-006
  -6.6999999999999837E-003    -7.0469586717081256E-006
  -5.5999999999999939E-003    -8.6554509834968485E-006
  -4.4999999999999901E-003    -1.0685263987397775E-005
  -3.3999999999999864E-003    -1.3193476661399473E-005
  -2.2999999999999826E-003    -1.6232108464464545E-005
  -1.1999999999999927E-003    -1.9867593437083997E-005
  -9.9999999999988987E-005    -2.4160302928066812E-005
   1.0000000000000148E-003    -2.9159526093280874E-005
   2.1000000000000185E-003    -3.4966200473718345E-005
   3.2000000000000084E-003    -4.1793588025029749E-005
   4.3000000000000121E-003    -4.9908485380001366E-005
   5.4000000000000159E-003    -5.9493708249647170E-005
   6.5000000000000058E-003    -7.0635796873830259E-005
   7.6000000000000234E-003    -8.3490420365706086E-005
   8.7000000000000133E-003    -9.8421187431085855E-005
   9.8000000000000032E-003    -1.1588979396037757E-004
   1.0900000000000021E-002    -1.3620272511616349E-004
   1.2000000000000011E-002    -1.5945953782647848E-004
   1.3100000000000001E-002    -1.8579914467409253E-004
   1.4200000000000018E-002    -2.1564011694863439E-004
   1.5300000000000008E-002    -2.4960152222774923E-004
   1.6400000000000026E-002    -2.8818735154345632E-004
   1.7500000000000016E-002    -3.3164932392537594E-004
   1.8600000000000005E-002    -3.8018502527847886E-004
   1.9700000000000023E-002    -4.3416194966994226E-004
   2.0800000000000013E-002    -4.9409439088776708E-004
   2.1900000000000003E-002    -5.6045578094199300E-004
   2.3000000000000020E-002    -6.3363113440573215E-004
   2.4100000000000010E-002    -7.1391597157344222E-004
   2.5200000000000000E-002    -8.0141110811382532E-004
   2.6300000000000018E-002    -8.9594366727396846E-004
   2.7400000000000008E-002    -9.9727394990622997E-004
   2.8500000000000025E-002    -1.1054840870201588E-003
   2.9600000000000015E-002    -1.2208902044221759E-003
   3.0700000000000005E-002    -1.3433791464194655E-003
   3.1800000000000023E-002    -1.4719329774379730E-003
   3.2900000000000013E-002    -1.6050699632614851E-003
   3.4000000000000002E-002    -1.7417827621102333E-003
   3.5100000000000020E-002    -1.8816957017406821E-003
   3.6200000000000010E-002    -2.0240878220647573E-003
   3.7300000000000028E-002    -2.1668302360922098E-003
   3.8400000000000017E-002    -2.3067463189363480E-003
   3.9500000000000007E-002    -2.4406996089965105E-003
   4.0600000000000025E-002    -2.5664521381258965E-003
   4.1700000000000015E-002    -2.6823158841580153E-003
   4.2800000000000005E-002    -2.7859020046889782E-003
   4.3900000000000022E-002    -2.8736819513142109E-003
   4.5000000000000012E-002    -2.9409739654511213E-003
   4.6100000000000002E-002    -2.9830138664692640E-003
   4.7200000000000020E-002    -2.9960889369249344E-003
   4.8300000000000010E-002    -2.9771404806524515E-003
   4.9400000000000027E-002    -2.9232511296868324E-003
   5.0500000000000017E-002    -2.8309393674135208E-003
   5.1600000000000007E-002    -2.6954647619277239E-003
   5.2700000000000025E-002    -2.5108344852924347E-003
   5.3800000000000014E-002    -2.2726613096892834E-003
   5.4900000000000004E-002    -1.9808525685220957E-003
   5.6000000000000022E-002    -1.6368915094062686E-003
   5.7100000000000012E-002    -1.2395839439705014E-003
   5.8200000000000002E-002    -7.8407156979665160E-004
   5.9300000000000019E-002    -2.6671195519156754E-004
   6.0400000000000009E-002     3.1010183738544583E-004
   6.1500000000000027E-002     9.4064959557726979E-004
   6.2600000000000017E-002     1.6195228090509772E-003
   6.3700000000000007E-002     2.3430627770721912E-003
   6.4800000000000024E-002     3.1086439266800880E-003
   6.5900000000000014E-002     3.9122146554291248E-003
   6.7000000000000004E-002     4.7458307817578316E-003
   6.8100000000000022E-002     5.5979690514504910E-003
   6.9200000000000012E-002     6.4566708169877529E-003
   7.0300000000000029E-002     7.3100496083498001E-003
   7.1400000000000019E-002     8.1474510952830315E-003
   7.2500000000000009E-002     8.9597310870885849E-003
   7.3600000000000027E-002     9.7364038228988647E-003
   7.4700000000000016E-002     1.0462793521583080E-002
   7.5800000000000006E-002     1.1120051145553589E-002
   7.6900000000000024E-002     1.1691439896821976E-002
   7.8000000000000014E-002     1.2166950851678848E-002
   7.9100000000000004E-002     1.2541278265416622E-002
   8.0200000000000021E-002     1.2806674465537071E-002
   8.1300000000000011E-002     1.2948210351169109E-002
   8.2400000000000029E-002     1.2950498610734940E-002
   8.3500000000000019E-002     1.2805190868675709E-002
   8.4600000000000009E-002     1.2511769309639931E-002
   8.5700000000000026E-002     1.2072595767676830E-002
   8.6800000000000016E-002     1.1487825773656368E-002
   8.7900000000000006E-002     1.0755909606814384E-002
   8.9000000000000024E-002     9.8772896453738213E-003
   9.0100000000000013E-002     8.8570779189467430E-003
   9.1200000000000003E-002     7.7048866078257561E-003
   9.2300000000000021E-002     6.4346129074692726E-003
   9.3400000000000011E-002     5.0639938563108444E-003
   9.4500000000000028E-002     3.6099955905228853E-003
   9.5600000000000018E-002     2.0854913163930178E-003
   9.6700000000000008E-002     5.0188245950266719E-004
   9.7800000000000026E-002    -1.1234930716454983E-003
   9.8900000000000016E-002    -2.7628915850073099E-003
  0.10000000000000001         -4.3848510831594467E-003
  0.10110000000000002         -5.9669855982065201E-003
  0.10220000000000001         -7.4977655895054340E-003
  0.10330000000000003         -8.9652957394719124E-003
  0.10440000000000002         -1.0349288582801819E-002
  0.10550000000000001         -1.1623235419392586E-002
  0.10660000000000003         -1.2763595208525658E-002
  0.10770000000000002         -1.3756428845226765E-002
  0.10880000000000001         -1.4595716260373592E-002
  0.10990000000000003         -1.5275727957487106E-002
  0.11100000000000002         -1.5789505094289780E-002
  0.11210000000000001         -1.6131624579429626E-002
  0.11320000000000002         -1.6297314316034317E-002
  0.11430000000000001         -1.6282135620713234E-002
  0.11540000000000003         -1.6085630282759666E-002
  0.11650000000000002         -1.5719899907708168E-002
  0.11760000000000001         -1.5205010771751404E-002
  0.11870000000000003         -1.4555688016116619E-002
  0.11980000000000002         -1.3774526305496693E-002
  0.12090000000000001         -1.2861488386988640E-002
  0.12200000000000003         -1.1830730363726616E-002
  0.12310000000000001         -1.0713005438446999E-002
  0.12420000000000003         -9.5398304983973503E-003
  0.12530000000000002         -8.3251120522618294E-003
  0.12640000000000001         -7.0725777186453342E-003
  0.12750000000000003         -5.7942415587604046E-003
  0.12860000000000002         -4.5116874389350414E-003
  0.12970000000000001         -3.2463944517076015E-003
  0.13080000000000003         -2.0160491112619638E-003
  0.13190000000000002         -8.3607254782691598E-004
  0.13300000000000001          2.7946726186200976E-004
  0.13410000000000000          1.3224669964984059E-003
  0.13520000000000004          2.2932267747819424E-003
  0.13630000000000003          3.1903006602078676E-003
  0.13740000000000002          3.9995410479605198E-003
  0.13850000000000001          4.7005880624055862E-003
  0.13960000000000000          5.2878218702971935E-003
  0.14070000000000005          5.7763457298278809E-003
  0.14180000000000004          6.1829956248402596E-003
  0.14290000000000003          6.5069389529526234E-003
  0.14400000000000002          6.7340172827243805E-003
  0.14510000000000001          6.8593416363000870E-003
  0.14620000000000000          6.8971659056842327E-003
  0.14730000000000004          6.8665263243019581E-003
  0.14840000000000003          6.7749540321528912E-003
  0.14950000000000002          6.6216140985488892E-003
  0.15060000000000001          6.4112213440239429E-003
  0.15170000000000000          6.1557125300168991E-003
  0.15280000000000005          5.8634551241993904E-003
  0.15390000000000004          5.5358675308525562E-003
  0.15500000000000003          5.1776543259620667E-003
  0.15610000000000002          4.8042158596217632E-003
  0.15720000000000001          4.4311978854238987E-003
  0.15830000000000000          4.0593724697828293E-003
  0.15940000000000004          3.6794815678149462E-003
  0.16050000000000003          3.2921910751610994E-003
  0.16160000000000002          2.9144254513084888E-003
  0.16270000000000001          2.5613249745219946E-003
  0.16380000000000000          2.2302444558590651E-003
  0.16490000000000005          1.9096855539828539E-003
  0.16600000000000004          1.5997295267879963E-003
  0.16710000000000003          1.3133542379364371E-003
  0.16820000000000002          1.0571281891316175E-003
  0.16930000000000001          8.2272803410887718E-004
  0.17040000000000000          6.0179660795256495E-004
  0.17150000000000004          4.0058937156572938E-004
  0.17260000000000003          2.3051827156450599E-004
  0.17370000000000002          8.8806009443942457E-005
  0.17480000000000001         -4.0106140659190714E-005
  0.17590000000000000         -1.6359708388336003E-004
  0.17700000000000005         -2.7102220337837934E-004
  0.17810000000000004         -3.5038057831116021E-004
  0.17920000000000003         -4.0716642979532480E-004
  0.18030000000000002         -4.5731119462288916E-004
  0.18140000000000001         -5.0574907800182700E-004
  0.18250000000000000         -5.4252741392701864E-004
  0.18360000000000004         -5.6090002181008458E-004
  0.18470000000000003         -5.6874146685004234E-004
  0.18580000000000002         -5.7655083946883678E-004
  0.18690000000000001         -5.8222643565386534E-004
  0.18800000000000000         -5.7662097970023751E-004
  0.18910000000000005         -5.6077010231092572E-004
  0.19020000000000004         -5.4643966723233461E-004
  0.19130000000000003         -5.3826591465622187E-004
  0.19240000000000002         -5.2598014008253813E-004
  0.19350000000000001         -4.9994222354143858E-004
  0.19460000000000005         -4.6712509356439114E-004
  0.19570000000000004         -4.4247409095987678E-004
  0.19680000000000003         -4.2752613080665469E-004
  0.19790000000000002         -4.0858655120246112E-004
  0.19900000000000001         -3.7729408359155059E-004
  0.20010000000000000         -3.4274964127689600E-004
  0.20120000000000005         -3.1774365925230086E-004
  0.20230000000000004         -2.9998685931786895E-004
  0.20340000000000003         -2.7648697141557932E-004
  0.20450000000000002         -2.4363836564589292E-004
  0.20560000000000000         -2.1202328207436949E-004
  0.20670000000000005         -1.8970799283124506E-004
  0.20780000000000004         -1.7035963537637144E-004
  0.20890000000000003         -1.4401139924302697E-004
