 -0.12000000000000000          0.0000000000000000
 -0.11889999999999999          0.0000000000000000
 -0.11780000000000000          0.0000000000000000
 -0.11670000000000000          1.2546763107634806E-011
 -0.11559999999999999          1.3697711367943732E-011
 -0.11449999999999999         -3.8519888667654101E-011
 -0.11340000000000000         -6.0437016502490337E-011
 -0.11230000000000000          8.1728193657149006E-011
 -0.11119999999999999          2.1664815774702362E-010
 -0.11009999999999999         -3.4040614077524012E-011
 -0.10900000000000000         -4.8208054215237439E-010
 -0.10790000000000000         -2.7206706332272290E-010
 -0.10679999999999999          7.1667355383553399E-010
 -0.10569999999999999          1.0246070658581630E-009
 -0.10460000000000000         -4.2161413249530710E-010
 -0.10349999999999999         -1.8818480107540836E-009
 -0.10239999999999999         -6.0493338116529571E-010
 -0.10130000000000000          2.4258657305153974E-009
 -0.10020000000000000          2.5024646799209904E-009
  -9.9099999999999994E-002    -1.8537392731943214E-009
  -9.7999999999999990E-002    -4.8300972110837392E-009
  -9.6899999999999986E-002    -6.5601130083692283E-010
  -9.5799999999999996E-002     6.4044076708569264E-009
  -9.4699999999999993E-002     5.8165898764173107E-009
  -9.3599999999999989E-002    -3.7803706831596173E-009
  -9.2499999999999999E-002    -9.8755315036669344E-009
  -9.1399999999999995E-002    -2.5646533785561587E-009
  -9.0299999999999991E-002     9.5435064295656957E-009
  -8.9200000000000002E-002     9.3253387234426555E-009
  -8.8099999999999984E-002    -4.2171426350989805E-009
  -8.6999999999999994E-002    -1.2694440165716969E-008
  -8.5899999999999990E-002    -3.9120702233219617E-009
  -8.4799999999999986E-002     9.9854604584947992E-009
  -8.3699999999999997E-002     9.7387156117179074E-009
  -8.2599999999999993E-002    -2.9504683141112764E-009
  -8.1499999999999989E-002    -8.7990539299198645E-009
  -8.0399999999999999E-002    -8.1161039000576807E-010
  -7.9299999999999995E-002     5.8461169238910315E-009
  -7.8199999999999992E-002    -3.1187788462894162E-010
  -7.7100000000000002E-002    -7.3376864584417945E-009
  -7.5999999999999984E-002     2.9691941180048920E-012
  -7.4899999999999994E-002     1.1607462546692204E-008
  -7.3799999999999991E-002     4.7746384623792437E-009
  -7.2699999999999987E-002    -1.6708165517798079E-008
  -7.1599999999999997E-002    -2.0920309040661778E-008
  -7.0499999999999993E-002     5.0183723843133521E-009
  -6.9399999999999989E-002     2.8316698319486022E-008
  -6.8300000000000000E-002     1.2550958494728093E-008
  -6.7199999999999996E-002    -2.6887942539133292E-008
  -6.6099999999999992E-002    -3.8679164759969353E-008
  -6.5000000000000002E-002    -6.8538561492914596E-009
  -6.3899999999999985E-002     2.4600396386631473E-008
  -6.2799999999999995E-002     1.2652751735231504E-008
  -6.1699999999999991E-002    -2.5253452662354903E-008
  -6.0599999999999994E-002    -3.9293038156529292E-008
  -5.9499999999999990E-002    -1.9400914652578649E-008
  -5.8399999999999994E-002    -3.7838399080669660E-009
  -5.7299999999999990E-002    -1.5919523477236908E-008
  -5.6199999999999986E-002    -3.1369257413871310E-008
  -5.5099999999999996E-002    -2.4939522447198215E-008
  -5.3999999999999992E-002    -1.7682884490000106E-008
  -5.2899999999999989E-002    -4.2286462331730945E-008
  -5.1799999999999985E-002    -8.0362298149339040E-008
  -5.0699999999999995E-002    -7.9882468639880244E-008
  -4.9599999999999991E-002    -3.7831284771527862E-008
  -4.8499999999999988E-002    -1.9347170976402595E-008
  -4.7399999999999998E-002    -6.9011790060358180E-008
  -4.6299999999999994E-002    -1.3945387422609201E-007
  -4.5199999999999990E-002    -1.5015395149475808E-007
  -4.4099999999999986E-002    -1.0027047636640418E-007
  -4.2999999999999997E-002    -7.1666931944491807E-008
  -4.1899999999999993E-002    -1.1474452321635908E-007
  -4.0799999999999989E-002    -1.8237510346352792E-007
  -3.9699999999999985E-002    -2.0388004884352995E-007
  -3.8599999999999995E-002    -1.8465661355548946E-007
  -3.7499999999999992E-002    -1.8540903568009526E-007
  -3.6399999999999988E-002    -2.2214078398974380E-007
  -3.5299999999999984E-002    -2.4801934728202468E-007
  -3.4199999999999994E-002    -2.3923982439555402E-007
  -3.3099999999999991E-002    -2.4121229103002406E-007
  -3.1999999999999987E-002    -2.9318422889446083E-007
  -3.0899999999999997E-002    -3.5208702797717706E-007
  -2.9799999999999993E-002    -3.4674403082135541E-007
  -2.8699999999999989E-002    -2.9049104455225461E-007
  -2.7599999999999986E-002    -2.7545084435587341E-007
  -2.6499999999999996E-002    -3.4248205338371918E-007
  -2.5399999999999992E-002    -4.1515204429742880E-007
  -2.4299999999999988E-002    -4.0524611222281237E-007
  -2.3199999999999985E-002    -3.3571558333278517E-007
  -2.2099999999999995E-002    -3.0304008191706089E-007
  -2.0999999999999991E-002    -3.3726442438819504E-007
  -1.9899999999999987E-002    -3.6610245501833560E-007
  -1.8799999999999983E-002    -3.3274599786636827E-007
  -1.7699999999999994E-002    -2.7657031864691817E-007
  -1.6599999999999990E-002    -2.5848984819276666E-007
  -1.5499999999999986E-002    -2.6027734634226363E-007
  -1.4399999999999996E-002    -2.1478064127222751E-007
  -1.3299999999999992E-002    -1.2077043720637448E-007
  -1.2199999999999989E-002    -5.5311982549710592E-008
  -1.1099999999999985E-002    -5.4613160216376855E-008
  -9.9999999999999950E-003    -4.7495404942310415E-008
  -8.8999999999999913E-003     4.4345167538040187E-008
  -7.7999999999999875E-003     1.8514479904752079E-007
  -6.6999999999999837E-003     2.7540599489839224E-007
  -5.5999999999999939E-003     2.8938237051079341E-007
  -4.4999999999999901E-003     3.1490066021433449E-007
  -3.3999999999999864E-003     4.1653694893284410E-007
  -2.2999999999999826E-003     5.4752649703004863E-007
  -1.1999999999999927E-003     6.2634285313833971E-007
  -9.9999999999988987E-005     6.5645326685626060E-007
   1.0000000000000148E-003     7.1174247295857640E-007
   2.1000000000000185E-003     8.1557863040870870E-007
   3.2000000000000084E-003     9.0160006038786378E-007
   4.3000000000000121E-003     9.2002585461159470E-007
   5.4000000000000159E-003     9.2485004188347375E-007
   6.5000000000000058E-003     9.8071393495047232E-007
   7.6000000000000234E-003     1.0645294423738960E-006
   8.7000000000000133E-003     1.0899225344473962E-006
   9.8000000000000032E-003     1.0401017789263278E-006
   1.0900000000000021E-002     9.9583883184095612E-007
   1.2000000000000011E-002     1.0116715429830947E-006
   1.3100000000000001E-002     1.0392069498266210E-006
   1.4200000000000018E-002     9.9793987828888930E-007
   1.5300000000000008E-002     8.9421223492536228E-007
   1.6400000000000026E-002     8.0824901260712068E-007
   1.7500000000000016E-002     7.6843036822538124E-007
   1.8600000000000005E-002     7.1841787985249539E-007
   1.9700000000000023E-002     6.0950094393774634E-007
   2.0800000000000013E-002     4.7739803221702459E-007
   2.1900000000000003E-002     3.8135377167236584E-007
   2.3000000000000020E-002     3.1043109061101859E-007
   2.4100000000000010E-002     2.0479717477428494E-007
   2.5200000000000000E-002     5.3865981897160964E-008
   2.6300000000000018E-002    -8.1670933127497847E-008
   2.7400000000000008E-002    -1.6157541438133194E-007
   2.8500000000000025E-002    -2.2776995933782018E-007
   2.9600000000000015E-002    -3.3885663697219570E-007
   3.0700000000000005E-002    -4.7996394414440147E-007
   3.1800000000000023E-002    -5.8094644828088349E-007
   3.2900000000000013E-002    -6.2408525991486385E-007
   3.4000000000000002E-002    -6.6070629145542625E-007
   3.5100000000000020E-002    -7.3393681532252231E-007
   3.6200000000000010E-002    -8.1277892149955733E-007
   3.7300000000000028E-002    -8.5042216824149364E-007
   3.8400000000000017E-002    -8.5346897549243295E-007
   3.9500000000000007E-002    -8.5662060200775159E-007
   4.0600000000000025E-002    -8.7396108483517310E-007
   4.1700000000000015E-002    -8.7217972577491309E-007
   4.2800000000000005E-002    -8.3238995784995495E-007
   4.3900000000000022E-002    -7.9132621522148838E-007
   4.5000000000000012E-002    -7.6837517326566740E-007
   4.6100000000000002E-002    -7.4555879336912767E-007
   4.7200000000000020E-002    -6.8558370003302116E-007
   4.8300000000000010E-002    -5.9845262967428425E-007
   4.9400000000000027E-002    -5.2456312005233485E-007
   5.0500000000000017E-002    -4.8027811772044515E-007
   5.1600000000000007E-002    -4.3493230350577505E-007
   5.2700000000000025E-002    -3.6408906112228578E-007
   5.3800000000000014E-002    -2.7994582296742010E-007
   5.4900000000000004E-002    -2.0807668477118568E-007
   5.6000000000000022E-002    -1.4509667778384028E-007
   5.7100000000000012E-002    -7.7903713702198729E-008
   5.8200000000000002E-002    -1.7047186773311296E-008
   5.9300000000000019E-002     2.2846178282520668E-008
   6.0400000000000009E-002     5.0650633909299358E-008
   6.1500000000000027E-002     9.1534325008524320E-008
   6.2600000000000017E-002     1.4897906908117875E-007
   6.3700000000000007E-002     1.9560697239739966E-007
   6.4800000000000024E-002     2.1165556063351687E-007
   6.5900000000000014E-002     2.1502444269572152E-007
   6.7000000000000004E-002     2.2872322347211593E-007
   6.8100000000000022E-002     2.4499212258888292E-007
   6.9200000000000012E-002     2.4306987711497641E-007
   7.0300000000000029E-002     2.3131634918627242E-007
   7.1400000000000019E-002     2.3749790045712871E-007
   7.2500000000000009E-002     2.5698997774270538E-007
   7.3600000000000027E-002     2.4923360797401983E-007
   7.4700000000000016E-002     1.9893933256298624E-007
   7.5800000000000006E-002     1.5161289468323957E-007
   7.6900000000000024E-002     1.5463024283235427E-007
   7.8000000000000014E-002     1.8653102529242460E-007
   7.9100000000000004E-002     1.8329701845232194E-007
   8.0200000000000021E-002     1.2948952132774139E-007
   8.1300000000000011E-002     7.7662825503921340E-008
   8.2400000000000029E-002     6.9764674037742225E-008
   8.3500000000000019E-002     7.8942079539956467E-008
   8.4600000000000009E-002     6.0500902065996343E-008
   8.5700000000000026E-002     2.7755207909763158E-008
   8.6800000000000016E-002     2.4199310999506451E-008
   8.7900000000000006E-002     4.3392311965817498E-008
   8.9000000000000024E-002     2.8814115538011720E-008
   9.0100000000000013E-002    -3.1358201368902883E-008
   9.1200000000000003E-002    -6.8464288460745593E-008
   9.2300000000000021E-002    -3.1229795638409996E-008
   9.3400000000000011E-002     3.0561142949636633E-008
   9.4500000000000028E-002     2.4643721729944446E-008
   9.5600000000000018E-002    -4.9270759916453244E-008
   9.6700000000000008E-002    -9.5432739044554182E-008
   9.7800000000000026E-002    -5.9434821508830282E-008
   9.8900000000000016E-002    -4.2116319320939510E-009
  0.10000000000000001         -1.0747822187795464E-008
  0.10110000000000002         -5.6275180071452269E-008
  0.10220000000000001         -5.8862482887889200E-008
  0.10330000000000003         -1.0384909820970734E-008
  0.10440000000000002          7.7858128832986040E-009
  0.10550000000000001         -4.0970903114612156E-008
  0.10660000000000003         -8.2117246336110838E-008
  0.10770000000000002         -4.2573134351187036E-008
  0.10880000000000001          2.9589298122800756E-008
  0.10990000000000003          2.9954119185049422E-008
  0.11100000000000002         -4.4215365591071532E-008
  0.11210000000000001         -8.3592624378070468E-008
  0.11320000000000002         -2.9745974572392697E-008
  0.11430000000000001          3.8384772693689229E-008
  0.11540000000000003          2.4953886068601605E-008
  0.11650000000000002         -3.7502680072520889E-008
  0.11760000000000001         -4.4145682664975539E-008
  0.11870000000000003          1.5755473370404616E-008
  0.11980000000000002          4.1951143003871039E-008
  0.12090000000000001         -1.5121067065138050E-008
  0.12200000000000003         -6.8992932256151107E-008
  0.12310000000000001         -2.7851896788888553E-008
  0.12420000000000003          5.7433641842408178E-008
  0.12530000000000002          6.2546163803745003E-008
  0.12640000000000001         -2.3013923211578913E-008
  0.12750000000000003         -7.4950058603917569E-008
  0.12860000000000002         -1.8611311602967362E-008
  0.12970000000000001          6.0517443500884838E-008
  0.13080000000000003          4.7782858558775843E-008
  0.13190000000000002         -2.9626878728095107E-008
  0.13300000000000001         -5.0657863681635718E-008
  0.13410000000000000          1.1331698246408450E-008
  0.13520000000000004          5.1720594029802669E-008
  0.13630000000000003          3.0329669886697275E-009
  0.13740000000000002         -5.6454645402936876E-008
  0.13850000000000001         -2.5777151080319527E-008
  0.13960000000000000          5.5832636292052484E-008
  0.14070000000000005          6.4075898364990280E-008
  0.14180000000000004         -1.9135592665975310E-008
  0.14290000000000003         -7.3670264555403264E-008
  0.14400000000000002         -2.1285318396735420E-008
  0.14510000000000001          5.6757873068136178E-008
  0.14620000000000000          4.4617920025302737E-008
  0.14730000000000004         -3.2992303999890282E-008
  0.14840000000000003         -5.3512007269773676E-008
  0.14950000000000002          1.2465399379379960E-008
  0.15060000000000001          5.7862806102093600E-008
  0.15170000000000000          8.7757801026100424E-009
  0.15280000000000005         -5.8571615113578446E-008
  0.15390000000000004         -3.5631096295674070E-008
  0.15500000000000003          4.8005567521158810E-008
  0.15610000000000002          6.5801430082501611E-008
  0.15720000000000001         -1.3181868929734719E-008
  0.15830000000000000         -7.5083129047470720E-008
  0.15940000000000004         -3.1078819517915690E-008
  0.16050000000000003          5.2067633760088938E-008
  0.16160000000000002          5.5410840360536895E-008
  0.16270000000000001         -1.6114077183715381E-008
  0.16380000000000000         -5.0313818888980677E-008
  0.16490000000000005         -2.4377864171754027E-009
  0.16600000000000004          4.3481122702360153E-008
  0.16710000000000003          1.3522922337472210E-008
  0.16820000000000002         -4.0241491916503946E-008
  0.16930000000000001         -2.6459581192739279E-008
  0.17040000000000000          3.7126842045154262E-008
  0.17150000000000004          4.8690747433965953E-008
  0.17260000000000003         -1.7184650147328284E-008
  0.17370000000000002         -6.4387755571715388E-008
  0.17480000000000001         -1.9468863854399387E-008
  0.17590000000000000          5.5012737476545226E-008
  0.17700000000000005          5.1918558341412790E-008
  0.17810000000000004         -2.1914251746579794E-008
  0.17920000000000003         -5.8744916486830334E-008
  0.18030000000000002         -1.0692762231201414E-008
  0.18140000000000001          4.4728935222337896E-008
  0.18250000000000000          2.6417614762408448E-008
  0.18360000000000004         -3.0811300177902012E-008
  0.18470000000000003         -3.7104499028828286E-008
  0.18580000000000002          1.3924245756413711E-008
  0.18690000000000001          4.0870304474083241E-008
  0.18800000000000000          3.6531557778829438E-009
  0.18910000000000005         -3.7372746675146118E-008
  0.19020000000000004         -1.8570881721302612E-008
  0.19130000000000003          2.8945040142502876E-008
  0.19240000000000002          3.0709585985277954E-008
  0.19350000000000001         -1.5001086595134439E-008
  0.19460000000000005         -3.6672464176490394E-008
  0.19570000000000004         -1.4638693590640628E-009
  0.19680000000000003          3.5265248499172230E-008
  0.19790000000000002          1.7142388841762113E-008
  0.19900000000000001         -2.6712902112535630E-008
  0.20010000000000000         -2.8007420382891723E-008
  0.20120000000000005          1.5533922592680938E-008
  0.20230000000000004          3.7648284489932848E-008
  0.20340000000000003          4.6274291065628859E-009
  0.20450000000000002         -3.4995117914604634E-008
  0.20560000000000000         -2.4480629079448590E-008
  0.20670000000000005          1.8272507062988552E-008
  0.20780000000000004          3.1092934449361564E-008
  0.20890000000000003         -5.7801451125438774E-011
