 -0.12000000000000000          0.0000000000000000     
 -0.11889999999999999          0.0000000000000000     
 -0.11780000000000000          0.0000000000000000     
 -0.11670000000000000          0.0000000000000000     
 -0.11559999999999999          0.0000000000000000     
 -0.11449999999999999          0.0000000000000000     
 -0.11340000000000000          2.0533333888023789E-018
 -0.11230000000000000         -9.6978272444683659E-019
 -0.11119999999999999         -2.4896556522876157E-017
 -0.11009999999999999          3.8446655903847119E-018
 -0.10900000000000000          1.6964716004277009E-016
 -0.10790000000000000          4.5645775038199242E-017
 -0.10679999999999999         -8.1148789783704327E-016
 -0.10569999999999999         -6.2107939115680884E-016
 -0.10460000000000000          2.8311591335612686E-015
 -0.10349999999999999          3.8672724927740678E-015
 -0.10239999999999999         -6.9812087053367378E-015
 -0.10130000000000000         -1.5927683773135116E-014
 -0.10020000000000000          1.0528566171295276E-014
  -9.9099999999999994E-002     4.8914997350995790E-014
  -9.7999999999999990E-002    -1.9296585796667277E-016
  -9.6899999999999986E-002    -1.2244407419405301E-013
  -9.5799999999999996E-002    -6.3902767626078383E-014
  -9.4699999999999993E-002     2.6441327426185435E-013
  -9.3599999999999989E-002     3.0360447229177412E-013
  -9.2499999999999999E-002    -4.5358904349548923E-013
  -9.1399999999999995E-002    -1.0170512435708767E-012
  -9.0299999999999991E-002     3.3441560068001031E-013
  -8.9200000000000002E-002     2.5192716836264228E-012
  -8.8099999999999984E-002     1.2114503194007864E-012
  -8.6999999999999994E-002    -4.2207574241226453E-012
  -8.5899999999999990E-002    -5.6304123689787655E-012
  -8.4799999999999986E-002     3.6200395979457678E-012
  -8.3699999999999997E-002     1.2731333348670049E-011
  -8.2599999999999993E-002     2.5865754850473710E-012
  -8.1499999999999989E-002    -1.9879689908131049E-011
  -8.0399999999999999E-002    -1.6754589035605782E-011
  -7.9299999999999995E-002     2.3728878237316842E-011
  -7.8199999999999992E-002     4.3523327303285342E-011
  -7.7100000000000002E-002    -1.4428707360847337E-011
  -7.5999999999999984E-002    -8.7705384621550309E-011
  -7.4899999999999994E-002    -3.8046000377933709E-011
  -7.3799999999999991E-002     1.2360082402018691E-010
  -7.2699999999999987E-002     1.6119601486952462E-010
  -7.1599999999999997E-002    -7.3054833016339416E-011
  -7.0499999999999993E-002    -3.0860194955018017E-010
  -6.9399999999999989E-002    -1.2512213487525514E-010
  -6.8300000000000000E-002     3.5897554373498508E-010
  -6.7199999999999996E-002     4.3188314036157749E-010
  -6.6099999999999992E-002    -2.1898667601494282E-010
  -6.5000000000000002E-002    -7.6476147636839187E-010
  -6.3899999999999985E-002    -1.9117794847200997E-010
  -6.2799999999999995E-002     9.9250407892270687E-010
  -6.1699999999999991E-002     9.8562347172759246E-010
  -6.0599999999999994E-002    -7.2366673764534539E-010
  -5.9499999999999990E-002    -1.9550780994137540E-009
  -5.8399999999999994E-002    -4.7684572956896432E-010
  -5.7299999999999990E-002     2.2874755423174520E-009
  -5.6199999999999986E-002     2.3349338018618937E-009
  -5.5099999999999996E-002    -1.2367629143028580E-009
  -5.3999999999999992E-002    -3.8300744797936659E-009
  -5.2899999999999989E-002    -1.1312232262028488E-009
  -5.1799999999999985E-002     3.9615604130460724E-009
  -5.0699999999999995E-002     4.0896219744013251E-009
  -4.9599999999999991E-002    -2.0810839718166108E-009
  -4.8499999999999988E-002    -6.4193783622101819E-009
  -4.7399999999999998E-002    -1.9149140051410996E-009
  -4.6299999999999994E-002     6.3436988995135835E-009
  -4.5199999999999990E-002     6.7492500477328576E-009
  -4.4099999999999986E-002    -2.4029476186626653E-009
  -4.2999999999999997E-002    -9.0708320854560043E-009
  -4.1899999999999993E-002    -3.7453848911184195E-009
  -4.0799999999999989E-002     6.4201608473979377E-009
  -3.9699999999999985E-002     7.1585932737150415E-009
  -3.8599999999999995E-002    -2.1855401932668883E-009
  -3.7499999999999992E-002    -7.3949770751369215E-009
  -3.6399999999999988E-002    -5.5805693399690881E-010
  -3.5299999999999984E-002     7.8191071395394829E-009
  -3.4199999999999994E-002     4.8952362163845464E-009
  -3.3099999999999991E-002    -4.5490646805035340E-009
  -3.1999999999999987E-002    -6.0361218245930104E-009
  -3.0899999999999997E-002     6.7405725445723874E-010
  -2.9799999999999993E-002     1.0902186931005531E-009
  -2.8699999999999989E-002    -7.9036501787754787E-009
  -2.7599999999999986E-002    -8.6089837481040377E-009
  -2.6499999999999996E-002     8.9797680402625701E-009
  -2.5399999999999992E-002     2.3494530765333366E-008
  -2.4299999999999988E-002     8.4803213340478578E-009
  -2.3199999999999985E-002    -2.2929757648171289E-008
  -2.2099999999999995E-002    -2.7303942218281918E-008
  -2.0999999999999991E-002     6.6377472407452842E-009
  -1.9899999999999987E-002     3.2315153219997228E-008
  -1.8799999999999983E-002     6.4750902417642919E-009
  -1.7699999999999994E-002    -4.2046078618795946E-008
  -1.6599999999999990E-002    -4.2476305139871329E-008
  -1.5499999999999986E-002     1.8329735951283510E-008
  -1.4399999999999996E-002     6.7681121151963453E-008
  -1.3299999999999992E-002     4.0087556385515200E-008
  -1.2199999999999989E-002    -3.2737830224505160E-008
  -1.1099999999999985E-002    -6.3791325999318360E-008
  -9.9999999999999950E-003    -2.7530965951427788E-008
  -8.8999999999999913E-003     1.3242316576622670E-008
  -7.7999999999999875E-003     3.2114606529631828E-009
  -6.6999999999999837E-003    -3.0721707844350021E-008
  -5.5999999999999939E-003    -3.1628040630948817E-008
  -4.4999999999999901E-003    -5.0044995925091484E-010
  -3.3999999999999864E-003     1.7852947564733768E-008
  -2.2999999999999826E-003     1.4165312478553460E-008
  -1.1999999999999927E-003     1.9227018199785562E-008
  -9.9999999999988987E-005     2.6072033421087326E-008
   1.0000000000000148E-003    -2.1570311758978278E-008
   2.1000000000000185E-003    -1.2616759192951577E-007
   3.2000000000000084E-003    -1.8265910739501123E-007
   4.3000000000000121E-003    -1.0054085208821562E-007
   5.4000000000000159E-003     4.7546858894520483E-008
   6.5000000000000058E-003     8.5401978822119418E-008
   7.6000000000000234E-003    -2.7193856055873766E-008
   8.7000000000000133E-003    -1.2715928221496142E-007
   9.8000000000000032E-003    -7.0597174328668189E-008
   1.0900000000000021E-002     6.7552754501321033E-008
   1.2000000000000011E-002     7.2485718760617601E-008
   1.3100000000000001E-002    -1.2134906057781336E-007
   1.4200000000000018E-002    -3.2417449347121874E-007
   1.5300000000000008E-002    -3.3307060220977291E-007
   1.6400000000000026E-002    -1.7260573770272458E-007
   1.7500000000000016E-002    -2.7785231893062701E-008
   1.8600000000000005E-002     6.1216609559266999E-010
   1.9700000000000023E-002    -2.0354283591927924E-008
   2.0800000000000013E-002    -3.1570788650014947E-008
   2.1900000000000003E-002    -6.2464827976782544E-008
   2.3000000000000020E-002    -1.3320730829491367E-007
   2.4100000000000010E-002    -1.8461909689904132E-007
   2.5200000000000000E-002    -1.6413747516708099E-007
   2.6300000000000018E-002    -1.7843109390014433E-007
   2.7400000000000008E-002    -3.1048043069858977E-007
   2.8500000000000025E-002    -3.9750406699567975E-007
   2.9600000000000015E-002    -2.4969412493192067E-007
   3.0700000000000005E-002     2.5312488105555531E-008
   3.1800000000000023E-002     1.7483920089489402E-007
   3.2900000000000013E-002     1.1429064272761025E-007
   3.4000000000000002E-002     8.8657969854466501E-009
   3.5100000000000020E-002     3.6984765472425352E-008
   3.6200000000000010E-002     1.5192887303783209E-007
   3.7300000000000028E-002     1.2258418280453043E-007
   3.8400000000000017E-002    -7.5357483808602410E-008
   3.9500000000000007E-002    -1.6850037809490459E-007
   4.0600000000000025E-002    -1.3942187404580864E-009
   4.1700000000000015E-002     3.3790479392337147E-007
   4.2800000000000005E-002     6.2139537249095156E-007
   4.3900000000000022E-002     7.0648070504830685E-007
   4.5000000000000012E-002     4.8512993089389056E-007
   4.6100000000000002E-002     4.3330248900019797E-007
   4.7200000000000020E-002     7.5480119221538189E-007
   4.8300000000000010E-002     9.7279144029016607E-007
   4.9400000000000027E-002     8.9255058810522314E-007
   5.0500000000000017E-002     6.1421189911925467E-007
   5.1600000000000007E-002     3.0663176175949047E-007
   5.2700000000000025E-002     3.1213195939017169E-007
   5.3800000000000014E-002     1.0372530141466996E-006
   5.4900000000000004E-002     1.3953739426142420E-006
   5.6000000000000022E-002     5.3594425253322697E-007
   5.7100000000000012E-002     1.5457904112281540E-007
   5.8200000000000002E-002     5.2404072903300403E-007
   5.9300000000000019E-002     7.9375314498975058E-007
   6.0400000000000009E-002     7.2070963597070659E-007
   6.1500000000000027E-002     5.9662227158696624E-007
   6.2600000000000017E-002     1.1591496331675444E-006
   6.3700000000000007E-002     1.4233720548872952E-006
   6.4800000000000024E-002     5.6472816822861205E-007
   6.5900000000000014E-002    -8.0157207094089244E-007
   6.7000000000000004E-002    -1.0157201586480369E-006
   6.8100000000000022E-002     6.6289339883951470E-007
   6.9200000000000012E-002     1.4026385315446532E-006
   7.0300000000000029E-002     4.3225618640008179E-008
   7.1400000000000019E-002    -1.3788221622235142E-006
   7.2500000000000009E-002    -2.1736727831012104E-006
   7.3600000000000027E-002    -1.6355498928533052E-006
   7.4700000000000016E-002     2.2805238586443011E-007
   7.5800000000000006E-002     1.0327889867767226E-006
   7.6900000000000024E-002    -9.9199382930237334E-007
   7.8000000000000014E-002    -3.9140363696787972E-006
   7.9100000000000004E-002    -4.4233688640815672E-006
   8.0200000000000021E-002    -2.1669688976544421E-006
   8.1300000000000011E-002     7.8095837352520903E-008
   8.2400000000000029E-002    -1.2954556893873814E-007
   8.3500000000000019E-002    -1.8236358982903766E-006
   8.4600000000000009E-002    -3.0014955427759560E-006
   8.5700000000000026E-002    -3.2039527013694169E-006
   8.6800000000000016E-002    -2.6437132873979863E-006
   8.7900000000000006E-002    -1.5869228491283138E-006
   8.9000000000000024E-002    -1.6889235610051401E-007
   9.0100000000000013E-002     7.6583995678447536E-007
   9.1200000000000003E-002    -4.2117585508094635E-007
   9.2300000000000021E-002    -3.4800336834450718E-006
   9.3400000000000011E-002    -5.0614517022040673E-006
   9.4500000000000028E-002    -1.8780782511385041E-006
   9.5600000000000018E-002     4.0857453313947190E-006
   9.6700000000000008E-002     6.0766406022594310E-006
   9.7800000000000026E-002     1.3525501572075882E-006
   9.8900000000000016E-002    -4.9993841457762755E-006
  0.10000000000000001         -5.9901040003751405E-006
  0.10110000000000002         -1.5743142967039603E-007
  0.10220000000000001          7.1634658524999395E-006
  0.10330000000000003          8.0477420851821080E-006
  0.10440000000000002          9.7596364412311232E-007
  0.10550000000000001         -5.2325904107419774E-006
  0.10660000000000003         -4.3363452277844772E-006
  0.10770000000000002          7.1266276790993288E-007
  0.10880000000000001          5.5932550822035410E-006
  0.10990000000000003          8.0966055975295603E-006
  0.11100000000000002          7.3455157689750195E-006
  0.11210000000000001          2.2834567516838433E-006
  0.11320000000000002         -5.7315828598802909E-006
  0.11430000000000001         -8.6875670604058541E-006
  0.11540000000000003         -9.5529583177267341E-007
  0.11650000000000002          1.1023913430108223E-005
  0.11760000000000001          1.4444835869653616E-005
  0.11870000000000003          4.2632882468751632E-006
  0.11980000000000002         -9.2381260401452892E-006
  0.12090000000000001         -1.1870063644892070E-005
  0.12200000000000003         -1.2365518387014163E-006
  0.12310000000000001          1.1316702511976473E-005
  0.12420000000000003          1.2899990906589665E-005
  0.12530000000000002          2.6739342047221726E-006
  0.12640000000000001         -9.2718964879168198E-006
  0.12750000000000003         -1.2569491445901804E-005
  0.12860000000000002         -5.3246726565703284E-006
  0.12970000000000001          5.2135051191726234E-006
  0.13080000000000003          1.0636214938131161E-005
  0.13190000000000002          7.9235314842662774E-006
  0.13300000000000001         -1.0157424412682303E-006
  0.13410000000000000         -1.0549045327934437E-005
  0.13520000000000004         -1.2547095138870645E-005
  0.13630000000000003         -3.3264720968873007E-006
  0.13740000000000002          9.5931854957598262E-006
  0.13850000000000001          1.2429503840394318E-005
  0.13960000000000000          6.5015063910323079E-007
  0.14070000000000005         -1.3324729479791131E-005
  0.14180000000000004         -1.3537047379941214E-005
  0.14290000000000003          2.0862624694473197E-007
  0.14400000000000002          1.2102088476240169E-005
  0.14510000000000001          9.8499185696709901E-006
  0.14620000000000000         -1.5367643300123746E-006
  0.14730000000000004         -8.8048118414008059E-006
  0.14840000000000003         -7.1770855356589891E-006
  0.14950000000000002         -2.4131700229190756E-006
  0.15060000000000001          5.4882917766008177E-007
  0.15170000000000000          3.1809629490453517E-006
  0.15280000000000005          6.2146918935468420E-006
  0.15390000000000004          4.7168578021228313E-006
  0.15500000000000003         -3.5849782307195710E-006
  0.15610000000000002         -1.0326238225388806E-005
  0.15720000000000001         -5.6112862694135401E-006
  0.15830000000000000          6.7820733420376200E-006
  0.15940000000000004          1.1940308468183503E-005
  0.16050000000000003          3.2218595151789486E-006
  0.16160000000000002         -8.4997836893307976E-006
  0.16270000000000001         -9.3101061793277040E-006
  0.16380000000000000         -3.3317812153654813E-007
  0.16490000000000005          5.6498229241697118E-006
  0.16600000000000004          3.2653524613124318E-006
  0.16710000000000003          1.7554363296312658E-007
  0.16820000000000002          2.1612454474961851E-006
  0.16930000000000001          3.4012630294455448E-006
  0.17040000000000000         -2.4775019937806064E-006
  0.17150000000000004         -8.9607474365038797E-006
  0.17260000000000003         -4.4232347136130556E-006
  0.17370000000000002          8.5137644418864511E-006
  0.17480000000000001          1.3013130228500813E-005
  0.17590000000000000          9.3567655312654097E-007
  0.17700000000000005         -1.3721672075917013E-005
  0.17810000000000004         -1.2100523235858418E-005
  0.17920000000000003          3.6624637687054928E-006
  0.18030000000000002          1.3533282071875874E-005
  0.18140000000000001          7.2393645496049430E-006
  0.18250000000000000         -4.0588106458017137E-006
  0.18360000000000004         -6.2871895352145657E-006
  0.18470000000000003         -1.4052230881134165E-006
  0.18580000000000002          4.9932193491031285E-008
  0.18690000000000001         -2.3383354346151464E-006
  0.18800000000000000          3.6179251594603556E-008
  0.18910000000000005          6.9446082306967583E-006
  0.19020000000000004          6.5918152358790394E-006
  0.19130000000000003         -4.8105207497428637E-006
  0.19240000000000002         -1.2934994629176799E-005
  0.19350000000000001         -4.2791621126525570E-006
  0.19460000000000005          1.1911823094123974E-005
  0.19570000000000004          1.3903892977396026E-005
  0.19680000000000003         -2.0275745100661879E-006
  0.19790000000000002         -1.5169724974839482E-005
  0.19900000000000001         -8.7717507994966581E-006
  0.20010000000000000          7.0889282142161392E-006
  0.20120000000000005          1.1093025932495948E-005
  0.20230000000000004          7.0543450192417367E-007
  0.20340000000000003         -6.9801467361685354E-006
  0.20450000000000002         -2.1450771328090923E-006
  0.20560000000000000          4.7173398343147710E-006
  0.20670000000000005          1.6469285810671863E-006
  0.20780000000000004         -5.4738206927140709E-006
  0.20890000000000003         -3.5822208701574709E-006
