 -0.12000000000000000          0.0000000000000000     
 -0.11889999999999999          0.0000000000000000     
 -0.11780000000000000          0.0000000000000000     
 -0.11670000000000000          0.0000000000000000     
 -0.11559999999999999          1.1805184607638353E-009
 -0.11449999999999999         -4.4208841032400414E-009
 -0.11340000000000000         -5.7617208781834961E-009
 -0.11230000000000000          3.7972512245687540E-008
 -0.11119999999999999          3.2855353992999881E-008
 -0.11009999999999999         -1.9508317450345203E-007
 -0.10900000000000000         -2.3757250744438352E-007
 -0.10790000000000000          6.7356694444242748E-007
 -0.10679999999999999          1.3699078635909245E-006
 -0.10569999999999999         -1.2544836636152468E-006
 -0.10460000000000000         -5.4777997320343275E-006
 -0.10349999999999999         -1.2872068282376858E-006
 -0.10239999999999999          1.4051095604372676E-005
 -0.10130000000000000          1.7457272406318225E-005
 -0.10020000000000000         -1.6548990970477462E-005
  -9.9099999999999994E-002    -5.7853361795423552E-005
  -9.7999999999999990E-002    -2.5858875233097933E-005
  -9.6899999999999986E-002     9.0799301688093692E-005
  -9.5799999999999996E-002     1.4862172247376293E-004
  -9.4699999999999993E-002    -3.2512728012079606E-006
  -9.3599999999999989E-002    -2.5621883105486631E-004
  -9.2499999999999999E-002    -2.6901025557890534E-004
  -9.1399999999999995E-002     9.3885500973556191E-005
  -9.0299999999999991E-002     4.5836600475013256E-004
  -8.9200000000000002E-002     3.3196879667229950E-004
  -8.8099999999999984E-002    -1.9356058328412473E-004
  -8.6999999999999994E-002    -4.5523006701841950E-004
  -8.5899999999999990E-002    -1.1572724179131910E-004
  -8.4799999999999986E-002     2.7145494823344052E-004
  -8.3699999999999997E-002    -4.5389529077510815E-006
  -8.2599999999999993E-002    -6.9212447851896286E-004
  -8.1499999999999989E-002    -7.6796230860054493E-004
  -8.0399999999999999E-002     1.7473650223109871E-004
  -7.9299999999999995E-002     1.3499355409294367E-003
  -7.8199999999999992E-002     1.9167066784575582E-003
  -7.7100000000000002E-002     2.0494919735938311E-003
  -7.5999999999999984E-002     2.2037439048290253E-003
  -7.4899999999999994E-002     1.8962731119245291E-003
  -7.3799999999999991E-002     4.3486652430146933E-004
  -7.2699999999999987E-002    -1.2273784959688783E-003
  -7.1599999999999997E-002    -9.6516922349110246E-004
  -7.0499999999999993E-002     1.4228253858163953E-003
  -6.9399999999999989E-002     3.1058320309966803E-003
  -6.8300000000000000E-002     1.9094408489763737E-003
  -6.7199999999999996E-002     1.5261113003361970E-004
  -6.6099999999999992E-002     2.2200683597475290E-003
  -6.5000000000000002E-002     8.0433823168277740E-003
  -6.3899999999999985E-002     1.1898295953869820E-002
  -6.2799999999999995E-002     9.6030924469232559E-003
  -6.1699999999999991E-002     4.7228764742612839E-003
  -6.0599999999999994E-002     4.4603785499930382E-003
  -5.9499999999999990E-002     1.0296573862433434E-002
  -5.8399999999999994E-002     1.6540033742785454E-002
  -5.7299999999999990E-002     1.8767865374684334E-002
  -5.6199999999999986E-002     1.9525086507201195E-002
  -5.5099999999999996E-002     2.3102112114429474E-002
  -5.3999999999999992E-002     2.8400788083672523E-002
  -5.2899999999999989E-002     3.1773660331964493E-002
  -5.1799999999999985E-002     3.4913931041955948E-002
  -5.0699999999999995E-002     4.3335057795047760E-002
  -4.9599999999999991E-002     5.6082434952259064E-002
  -4.8499999999999988E-002     6.4128682017326355E-002
  -4.7399999999999998E-002     6.3666403293609619E-002
  -4.6299999999999994E-002     6.5328657627105713E-002
  -4.5199999999999990E-002     8.1901520490646362E-002
  -4.4099999999999986E-002    0.10892854630947113     
  -4.2999999999999997E-002    0.12781409919261932     
  -4.1899999999999993E-002    0.13056442141532898     
  -4.0799999999999989E-002    0.13205967843532562     
  -3.9699999999999985E-002    0.15034614503383636     
  -3.8599999999999995E-002    0.18187813460826874     
  -3.7499999999999992E-002    0.20760500431060791     
  -3.6399999999999988E-002    0.22086645662784576     
  -3.5299999999999984E-002    0.23526102304458618     
  -3.4199999999999994E-002    0.26149496436119080     
  -3.3099999999999991E-002    0.29013872146606445     
  -3.1999999999999987E-002    0.30832868814468384     
  -3.0899999999999997E-002    0.32302442193031311     
  -2.9799999999999993E-002    0.35122549533843994     
  -2.8699999999999989E-002    0.38937333226203918     
  -2.7599999999999986E-002    0.41260978579521179     
  -2.6499999999999996E-002    0.41116017103195190     
  -2.5399999999999992E-002    0.40924596786499023     
  -2.4299999999999988E-002    0.43213412165641785     
  -2.3199999999999985E-002    0.46687397360801697     
  -2.2099999999999995E-002    0.47655624151229858     
  -2.0999999999999991E-002    0.45257708430290222     
  -1.9899999999999987E-002    0.42638912796974182     
  -1.8799999999999983E-002    0.42121690511703491     
  -1.7699999999999994E-002    0.41627919673919678     
  -1.6599999999999990E-002    0.37825986742973328     
  -1.5499999999999986E-002    0.31292393803596497     
  -1.4399999999999996E-002    0.25587093830108643     
  -1.3299999999999992E-002    0.21315033733844757     
  -1.2199999999999989E-002    0.14703384041786194     
  -1.1099999999999985E-002     3.1594544649124146E-002
  -9.9999999999999950E-003   -0.10154889523983002     
  -8.8999999999999913E-003   -0.20626676082611084     
  -7.7999999999999875E-003   -0.29458272457122803     
  -6.6999999999999837E-003   -0.42162871360778809     
  -5.5999999999999939E-003   -0.60704588890075684     
  -4.4999999999999901E-003   -0.79962289333343506     
  -3.3999999999999864E-003   -0.95483553409576416     
  -2.2999999999999826E-003    -1.0950152873992920     
  -1.1999999999999927E-003    -1.2710537910461426     
  -9.9999999999988987E-005    -1.4831697940826416     
   1.0000000000000148E-003    -1.6759443283081055     
   2.1000000000000185E-003    -1.8241635560989380     
   3.2000000000000084E-003    -1.9736467599868774     
   4.3000000000000121E-003    -2.1624488830566406     
   5.4000000000000159E-003    -2.3486180305480957     
   6.5000000000000058E-003    -2.4614064693450928     
   7.6000000000000234E-003    -2.5088179111480713     
   8.7000000000000133E-003    -2.5708150863647461     
   9.8000000000000032E-003    -2.6809706687927246     
   1.0900000000000021E-002    -2.7565162181854248     
   1.2000000000000011E-002    -2.7185778617858887     
   1.3100000000000001E-002    -2.6006178855895996     
   1.4200000000000018E-002    -2.4966988563537598     
   1.5300000000000008E-002    -2.4209713935852051     
   1.6400000000000026E-002    -2.2853245735168457     
   1.7500000000000016E-002    -2.0409355163574219     
   1.8600000000000005E-002    -1.7436990737915039     
   1.9700000000000023E-002    -1.4671922922134399     
   2.0800000000000013E-002    -1.1861381530761719     
   2.1900000000000003E-002   -0.81756132841110229     
   2.3000000000000020E-002   -0.36227244138717651     
   2.4100000000000010E-002     8.0792903900146484E-002
   2.5200000000000000E-002    0.46033045649528503     
   2.6300000000000018E-002    0.85508155822753906     
   2.7400000000000008E-002     1.3540656566619873     
   2.8500000000000025E-002     1.9047486782073975     
   2.9600000000000015E-002     2.3739032745361328     
   3.0700000000000005E-002     2.7367799282073975     
   3.1800000000000023E-002     3.1039438247680664     
   3.2900000000000013E-002     3.5493021011352539     
   3.4000000000000002E-002     3.9850444793701172     
   3.5100000000000020E-002     4.2860436439514160     
   3.6200000000000010E-002     4.4730162620544434     
   3.7300000000000028E-002     4.6710538864135742     
   3.8400000000000017E-002     4.9051871299743652     
   3.9500000000000007E-002     5.0508961677551270     
   4.0600000000000025E-002     5.0227627754211426     
   4.1700000000000015E-002     4.9051618576049805     
   4.2800000000000005E-002     4.8296790122985840     
   4.3900000000000022E-002     4.7675342559814453     
   4.5000000000000012E-002     4.5670833587646484     
   4.6100000000000002E-002     4.1940908432006836     
   4.7200000000000020E-002     3.7834887504577637     
   4.8300000000000010E-002     3.4463632106781006     
   4.9400000000000027E-002     3.1085896492004395     
   5.0500000000000017E-002     2.6286242008209229     
   5.1600000000000007E-002     2.0302469730377197     
   5.2700000000000025E-002     1.4817409515380859     
   5.3800000000000014E-002     1.0386631488800049     
   5.4900000000000004E-002    0.57043457031250000     
   5.6000000000000022E-002    -2.5458814576268196E-002
   5.7100000000000012E-002   -0.65117698907852173     
   5.8200000000000002E-002    -1.1372314691543579     
   5.9300000000000019E-002    -1.4913301467895508     
   6.0400000000000009E-002    -1.8889602422714233     
   6.1500000000000027E-002    -2.3932623863220215     
   6.2600000000000017E-002    -2.8461918830871582     
   6.3700000000000007E-002    -3.1062383651733398     
   6.4800000000000024E-002    -3.2481284141540527     
   6.5900000000000014E-002    -3.4524013996124268     
   6.7000000000000004E-002    -3.7187414169311523     
   6.8100000000000022E-002    -3.8690414428710938     
   6.9200000000000012E-002    -3.8226883411407471     
   7.0300000000000029E-002    -3.7233507633209229     
   7.1400000000000019E-002    -3.7281117439270020     
   7.2500000000000009E-002    -3.7559254169464111     
   7.3600000000000027E-002    -3.6150341033935547     
   7.4700000000000016E-002    -3.3039660453796387     
   7.5800000000000006E-002    -3.0271496772766113     
   7.6900000000000024E-002    -2.8963577747344971     
   7.8000000000000014E-002    -2.7604701519012451     
   7.9100000000000004E-002    -2.4440097808837891     
   8.0200000000000021E-002    -2.0189270973205566     
   8.1300000000000011E-002    -1.7016531229019165     
   8.2400000000000029E-002    -1.5290296077728271     
   8.3500000000000019E-002    -1.3129490613937378     
   8.4600000000000009E-002   -0.94505035877227783     
   8.5700000000000026E-002   -0.56872558593750000     
   8.6800000000000016E-002   -0.35728210210800171     
   8.7900000000000006E-002   -0.24397248029708862     
   8.9000000000000024E-002    -2.5791803374886513E-002
   9.0100000000000013E-002    0.31373187899589539     
   9.1200000000000003E-002    0.56558048725128174     
   9.2300000000000021E-002    0.61261790990829468     
   9.3400000000000011E-002    0.61438095569610596     
   9.4500000000000028E-002    0.77170681953430176     
   9.5600000000000018E-002     1.0210791826248169     
   9.6700000000000008E-002     1.1291300058364868     
   9.7800000000000026E-002     1.0448108911514282     
   9.8900000000000016E-002    0.97531163692474365     
  0.10000000000000001          1.0694075822830200     
  0.10110000000000002          1.1981791257858276     
  0.10220000000000001          1.1615691184997559     
  0.10330000000000003          1.0014469623565674     
  0.10440000000000002         0.93320423364639282     
  0.10550000000000001          1.0107415914535522     
  0.10660000000000003          1.0407104492187500     
  0.10770000000000002         0.89262574911117554     
  0.10880000000000001         0.70266139507293701     
  0.10990000000000003         0.67277461290359497     
  0.11100000000000002         0.75794237852096558     
  0.11210000000000001         0.73198330402374268     
  0.11320000000000002         0.53734982013702393     
  0.11430000000000001         0.37350279092788696     
  0.11540000000000003         0.39435288310050964     
  0.11650000000000002         0.47320872545242310     
  0.11760000000000001         0.40421539545059204     
  0.11870000000000003         0.21606265008449554     
  0.11980000000000002         0.12486688792705536     
  0.12090000000000001         0.20077650249004364     
  0.12200000000000003         0.26000595092773438     
  0.12310000000000001         0.14969800412654877     
  0.12420000000000003         -1.3909565284848213E-002
  0.12530000000000002         -2.6496225968003273E-002
  0.12640000000000001          9.1597922146320343E-002
  0.12750000000000003         0.12611156702041626     
  0.12860000000000002         -2.7348103467375040E-003
  0.12970000000000001        -0.12234705686569214     
  0.13080000000000003         -7.4591211974620819E-002
  0.13190000000000002          4.3265167623758316E-002
  0.13300000000000001          3.4908667206764221E-002
  0.13410000000000000         -9.3363083899021149E-002
  0.13520000000000004        -0.14779636263847351     
  0.13630000000000003         -5.0467569380998611E-002
  0.13740000000000002          4.1264388710260391E-002
  0.13850000000000001         -1.9385946914553642E-002
  0.13960000000000000        -0.14087483286857605     
  0.14070000000000005        -0.13456811010837555     
  0.14180000000000004         -6.7685679532587528E-003
  0.14290000000000003          5.0668898969888687E-002
  0.14400000000000002         -4.6212170273065567E-002
  0.14510000000000001        -0.14658305048942566     
  0.14620000000000000         -9.7968332469463348E-002
  0.14730000000000004          2.5063700973987579E-002
  0.14840000000000003          3.9737734943628311E-002
  0.14950000000000002         -6.5630599856376648E-002
  0.15060000000000001        -0.12127430737018585     
  0.15170000000000000         -4.0685012936592102E-002
  0.15280000000000005          4.9996450543403625E-002
  0.15390000000000004          1.2758149765431881E-002
  0.15500000000000003         -8.9442521333694458E-002
  0.15610000000000002         -9.3452982604503632E-002
  0.15720000000000001          1.0555411688983440E-002
  0.15830000000000000          6.5985225141048431E-002
  0.15940000000000004         -9.2544220387935638E-003
  0.16050000000000003         -9.7986295819282532E-002
  0.16160000000000002         -6.5498918294906616E-002
  0.16270000000000001          3.7799555808305740E-002
  0.16380000000000000          5.8305848389863968E-002
  0.16490000000000005         -2.6971187442541122E-002
  0.16600000000000004         -8.2698926329612732E-002
  0.16710000000000003         -2.6718918234109879E-002
  0.16820000000000002          4.9148600548505783E-002
  0.16930000000000001          2.8304990381002426E-002
  0.17040000000000000         -5.1223848015069962E-002
  0.17150000000000004         -6.1509873718023300E-002
  0.17260000000000003          1.4304627664387226E-002
  0.17370000000000002          5.8053746819496155E-002
  0.17480000000000001          1.5652498695999384E-003
  0.17590000000000000         -6.8466596305370331E-002
  0.17700000000000005         -4.4721212238073349E-002
  0.17810000000000004          3.7477981299161911E-002
  0.17920000000000003          5.5983029305934906E-002
  0.18030000000000002         -1.3434444554150105E-002
  0.18140000000000001         -6.5450169146060944E-002
  0.18250000000000000         -2.6395792141556740E-002
  0.18360000000000004          4.0104676038026810E-002
  0.18470000000000003          3.6309141665697098E-002
  0.18580000000000002         -2.3651972413063049E-002
  0.18690000000000001         -4.4797651469707489E-002
  0.18800000000000000          1.2662721564993262E-004
  0.18910000000000005          3.5875327885150909E-002
  0.19020000000000004          7.5357086025178432E-003
  0.19130000000000003         -3.6463972181081772E-002
  0.19240000000000002         -2.5053726509213448E-002
  0.19350000000000001          2.4122502654790878E-002
  0.19460000000000005          3.4003954380750656E-002
  0.19570000000000004         -1.1175702325999737E-002
  0.19680000000000003         -4.3030593544244766E-002
  0.19790000000000002         -1.4414452947676182E-002
  0.19900000000000001          3.1100254505872726E-002
  0.20010000000000000          2.7464775368571281E-002
  0.20120000000000005         -1.5715027227997780E-002
  0.20230000000000004         -3.3103995025157928E-002
  0.20340000000000003         -3.2135269138962030E-003
  0.20450000000000002          2.4844294413924217E-002
  0.20560000000000000          1.0253555141389370E-002
  0.20670000000000005         -2.0431732758879662E-002
  0.20780000000000004         -1.9204391166567802E-002
  0.20890000000000003          9.8622450605034828E-003
