 -0.12000000000000000          0.0000000000000000     
 -0.11889999999999999          0.0000000000000000     
 -0.11780000000000000        -0.13998451828956604     
 -0.11670000000000000          5.2324008196592331E-002
 -0.11559999999999999         0.56046336889266968     
 -0.11449999999999999          9.9298387765884399E-002
 -0.11340000000000000         -1.1527036428451538     
 -0.11230000000000000        -0.55342328548431396     
 -0.11119999999999999          1.6516824960708618     
 -0.11009999999999999         0.39463508129119873     
 -0.10900000000000000         -4.3418312072753906     
 -0.10790000000000000         -2.0974111557006836     
 -0.10679999999999999          11.097187995910645     
 -0.10569999999999999          16.248786926269531     
 -0.10460000000000000         -6.1147117614746094     
 -0.10349999999999999         -35.920642852783203     
 -0.10239999999999999         -27.007154464721680     
 -0.10130000000000000          23.177309036254883     
 -0.10020000000000000          51.184902191162109     
  -9.9099999999999994E-002     11.960802078247070     
  -9.7999999999999990E-002    -41.176055908203125     
  -9.6899999999999986E-002    -21.417095184326172     
  -9.5799999999999996E-002     52.184204101562500     
  -9.4699999999999993E-002     60.060821533203125     
  -9.3599999999999989E-002    -39.851131439208984     
  -9.2499999999999999E-002    -121.23011779785156     
  -9.1399999999999995E-002    -59.311553955078125     
  -9.0299999999999991E-002     63.293334960937500     
  -8.9200000000000002E-002     46.401245117187500     
  -8.8099999999999984E-002    -131.76856994628906     
  -8.6999999999999994E-002    -251.61811828613281     
  -8.5899999999999990E-002    -156.15898132324219     
  -8.4799999999999986E-002     7.4950165748596191     
  -8.3699999999999997E-002    -11.777790069580078     
  -8.2599999999999993E-002    -203.33843994140625     
  -8.1499999999999989E-002    -316.56814575195312     
  -8.0399999999999999E-002    -248.55296325683594     
  -7.9299999999999995E-002    -199.41146850585938     
  -7.8199999999999992E-002    -342.74047851562500     
  -7.7100000000000002E-002    -533.17309570312500     
  -7.5999999999999984E-002    -544.72082519531250     
  -7.4899999999999994E-002    -482.41558837890625     
  -7.3799999999999991E-002    -672.42272949218750     
  -7.2699999999999987E-002    -1133.3579101562500     
  -7.1599999999999997E-002    -1465.3007812500000     
  -7.0499999999999993E-002    -1426.3923339843750     
  -6.9399999999999989E-002    -1365.6361083984375     
  -6.8300000000000000E-002    -1785.9899902343750     
  -6.7199999999999996E-002    -2607.5205078125000     
  -6.6099999999999992E-002    -3242.5722656250000     
  -6.5000000000000002E-002    -3441.0690917968750     
  -6.3899999999999985E-002    -3677.5322265625000     
  -6.2799999999999995E-002    -4480.3691406250000     
  -6.1699999999999991E-002    -5683.8466796875000     
  -6.0599999999999994E-002    -6721.8037109375000     
  -5.9499999999999990E-002    -7509.2973632812500     
  -5.8399999999999994E-002    -8558.7246093750000     
  -5.7299999999999990E-002    -10166.128906250000     
  -5.6199999999999986E-002    -11959.749023437500     
  -5.5099999999999996E-002    -13540.309570312500     
  -5.3999999999999992E-002    -15197.578125000000     
  -5.2899999999999989E-002    -17512.744140625000     
  -5.1799999999999985E-002    -20418.779296875000     
  -5.0699999999999995E-002    -23236.359375000000     
  -4.9599999999999991E-002    -25736.531250000000     
  -4.8499999999999988E-002    -28606.759765625000     
  -4.7399999999999998E-002    -32494.746093750000     
  -4.6299999999999994E-002    -37002.273437500000     
  -4.5199999999999990E-002    -41207.859375000000     
  -4.4099999999999986E-002    -45017.488281250000     
  -4.2999999999999997E-002    -49330.500000000000     
  -4.1899999999999993E-002    -54721.804687500000     
  -4.0799999999999989E-002    -60584.398437500000     
  -3.9699999999999985E-002    -66014.601562500000     
  -3.8599999999999995E-002    -71089.148437500000     
  -3.7499999999999992E-002    -76622.234375000000     
  -3.6399999999999988E-002    -82815.867187500000     
  -3.5299999999999984E-002    -88903.359375000000     
  -3.4199999999999994E-002    -94296.414062500000     
  -3.3099999999999991E-002    -99407.429687500000     
  -3.1999999999999987E-002    -104818.96093750000     
  -3.0899999999999997E-002    -110096.48437500000     
  -2.9799999999999993E-002    -114201.00781250000     
  -2.8699999999999989E-002    -116949.21875000000     
  -2.7599999999999986E-002    -119198.41406250000     
  -2.6499999999999996E-002    -121377.67968750000     
  -2.5399999999999992E-002    -122523.04687500000     
  -2.4299999999999988E-002    -121373.15625000000     
  -2.3199999999999985E-002    -117991.72656250000     
  -2.2099999999999995E-002    -113433.70312500000     
  -2.0999999999999991E-002    -107980.27343750000     
  -1.9899999999999987E-002    -100534.91406250000     
  -1.8799999999999983E-002    -90100.210937500000     
  -1.7699999999999994E-002    -77022.125000000000     
  -1.6599999999999990E-002    -62185.156250000000     
  -1.5499999999999986E-002    -45448.300781250000     
  -1.4399999999999996E-002    -25828.689453125000     
  -1.3299999999999992E-002    -3096.1657714843750     
  -1.2199999999999989E-002     21829.314453125000     
  -1.1099999999999985E-002     48251.390625000000     
  -9.9999999999999950E-003     76717.515625000000     
  -8.8999999999999913E-003     108070.23437500000     
  -7.7999999999999875E-003     141855.35937500000     
  -6.6999999999999837E-003     176612.25000000000     
  -5.5999999999999939E-003     211547.70312500000     
  -4.4999999999999901E-003     247261.10937500000     
  -3.3999999999999864E-003     284188.56250000000     
  -2.2999999999999826E-003     321453.56250000000     
  -1.1999999999999927E-003     357496.68750000000     
  -9.9999999999988987E-005     391722.43750000000     
   1.0000000000000148E-003     424472.43750000000     
   2.1000000000000185E-003     455528.09375000000     
   3.2000000000000084E-003     483612.78125000000     
   4.3000000000000121E-003     507454.37500000000     
   5.4000000000000159E-003     527026.87500000000     
   6.5000000000000058E-003     542697.81250000000     
   7.6000000000000234E-003     553851.12500000000     
   8.7000000000000133E-003     558997.25000000000     
   9.8000000000000032E-003     557370.62500000000     
   1.0900000000000021E-002     549476.93750000000     
   1.2000000000000011E-002     535911.87500000000     
   1.3100000000000001E-002     516204.21875000000     
   1.4200000000000018E-002     489377.50000000000     
   1.5300000000000008E-002     455389.15625000000     
   1.6400000000000026E-002     415169.09375000000     
   1.7500000000000016E-002     369448.75000000000     
   1.8600000000000005E-002     318070.18750000000     
   1.9700000000000023E-002     260941.96875000000     
   2.0800000000000013E-002     198961.17187500000     
   2.1900000000000003E-002     133541.35937500000     
   2.3000000000000020E-002     65435.664062500000     
   2.4100000000000010E-002    -5272.1494140625000     
   2.5200000000000000E-002    -78036.679687500000     
   2.6300000000000018E-002    -151374.68750000000     
   2.7400000000000008E-002    -223701.98437500000     
   2.8500000000000025E-002    -294250.46875000000     
   2.9600000000000015E-002    -362687.03125000000     
   3.0700000000000005E-002    -428228.62500000000     
   3.1800000000000023E-002    -489547.21875000000     
   3.2900000000000013E-002    -545467.37500000000     
   3.4000000000000002E-002    -595579.06250000000     
   3.5100000000000020E-002    -639508.37500000000     
   3.6200000000000010E-002    -676590.81250000000     
   3.7300000000000028E-002    -705958.56250000000     
   3.8400000000000017E-002    -727222.68750000000     
   3.9500000000000007E-002    -740649.75000000000     
   4.0600000000000025E-002    -746419.37500000000     
   4.1700000000000015E-002    -744184.18750000000     
   4.2800000000000005E-002    -733744.62500000000     
   4.3900000000000022E-002    -715439.68750000000     
   4.5000000000000012E-002    -690008.12500000000     
   4.6100000000000002E-002    -658122.68750000000     
   4.7200000000000020E-002    -620230.68750000000     
   4.8300000000000010E-002    -576752.43750000000     
   4.9400000000000027E-002    -528439.06250000000     
   5.0500000000000017E-002    -476175.62500000000     
   5.1600000000000007E-002    -420677.96875000000     
   5.2700000000000025E-002    -362858.56250000000     
   5.3800000000000014E-002    -303639.68750000000     
   5.4900000000000004E-002    -243871.64062500000     
   5.6000000000000022E-002    -184177.84375000000     
   5.7100000000000012E-002    -125235.95312500000     
   5.8200000000000002E-002    -67886.617187500000     
   5.9300000000000019E-002    -12870.327148437500     
   6.0400000000000009E-002     39327.031250000000     
   6.1500000000000027E-002     88296.281250000000     
   6.2600000000000017E-002     133474.35937500000     
   6.3700000000000007E-002     174366.00000000000     
   6.4800000000000024E-002     210826.90625000000     
   6.5900000000000014E-002     242952.14062500000     
   6.7000000000000004E-002     270604.78125000000     
   6.8100000000000022E-002     293412.43750000000     
   6.9200000000000012E-002     311237.62500000000     
   7.0300000000000029E-002     324544.28125000000     
   7.1400000000000019E-002     333889.12500000000     
   7.2500000000000009E-002     339290.96875000000     
   7.3600000000000027E-002     340455.34375000000     
   7.4700000000000016E-002     337632.56250000000     
   7.5800000000000006E-002     331764.75000000000     
   7.6900000000000024E-002     323568.93750000000     
   7.8000000000000014E-002     312939.37500000000     
   7.9100000000000004E-002     299574.28125000000     
   8.0200000000000021E-002     284010.12500000000     
   8.1300000000000011E-002     267386.96875000000     
   8.2400000000000029E-002     250244.45312500000     
   8.3500000000000019E-002     232217.17187500000     
   8.4600000000000009E-002     213086.68750000000     
   8.5700000000000026E-002     193648.23437500000     
   8.6800000000000016E-002     174878.75000000000     
   8.7900000000000006E-002     156746.31250000000     
   8.9000000000000024E-002     138567.56250000000     
   9.0100000000000013E-002     120422.07031250000     
   9.1200000000000003E-002     103391.92968750000     
   9.2300000000000021E-002     88169.968750000000     
   9.3400000000000011E-002     74080.906250000000     
   9.4500000000000028E-002     60114.125000000000     
   9.5600000000000018E-002     46568.484375000000     
   9.6700000000000008E-002     34734.820312500000     
   9.7800000000000026E-002     25023.974609375000     
   9.8900000000000016E-002     16351.589843750000     
  0.10000000000000001          7743.6108398437500     
  0.10110000000000002         -224.67059326171875     
  0.10220000000000001         -6447.2426757812500     
  0.10330000000000003         -11091.576171875000     
  0.10440000000000002         -15411.124023437500     
  0.10550000000000001         -19808.212890625000     
  0.10660000000000003         -23229.701171875000     
  0.10770000000000002         -24926.498046875000     
  0.10880000000000001         -25818.390625000000     
  0.10990000000000003         -27309.103515625000     
  0.11100000000000002         -29174.957031250000     
  0.11210000000000001         -29900.511718750000     
  0.11320000000000002         -29000.697265625000     
  0.11430000000000001         -27880.117187500000     
  0.11540000000000003         -27834.033203125000     
  0.11650000000000002         -28202.050781250000     
  0.11760000000000001         -27469.707031250000     
  0.11870000000000003         -25620.792968750000     
  0.11980000000000002         -24155.376953125000     
  0.12090000000000001         -23765.832031250000     
  0.12200000000000003         -23315.826171875000     
  0.12310000000000001         -21682.960937500000     
  0.12420000000000003         -19610.812500000000     
  0.12530000000000002         -18606.867187500000     
  0.12640000000000001         -18578.494140625000     
  0.12750000000000003         -17903.978515625000     
  0.12860000000000002         -15914.741210937500     
  0.12970000000000001         -13991.282226562500     
  0.13080000000000003         -13512.499023437500     
  0.13190000000000002         -13763.923828125000     
  0.13300000000000001         -13013.610351562500     
  0.13410000000000000         -11142.792968750000     
  0.13520000000000004         -9799.9462890625000     
  0.13630000000000003         -9862.1894531250000     
  0.13740000000000002         -10099.709960937500     
  0.13850000000000001         -9091.8378906250000     
  0.13960000000000000         -7431.0112304687500     
  0.14070000000000005         -6805.1826171875000     
  0.14180000000000004         -7378.1464843750000     
  0.14290000000000003         -7518.7988281250000     
  0.14400000000000002         -6301.7387695312500     
  0.14510000000000001         -4925.3486328125000     
  0.14620000000000000         -4865.9453125000000     
  0.14730000000000004         -5621.9345703125000     
  0.14840000000000003         -5513.3935546875000     
  0.14950000000000002         -4272.0263671875000     
  0.15060000000000001         -3421.6120605468750     
  0.15170000000000000         -3883.3959960937500     
  0.15280000000000005         -4542.9238281250000     
  0.15390000000000004         -3988.8666992187500     
  0.15500000000000003         -2724.4775390625000     
  0.15610000000000002         -2416.0451660156250     
  0.15720000000000001         -3317.6892089843750     
  0.15830000000000000         -3849.1848144531250     
  0.15940000000000004         -2982.1826171875000     
  0.16050000000000003         -1794.9089355468750     
  0.16160000000000002         -1832.3564453125000     
  0.16270000000000001         -2796.2448730468750     
  0.16380000000000000         -3057.2895507812500     
  0.16490000000000005         -2136.5629882812500     
  0.16600000000000004         -1352.9370117187500     
  0.16710000000000003         -1729.4696044921875     
  0.16820000000000002         -2448.6040039062500     
  0.16930000000000001         -2198.2531738281250     
  0.17040000000000000         -1241.6708984375000     
  0.17150000000000004         -987.78143310546875     
  0.17260000000000003         -1764.7976074218750     
  0.17370000000000002         -2280.1740722656250     
  0.17480000000000001         -1604.2381591796875     
  0.17590000000000000         -618.15618896484375     
  0.17700000000000005         -688.60797119140625     
  0.17810000000000004         -1609.2708740234375     
  0.17920000000000003         -1934.6049804687500     
  0.18030000000000002         -1157.9396972656250     
  0.18140000000000001         -411.36331176757812     
  0.18250000000000000         -703.21301269531250     
  0.18360000000000004         -1438.2979736328125     
  0.18470000000000003         -1416.8364257812500     
  0.18580000000000002         -684.57238769531250     
  0.18690000000000001         -386.07391357421875     
  0.18800000000000000         -941.95977783203125     
  0.18910000000000005         -1415.6533203125000     
  0.19020000000000004         -1004.0217285156250     
  0.19130000000000003         -292.39074707031250     
  0.19240000000000002         -343.78286743164062     
  0.19350000000000001         -1059.5836181640625     
  0.19460000000000005         -1336.1497802734375     
  0.19570000000000004         -743.40100097656250     
  0.19680000000000003         -147.28448486328125     
  0.19790000000000002         -376.85482788085938     
  0.19900000000000001         -1005.4984741210938     
  0.20010000000000000         -1059.2229003906250     
  0.20120000000000005         -486.88766479492188     
  0.20230000000000004         -160.41143798828125     
  0.20340000000000003         -504.58239746093750     
  0.20450000000000002         -897.72497558593750     
  0.20560000000000000         -695.34918212890625     
  0.20670000000000005         -217.52676391601562     
  0.20780000000000004         -201.87680053710938     
  0.20890000000000003         -639.89581298828125     
