 -0.12000000000000000          0.0000000000000000     
 -0.11889999999999999          0.0000000000000000     
 -0.11780000000000000          0.0000000000000000     
 -0.11670000000000000          0.0000000000000000     
 -0.11559999999999999          0.0000000000000000     
 -0.11449999999999999         -4.7138114742363311E-017
 -0.11340000000000000         -2.1095400219121428E-017
 -0.11230000000000000          4.2314211153424337E-016
 -0.11119999999999999          3.8865029464733782E-016
 -0.11009999999999999         -1.5070684424465185E-015
 -0.10900000000000000         -1.5402347586500895E-015
 -0.10790000000000000          3.1518879472808726E-015
 -0.10679999999999999         -2.5962125227836598E-015
 -0.10569999999999999         -2.0980724888550531E-014
 -0.10460000000000000          1.9584152211710691E-014
 -0.10349999999999999          1.4927420194030261E-013
 -0.10239999999999999          1.0072512621065247E-013
 -0.10130000000000000         -4.4125128355852750E-013
 -0.10020000000000000         -9.2485871391878582E-013
  -9.9099999999999994E-002     1.5698740931887646E-014
  -9.7999999999999990E-002     2.2977396894885427E-012
  -9.6899999999999986E-002     2.9257685683903301E-012
  -9.5799999999999996E-002    -4.8169064223446689E-013
  -9.4699999999999993E-002    -4.9346763654478654E-012
  -9.3599999999999989E-002    -5.5102380991378652E-012
  -9.2499999999999999E-002    -3.9033806568944396E-012
  -9.1399999999999995E-002    -4.2591321094964663E-012
  -9.0299999999999991E-002     2.9482807254593846E-012
  -8.9200000000000002E-002     3.3374261687590945E-011
  -8.8099999999999984E-002     6.5272440230579321E-011
  -8.6999999999999994E-002     2.8809571048227234E-011
  -8.5899999999999990E-002    -1.0447967491167276E-010
  -8.4799999999999986E-002    -2.2184516723644521E-010
  -8.3699999999999997E-002    -1.4757392530206914E-010
  -8.2599999999999993E-002     1.2218830114374413E-010
  -8.1499999999999989E-002     3.5198699510630149E-010
  -8.0399999999999999E-002     3.4754826794269889E-010
  -7.9299999999999995E-002     2.1205118216904850E-010
  -7.8199999999999992E-002     1.0780209364069648E-010
  -7.7100000000000002E-002    -1.6975870709146079E-010
  -7.5999999999999984E-002    -9.4301777497918238E-010
  -7.4899999999999994E-002    -1.7750486636103346E-009
  -7.3799999999999991E-002    -1.3915413266119003E-009
  -7.2699999999999987E-002     7.9025463950443964E-010
  -7.1599999999999997E-002     3.2675164796103218E-009
  -7.0499999999999993E-002     3.6555243276836791E-009
  -6.9399999999999989E-002     1.6367918131976467E-009
  -6.8300000000000000E-002    -4.4790202102795718E-010
  -6.7199999999999996E-002    -9.5142360656552682E-010
  -6.6099999999999992E-002    -1.7074436309272301E-009
  -6.5000000000000002E-002    -5.3032462865587604E-009
  -6.3899999999999985E-002    -9.7709413893198871E-009
  -6.2799999999999995E-002    -9.0779774808424918E-009
  -6.1699999999999991E-002    -7.4273753813969279E-010
  -6.0599999999999994E-002     9.5780547937351912E-009
  -5.9499999999999990E-002     1.4605309850423964E-008
  -5.8399999999999994E-002     1.5140351194986579E-008
  -5.7299999999999990E-002     1.7925557926901092E-008
  -5.6199999999999986E-002     2.2477639305407138E-008
  -5.5099999999999996E-002     1.6270510272420324E-008
  -5.3999999999999992E-002    -1.0705242026176620E-008
  -5.2899999999999989E-002    -4.9048484385139091E-008
  -5.1799999999999985E-002    -7.5202819971309509E-008
  -5.0699999999999995E-002    -7.4730259314037539E-008
  -4.9599999999999991E-002    -5.3250669651561111E-008
  -4.8499999999999988E-002    -2.1132745331442493E-008
  -4.7399999999999998E-002     2.3751489663936809E-008
  -4.6299999999999994E-002     8.7723364572411811E-008
  -4.5199999999999990E-002     1.5933153463265626E-007
  -4.4099999999999986E-002     2.0890763607894769E-007
  -4.2999999999999997E-002     2.1407204542356340E-007
  -4.1899999999999993E-002     1.7594969392575877E-007
  -4.0799999999999989E-002     1.0516897219758903E-007
  -3.9699999999999985E-002     5.0349546754091534E-009
  -3.8599999999999995E-002    -1.1608774030946734E-007
  -3.7499999999999992E-002    -2.2220314122023410E-007
  -3.6399999999999988E-002    -2.6125835006496345E-007
  -3.5299999999999984E-002    -2.0626961827474588E-007
  -3.4199999999999994E-002    -7.0552836461956758E-008
  -3.3099999999999991E-002     1.2329373078046046E-007
  -3.1999999999999987E-002     3.6530707347992575E-007
  -3.0899999999999997E-002     6.2365825215238146E-007
  -2.9799999999999993E-002     8.0204131336358842E-007
  -2.8699999999999989E-002     7.7297738698689500E-007
  -2.7599999999999986E-002     4.6973090661595052E-007
  -2.6499999999999996E-002    -8.0201601804219536E-008
  -2.5399999999999992E-002    -8.3026873198832618E-007
  -2.4299999999999988E-002    -1.7901816136145499E-006
  -2.3199999999999985E-002    -2.9795940008625621E-006
  -2.2099999999999995E-002    -4.3151258068974130E-006
  -2.0999999999999991E-002    -5.6054341257549822E-006
  -1.9899999999999987E-002    -6.7007717916567344E-006
  -1.8799999999999983E-002    -7.6311425800668076E-006
  -1.7699999999999994E-002    -8.5751962615177035E-006
  -1.6599999999999990E-002    -9.7260390248266049E-006
  -1.5499999999999986E-002    -1.1238485967624001E-005
  -1.4399999999999996E-002    -1.3294821656018030E-005
  -1.3299999999999992E-002    -1.6147241694852710E-005
  -1.2199999999999989E-002    -2.0053370462846942E-005
  -1.1099999999999985E-002    -2.5203013137797825E-005
  -9.9999999999999950E-003    -3.1742678402224556E-005
  -8.8999999999999913E-003    -3.9833412301959470E-005
  -7.7999999999999875E-003    -4.9621972721070051E-005
  -6.6999999999999837E-003    -6.1190417909529060E-005
  -5.5999999999999939E-003    -7.4648640293162316E-005
  -4.4999999999999901E-003    -9.0328554506413639E-005
  -3.3999999999999864E-003    -1.0883576032938436E-004
  -2.2999999999999826E-003    -1.3084169768262655E-004
  -1.1999999999999927E-003    -1.5686903498135507E-004
  -9.9999999999988987E-005    -1.8738636572379619E-004
   1.0000000000000148E-003    -2.2309261839836836E-004
   2.1000000000000185E-003    -2.6497989892959595E-004
   3.2000000000000084E-003    -3.1405891058966517E-004
   4.3000000000000121E-003    -3.7109621916897595E-004
   5.4000000000000159E-003    -4.3674971675500274E-004
   6.5000000000000058E-003    -5.1193218678236008E-004
   7.6000000000000234E-003    -5.9788953512907028E-004
   8.7000000000000133E-003    -6.9593044463545084E-004
   9.8000000000000032E-003    -8.0719287507236004E-004
   1.0900000000000021E-002    -9.3272747471928596E-004
   1.2000000000000011E-002    -1.0737399570643902E-003
   1.3100000000000001E-002    -1.2316148495301604E-003
   1.4200000000000018E-002    -1.4077802188694477E-003
   1.5300000000000008E-002    -1.6035983571782708E-003
   1.6400000000000026E-002    -1.8203140934929252E-003
   1.7500000000000016E-002    -2.0590168423950672E-003
   1.8600000000000005E-002    -2.3204809986054897E-003
   1.9700000000000023E-002    -2.6050435844808817E-003
   2.0800000000000013E-002    -2.9128401074558496E-003
   2.1900000000000003E-002    -3.2439674250781536E-003
   2.3000000000000020E-002    -3.5981985274702311E-003
   2.4100000000000010E-002    -3.9746430702507496E-003
   2.5200000000000000E-002    -4.3716188520193100E-003
   2.6300000000000018E-002    -4.7869277186691761E-003
   2.7400000000000008E-002    -5.2183023653924465E-003
   2.8500000000000025E-002    -5.6631383486092091E-003
   2.9600000000000015E-002    -6.1178943142294884E-003
   3.0700000000000005E-002    -6.5776184201240540E-003
   3.1800000000000023E-002    -7.0360810495913029E-003
   3.2900000000000013E-002    -7.4865147471427917E-003
   3.4000000000000002E-002    -7.9213418066501617E-003
   3.5100000000000020E-002    -8.3317877724766731E-003
   3.6200000000000010E-002    -8.7084891274571419E-003
   3.7300000000000028E-002    -9.0414118021726608E-003
   3.8400000000000017E-002    -9.3198921531438828E-003
   3.9500000000000007E-002    -9.5325000584125519E-003
   4.0600000000000025E-002    -9.6668619662523270E-003
   4.1700000000000015E-002    -9.7101507708430290E-003
   4.2800000000000005E-002    -9.6496380865573883E-003
   4.3900000000000022E-002    -9.4735398888587952E-003
   4.5000000000000012E-002    -9.1701112687587738E-003
   4.6100000000000002E-002    -8.7265660986304283E-003
   4.7200000000000020E-002    -8.1302747130393982E-003
   4.8300000000000010E-002    -7.3710423894226551E-003
   4.9400000000000027E-002    -6.4405053853988647E-003
   5.0500000000000017E-002    -5.3316694684326649E-003
   5.1600000000000007E-002    -4.0403716266155243E-003
   5.2700000000000025E-002    -2.5649876333773136E-003
   5.3800000000000014E-002    -9.0507400454953313E-004
   5.4900000000000004E-002     9.3796715373173356E-004
   5.6000000000000022E-002     2.9581235721707344E-003
   5.7100000000000012E-002     5.1442002877593040E-003
   5.8200000000000002E-002     7.4811233207583427E-003
   5.9300000000000019E-002     9.9511221051216125E-003
   6.0400000000000009E-002     1.2534552253782749E-002
   6.1500000000000027E-002     1.5207698568701744E-002
   6.2600000000000017E-002     1.7942294478416443E-002
   6.3700000000000007E-002     2.0706636831164360E-002
   6.4800000000000024E-002     2.3464571684598923E-002
   6.5900000000000014E-002     2.6177059859037399E-002
   6.7000000000000004E-002     2.8803223744034767E-002
   6.8100000000000022E-002     3.1303830444812775E-002
   6.9200000000000012E-002     3.3640466630458832E-002
   7.0300000000000029E-002     3.5769693553447723E-002
   7.1400000000000019E-002     3.7643957883119583E-002
   7.2500000000000009E-002     3.9219148457050323E-002
   7.3600000000000027E-002     4.0459021925926208E-002
   7.4700000000000016E-002     4.1331220418214798E-002
   7.5800000000000006E-002     4.1803844273090363E-002
   7.6900000000000024E-002     4.1846666485071182E-002
   7.8000000000000014E-002     4.1434906423091888E-002
   7.9100000000000004E-002     4.0551237761974335E-002
   8.0200000000000021E-002     3.9186365902423859E-002
   8.1300000000000011E-002     3.7339292466640472E-002
   8.2400000000000029E-002     3.5016089677810669E-002
   8.3500000000000019E-002     3.2228749245405197E-002
   8.4600000000000009E-002     2.8994206339120865E-002
   8.5700000000000026E-002     2.5336824357509613E-002
   8.6800000000000016E-002     2.1291583776473999E-002
   8.7900000000000006E-002     1.6905041411519051E-002
   8.9000000000000024E-002     1.2230399064719677E-002
   9.0100000000000013E-002     7.3210881091654301E-003
   9.1200000000000003E-002     2.2314835805445910E-003
   9.2300000000000021E-002    -2.9792638961225748E-003
   9.3400000000000011E-002    -8.2440143451094627E-003
   9.4500000000000028E-002    -1.3488588854670525E-002
   9.5600000000000018E-002    -1.8639419227838516E-002
   9.6700000000000008E-002    -2.3628860712051392E-002
   9.7800000000000026E-002    -2.8396727517247200E-002
   9.8900000000000016E-002    -3.2885897904634476E-002
  0.10000000000000001         -3.7034939974546432E-002
  0.10110000000000002         -4.0782228112220764E-002
  0.10220000000000001         -4.4074039906263351E-002
  0.10330000000000003         -4.6870358288288116E-002
  0.10440000000000002         -4.9145672470331192E-002
  0.10550000000000001         -5.0882250070571899E-002
  0.10660000000000003         -5.2062209695577621E-002
  0.10770000000000002         -5.2669249475002289E-002
  0.10880000000000001         -5.2700392901897430E-002
  0.10990000000000003         -5.2168492227792740E-002
  0.11100000000000002         -5.1096558570861816E-002
  0.11210000000000001         -4.9512986093759537E-002
  0.11320000000000002         -4.7453176230192184E-002
  0.11430000000000001         -4.4957526028156281E-002
  0.11540000000000003         -4.2064961045980453E-002
  0.11650000000000002         -3.8818955421447754E-002
  0.11760000000000001         -3.5274751484394073E-002
  0.11870000000000003         -3.1497821211814880E-002
  0.11980000000000002         -2.7554117143154144E-002
  0.12090000000000001         -2.3497687652707100E-002
  0.12200000000000003         -1.9373256713151932E-002
  0.12310000000000001         -1.5231833793222904E-002
  0.12420000000000003         -1.1136252433061600E-002
  0.12530000000000002         -7.1468944661319256E-003
  0.12640000000000001         -3.3055094536393881E-003
  0.12750000000000003          3.5817711614072323E-004
  0.12860000000000002          3.8083631079643965E-003
  0.12970000000000001          7.0047369226813316E-003
  0.13080000000000003          9.9191972985863686E-003
  0.13190000000000002          1.2540488503873348E-002
  0.13300000000000001          1.4860884286463261E-002
  0.13410000000000000          1.6865085810422897E-002
  0.13520000000000004          1.8540466204285622E-002
  0.13630000000000003          1.9892584532499313E-002
  0.13740000000000002          2.0940268412232399E-002
  0.13850000000000001          2.1696610376238823E-002
  0.13960000000000000          2.2165203467011452E-002
  0.14070000000000005          2.2356985136866570E-002
  0.14180000000000004          2.2300623357295990E-002
  0.14290000000000003          2.2028159350156784E-002
  0.14400000000000002          2.1557316184043884E-002
  0.14510000000000001          2.0898729562759399E-002
  0.14620000000000000          2.0077358931303024E-002
  0.14730000000000004          1.9133847206830978E-002
  0.14840000000000003          1.8100736662745476E-002
  0.14950000000000002          1.6988741233944893E-002
  0.15060000000000001          1.5803847461938858E-002
  0.15170000000000000          1.4571048319339752E-002
  0.15280000000000005          1.3328930363059044E-002
  0.15390000000000004          1.2100759893655777E-002
  0.15500000000000003          1.0886698029935360E-002
  0.15610000000000002          9.6878930926322937E-003
  0.15720000000000001          8.5239326581358910E-003
  0.15830000000000000          7.4192369356751442E-003
  0.15940000000000004          6.3800155185163021E-003
  0.16050000000000003          5.3974697366356850E-003
  0.16160000000000002          4.4730938971042633E-003
  0.16270000000000001          3.6247861571609974E-003
  0.16380000000000000          2.8628339059650898E-003
  0.16490000000000005          2.1744121331721544E-003
  0.16600000000000004          1.5432795044034719E-003
  0.16710000000000003          9.7447808366268873E-004
  0.16820000000000002          4.8517287359572947E-004
  0.16930000000000001          7.4625932029448450E-005
  0.17040000000000000         -2.8036083676852286E-004
  0.17150000000000004         -5.9541803784668446E-004
  0.17260000000000003         -8.5990596562623978E-004
  0.17370000000000002         -1.0595860658213496E-003
  0.17480000000000001         -1.2061627348884940E-003
  0.17590000000000000         -1.3270594645291567E-003
  0.17700000000000005         -1.4303056523203850E-003
  0.17810000000000004         -1.4981197891756892E-003
  0.17920000000000003         -1.5196674503386021E-003
  0.18030000000000002         -1.5132435364648700E-003
  0.18140000000000001         -1.5042404411360621E-003
  0.18250000000000000         -1.4931205660104752E-003
  0.18360000000000004         -1.4609233476221561E-003
  0.18470000000000003         -1.4032039325684309E-003
  0.18580000000000002         -1.3398773735389113E-003
  0.18690000000000001         -1.2863720767199993E-003
  0.18800000000000000         -1.2329077580943704E-003
  0.18910000000000005         -1.1643647449091077E-003
  0.19020000000000004         -1.0885801166296005E-003
  0.19130000000000003         -1.0274801170453429E-003
  0.19240000000000002         -9.8313635680824518E-004
  0.19350000000000001         -9.3316897982731462E-004
  0.19460000000000005         -8.6548796389251947E-004
  0.19570000000000004         -7.9926045145839453E-004
  0.19680000000000003         -7.5880857184529305E-004
  0.19790000000000002         -7.3858682299032807E-004
  0.19900000000000001         -7.1203953120857477E-004
  0.20010000000000000         -6.7094725091010332E-004
  0.20120000000000005         -6.3597440021112561E-004
  0.20230000000000004         -6.2370358500629663E-004
  0.20340000000000003         -6.2156835338100791E-004
  0.20450000000000002         -6.0892442706972361E-004
  0.20560000000000000         -5.9019000036641955E-004
  0.20670000000000005         -5.8733409969136119E-004
  0.20780000000000004         -6.0352217406034470E-004
  0.20890000000000003         -6.1557313892990351E-004
