 -0.12000000000000000          0.0000000000000000     
 -0.11889999999999999          0.0000000000000000     
 -0.11780000000000000          0.0000000000000000     
 -0.11670000000000000          0.0000000000000000     
 -0.11559999999999999          0.0000000000000000     
 -0.11449999999999999          0.0000000000000000     
 -0.11340000000000000          0.0000000000000000     
 -0.11230000000000000         -1.1383689368456819E-017
 -0.11119999999999999          8.4573950147406342E-017
 -0.11009999999999999         -2.6139355688567678E-017
 -0.10900000000000000         -1.0787032345919295E-015
 -0.10790000000000000          9.4614766054431504E-016
 -0.10679999999999999          8.7509032070903596E-015
 -0.10569999999999999         -5.8314487238325923E-015
 -0.10460000000000000         -5.5819999772617479E-014
 -0.10349999999999999          6.5982574865865434E-015
 -0.10239999999999999          2.8185309988715268E-013
 -0.10130000000000000          1.5994730496668441E-013
 -0.10020000000000000         -1.0590777387020633E-012
  -9.9099999999999994E-002    -1.4832024497479779E-012
  -9.7999999999999990E-002     2.5192402417634208E-012
  -9.6899999999999986E-002     7.2620642138643277E-012
  -9.5799999999999996E-002    -9.9733437654292434E-013
  -9.4699999999999993E-002    -2.2152219295024089E-011
  -9.3599999999999989E-002    -1.9349037996829743E-011
  -9.2499999999999999E-002     3.6607217257511593E-011
  -9.1399999999999995E-002     8.3073221912588480E-011
  -9.0299999999999991E-002     5.9615888614583668E-012
  -8.9200000000000002E-002    -1.5941437059296959E-010
  -8.8099999999999984E-002    -1.7596253620855151E-010
  -8.6999999999999994E-002     6.9265808366747450E-011
  -8.5899999999999990E-002     3.0670974093816028E-010
  -8.4799999999999986E-002     2.7006691327713384E-010
  -8.3699999999999997E-002     1.5513050566351438E-010
  -8.2599999999999993E-002     3.3110389430213161E-011
  -8.1499999999999989E-002    -8.7745111176928958E-010
  -8.0399999999999999E-002    -2.6078035286758450E-009
  -7.9299999999999995E-002    -1.8983488114798774E-009
  -7.8199999999999992E-002     4.8046384648614548E-009
  -7.7100000000000002E-002     1.2299520513181506E-008
  -7.5999999999999984E-002     5.8685802883928773E-009
  -7.4899999999999994E-002    -1.9135423912075566E-008
  -7.3799999999999991E-002    -3.7097347416192861E-008
  -7.2699999999999987E-002    -1.1122797793916561E-008
  -7.1599999999999997E-002     5.2003972683678512E-008
  -7.0499999999999993E-002     8.3057315691803524E-008
  -6.9399999999999989E-002     2.1627055701856079E-008
  -6.8300000000000000E-002    -9.2758725145358767E-008
  -6.7199999999999996E-002    -1.4312860230347724E-007
  -6.6099999999999992E-002    -6.9315234441091889E-008
  -6.5000000000000002E-002     6.4216017392482172E-008
  -6.3899999999999985E-002     1.6906919597658998E-007
  -6.2799999999999995E-002     2.3305992158384470E-007
  -6.1699999999999991E-002     2.2747148875623679E-007
  -6.0599999999999994E-002    -6.1962959208017310E-009
  -5.9499999999999990E-002    -5.4148330264069955E-007
  -5.8399999999999994E-002    -9.8156726835441077E-007
  -5.7299999999999990E-002    -6.1706992937615723E-007
  -5.6199999999999986E-002     6.7271093939780258E-007
  -5.5099999999999996E-002     1.8429284409648972E-006
  -5.3999999999999992E-002     1.5861361362112802E-006
  -5.2899999999999989E-002    -1.3928830533416203E-008
  -5.1799999999999985E-002    -1.3274511729832739E-006
  -5.0699999999999995E-002    -1.2022087503282819E-006
  -4.9599999999999991E-002    -6.2782049781162641E-007
  -4.8499999999999988E-002    -1.3579950746134273E-006
  -4.7399999999999998E-002    -2.9306700071174419E-006
  -4.6299999999999994E-002    -2.4716471216379432E-006
  -4.5199999999999990E-002     1.6197346894841758E-006
  -4.4099999999999986E-002     6.8073368311161175E-006
  -4.2999999999999997E-002     8.7741882452974096E-006
  -4.1899999999999993E-002     6.2727749536861666E-006
  -4.0799999999999989E-002     1.8175372815676383E-006
  -3.9699999999999985E-002    -2.5752815417945385E-006
  -3.8599999999999995E-002    -7.8408775152638555E-006
  -3.7499999999999992E-002    -1.4460795682680327E-005
  -3.6399999999999988E-002    -1.8868962797569111E-005
  -3.5299999999999984E-002    -1.6567482816753909E-005
  -3.4199999999999994E-002    -8.0810368672246113E-006
  -3.3099999999999991E-002     2.1798791749461088E-006
  -3.1999999999999987E-002     1.3550119547289796E-005
  -3.0899999999999997E-002     3.0443647119682282E-005
  -2.9799999999999993E-002     5.2308885642560199E-005
  -2.8699999999999989E-002     6.6483626142144203E-005
  -2.7599999999999986E-002     5.8071844250662252E-005
  -2.6499999999999996E-002     2.6161080313613638E-005
  -2.5399999999999992E-002    -1.7308298993157223E-005
  -2.4299999999999988E-002    -6.5931933932006359E-005
  -2.3199999999999985E-002    -1.2572674313560128E-004
  -2.2099999999999995E-002    -1.9628502195701003E-004
  -2.0999999999999991E-002    -2.5464833015576005E-004
  -1.9899999999999987E-002    -2.7432382921688259E-004
  -1.8799999999999983E-002    -2.6060952222906053E-004
  -1.7699999999999994E-002    -2.4962596944533288E-004
  -1.6599999999999990E-002    -2.6405547396279871E-004
  -1.5499999999999986E-002    -2.8562129591591656E-004
  -1.4399999999999996E-002    -2.8940491029061377E-004
  -1.3299999999999992E-002    -2.9473731410689652E-004
  -1.2199999999999989E-002    -3.5493835457600653E-004
  -1.1099999999999985E-002    -4.9187714466825128E-004
  -9.9999999999999950E-003    -6.6775735467672348E-004
  -8.8999999999999913E-003    -8.4065197734162211E-004
  -7.7999999999999875E-003    -1.0281791910529137E-003
  -6.6999999999999837E-003    -1.2866494944319129E-003
  -5.5999999999999939E-003    -1.6378558939322829E-003
  -4.4999999999999901E-003    -2.0525443833321333E-003
  -3.3999999999999864E-003    -2.5074875447899103E-003
  -2.2999999999999826E-003    -3.0172574333846569E-003
  -1.1999999999999927E-003    -3.5933465696871281E-003
  -9.9999999999988987E-005    -4.2120548896491528E-003
   1.0000000000000148E-003    -4.8770066350698471E-003
   2.1000000000000185E-003    -5.6795612908899784E-003
   3.2000000000000084E-003    -6.7340251989662647E-003
   4.3000000000000121E-003    -8.0211907625198364E-003
   5.4000000000000159E-003    -9.4086425378918648E-003
   6.5000000000000058E-003    -1.0850071907043457E-002
   7.6000000000000234E-003    -1.2518566101789474E-002
   8.7000000000000133E-003    -1.4625398442149162E-002
   9.8000000000000032E-003    -1.7139986157417297E-002
   1.0900000000000021E-002    -1.9800327718257904E-002
   1.2000000000000011E-002    -2.2482704371213913E-002
   1.3100000000000001E-002    -2.5401318445801735E-002
   1.4200000000000018E-002    -2.8855334967374802E-002
   1.5300000000000008E-002    -3.2893113791942596E-002
   1.6400000000000026E-002    -3.7256170064210892E-002
   1.7500000000000016E-002    -4.1764631867408752E-002
   1.8600000000000005E-002    -4.6508193016052246E-002
   1.9700000000000023E-002    -5.1654055714607239E-002
   2.0800000000000013E-002    -5.7280004024505615E-002
   2.1900000000000003E-002    -6.3348859548568726E-002
   2.3000000000000020E-002    -6.9704376161098480E-002
   2.4100000000000010E-002    -7.6283998787403107E-002
   2.5200000000000000E-002    -8.2804448902606964E-002
   2.6300000000000018E-002    -8.9062049984931946E-002
   2.7400000000000008E-002    -9.5181927084922791E-002
   2.8500000000000025E-002   -0.10158544778823853     
   2.9600000000000015E-002   -0.10825373232364655     
   3.0700000000000005E-002   -0.11441168189048767     
   3.1800000000000023E-002   -0.11933199316263199     
   3.2900000000000013E-002   -0.12280705571174622     
   3.4000000000000002E-002   -0.12573406100273132     
   3.5100000000000020E-002   -0.12861831486225128     
   3.6200000000000010E-002   -0.13035224378108978     
   3.7300000000000028E-002   -0.12924867868423462     
   3.8400000000000017E-002   -0.12499258667230606     
   3.9500000000000007E-002   -0.11832372099161148     
   4.0600000000000025E-002   -0.11046494543552399     
   4.1700000000000015E-002   -0.10058233886957169     
   4.2800000000000005E-002    -8.7800003588199615E-002
   4.3900000000000022E-002    -7.1125954389572144E-002
   4.5000000000000012E-002    -5.0728671252727509E-002
   4.6100000000000002E-002    -2.6499887928366661E-002
   4.7200000000000020E-002     1.6758053097873926E-003
   4.8300000000000010E-002     3.2454084604978561E-002
   4.9400000000000027E-002     6.6518582403659821E-002
   5.0500000000000017E-002    0.10285980254411697     
   5.1600000000000007E-002    0.14408937096595764     
   5.2700000000000025E-002    0.19042301177978516     
   5.3800000000000014E-002    0.24026092886924744     
   5.4900000000000004E-002    0.28971421718597412     
   5.6000000000000022E-002    0.33800908923149109     
   5.7100000000000012E-002    0.38686084747314453     
   5.8200000000000002E-002    0.44051912426948547     
   5.9300000000000019E-002    0.49740654230117798     
   6.0400000000000009E-002    0.55107069015502930     
   6.1500000000000027E-002    0.59792578220367432     
   6.2600000000000017E-002    0.63725858926773071     
   6.3700000000000007E-002    0.67615926265716553     
   6.4800000000000024E-002    0.71413779258728027     
   6.5900000000000014E-002    0.74765062332153320     
   6.7000000000000004E-002    0.76946669816970825     
   6.8100000000000022E-002    0.78012651205062866     
   6.9200000000000012E-002    0.78013277053833008     
   7.0300000000000029E-002    0.77132773399353027     
   7.1400000000000019E-002    0.75217217206954956     
   7.2500000000000009E-002    0.72448825836181641     
   7.3600000000000027E-002    0.68647390604019165     
   7.4700000000000016E-002    0.63370662927627563     
   7.5800000000000006E-002    0.56239438056945801     
   7.6900000000000024E-002    0.47815552353858948     
   7.8000000000000014E-002    0.38654911518096924     
   7.9100000000000004E-002    0.29219573736190796     
   8.0200000000000021E-002    0.18871246278285980     
   8.1300000000000011E-002     7.0324338972568512E-002
   8.2400000000000029E-002    -6.2834016978740692E-002
   8.3500000000000019E-002   -0.20148681104183197     
   8.4600000000000009E-002   -0.33624973893165588     
   8.5700000000000026E-002   -0.46536996960639954     
   8.6800000000000016E-002   -0.59569323062896729     
   8.7900000000000006E-002   -0.73113214969635010     
   8.9000000000000024E-002   -0.86520648002624512     
   9.0100000000000013E-002   -0.99136841297149658     
   9.1200000000000003E-002    -1.1055166721343994     
   9.2300000000000021E-002    -1.2045093774795532     
   9.3400000000000011E-002    -1.2875198125839233     
   9.4500000000000028E-002    -1.3563971519470215     
   9.5600000000000018E-002    -1.4146183729171753     
   9.6700000000000008E-002    -1.4626024961471558     
   9.7800000000000026E-002    -1.4907811880111694     
   9.8900000000000016E-002    -1.4908044338226318     
  0.10000000000000001         -1.4624801874160767     
  0.10110000000000002         -1.4166386127471924     
  0.10220000000000001         -1.3636540174484253     
  0.10330000000000003         -1.3012175559997559     
  0.10440000000000002         -1.2160706520080566     
  0.10550000000000001         -1.1019002199172974     
  0.10660000000000003        -0.97147238254547119     
  0.10770000000000002        -0.83219671249389648     
  0.10880000000000001        -0.69243067502975464     
  0.10990000000000003        -0.54642766714096069     
  0.11100000000000002        -0.39271152019500732     
  0.11210000000000001        -0.22863163053989410     
  0.11320000000000002         -6.4529314637184143E-002
  0.11430000000000001          9.5147989690303802E-002
  0.11540000000000003         0.25423941016197205     
  0.11650000000000002         0.40390524268150330     
  0.11760000000000001         0.53521919250488281     
  0.11870000000000003         0.65495038032531738     
  0.11980000000000002         0.76894438266754150     
  0.12090000000000001         0.88335388898849487     
  0.12200000000000003         0.98348671197891235     
  0.12310000000000001          1.0495288372039795     
  0.12420000000000003          1.0899684429168701     
  0.12530000000000002          1.1213908195495605     
  0.12640000000000001          1.1527996063232422     
  0.12750000000000003          1.1721260547637939     
  0.12860000000000002          1.1644526720046997     
  0.12970000000000001          1.1342220306396484     
  0.13080000000000003          1.0931869745254517     
  0.13190000000000002          1.0476402044296265     
  0.13300000000000001         0.99100762605667114     
  0.13410000000000000         0.91930210590362549     
  0.13520000000000004         0.84313094615936279     
  0.13630000000000003         0.76942563056945801     
  0.13740000000000002         0.68972766399383545     
  0.13850000000000001         0.59509503841400146     
  0.13960000000000000         0.49225699901580811     
  0.14070000000000005         0.40060687065124512     
  0.14180000000000004         0.32568201422691345     
  0.14290000000000003         0.25153410434722900     
  0.14400000000000002         0.16417917609214783     
  0.14510000000000001          7.3001556098461151E-002
  0.14620000000000000         -1.9331979565322399E-003
  0.14730000000000004         -5.7678725570440292E-002
  0.14840000000000003        -0.10941743850708008     
  0.14950000000000002        -0.16634662449359894     
  0.15060000000000001        -0.21904689073562622     
  0.15170000000000000        -0.25462961196899414     
  0.15280000000000005        -0.27861225605010986     
  0.15390000000000004        -0.30489963293075562     
  0.15500000000000003        -0.33298417925834656     
  0.15610000000000002        -0.34862947463989258     
  0.15720000000000001        -0.34621813893318176     
  0.15830000000000000        -0.33967113494873047     
  0.15940000000000004        -0.34307342767715454     
  0.16050000000000003        -0.34866046905517578     
  0.16160000000000002        -0.33847630023956299     
  0.16270000000000001        -0.31298437714576721     
  0.16380000000000000        -0.29094752669334412     
  0.16490000000000005        -0.28297647833824158     
  0.16600000000000004        -0.27589654922485352     
  0.16710000000000003        -0.25304597616195679     
  0.16820000000000002        -0.22084149718284607     
  0.16930000000000001        -0.19928653538227081     
  0.17040000000000000        -0.19037438929080963     
  0.17150000000000004        -0.17661014199256897     
  0.17260000000000003        -0.14829821884632111     
  0.17370000000000002        -0.11895198374986649     
  0.17480000000000001        -0.10576590895652771     
  0.17590000000000000        -0.10240186005830765     
  0.17700000000000005         -8.9831583201885223E-002
  0.17810000000000004         -6.5268084406852722E-002
  0.17920000000000003         -4.5571293681859970E-002
  0.18030000000000002         -4.1610669344663620E-002
  0.18140000000000001         -4.1189402341842651E-002
  0.18250000000000000         -2.8921887278556824E-002
  0.18360000000000004         -9.9031543359160423E-003
  0.18470000000000003         -1.2947737704962492E-003
  0.18580000000000002         -5.6958170607686043E-003
  0.18690000000000001         -6.2955790199339390E-003
  0.18800000000000000          6.4335917122662067E-003
  0.18910000000000005          1.9620522856712341E-002
  0.19020000000000004          1.8130466341972351E-002
  0.19130000000000003          8.5249068215489388E-003
  0.19240000000000002          9.3082813546061516E-003
  0.19350000000000001          2.2644497454166412E-002
  0.19460000000000005          3.0933283269405365E-002
  0.19570000000000004          2.3625709116458893E-002
  0.19680000000000003          1.2918513268232346E-002
  0.19790000000000002          1.6396827995777130E-002
  0.19900000000000001          2.9831876978278160E-002
  0.20010000000000000          3.4336768090724945E-002
  0.20120000000000005          2.4068079888820648E-002
  0.20230000000000004          1.4695610851049423E-002
  0.20340000000000003          1.9162144511938095E-002
  0.20450000000000002          2.9318798333406448E-002
  0.20560000000000000          2.9672417789697647E-002
  0.20670000000000005          2.0873060449957848E-002
  0.20780000000000004          1.7256628721952438E-002
  0.20890000000000003          2.3291243240237236E-002
