 -0.12000000000000000          0.0000000000000000
 -0.11889999999999999          0.0000000000000000
 -0.11780000000000000          0.0000000000000000
 -0.11670000000000000          1.2546758770826116E-011
 -0.11559999999999999          1.3697731317263706E-011
 -0.11449999999999999         -3.8519867850972389E-011
 -0.11340000000000000         -6.0436995685808625E-011
 -0.11230000000000000          8.1728110390422160E-011
 -0.11119999999999999          2.1664800509135773E-010
 -0.11009999999999999         -3.4040520402456309E-011
 -0.10900000000000000         -4.8208020908546700E-010
 -0.10790000000000000         -2.7206739638963029E-010
 -0.10679999999999999          7.1667333179092907E-010
 -0.10569999999999999          1.0246075099473728E-009
 -0.10460000000000000         -4.2161327207246302E-010
 -0.10349999999999999         -1.8818469005310590E-009
 -0.10239999999999999         -6.0493343667644695E-010
 -0.10130000000000000          2.4258637321139531E-009
 -0.10020000000000000          2.5024646799209904E-009
  -9.9099999999999994E-002    -1.8537349433245254E-009
  -9.7999999999999990E-002    -4.8300936583700604E-009
  -9.6899999999999986E-002    -6.5601296617145977E-010
  -9.5799999999999996E-002     6.4044045622324575E-009
  -9.4699999999999993E-002     5.8165876559712615E-009
  -9.3599999999999989E-002    -3.7803609131970006E-009
  -9.2499999999999999E-002    -9.8755217337043177E-009
  -9.1399999999999995E-002    -2.5646735846152069E-009
  -9.0299999999999991E-002     9.5434895541757214E-009
  -8.9200000000000002E-002     9.3253706978657647E-009
  -8.8099999999999984E-002    -4.2171088843190319E-009
  -8.6999999999999994E-002    -1.2694439277538550E-008
  -8.5899999999999990E-002    -3.9121101913508483E-009
  -8.4799999999999986E-002     9.9854222668227521E-009
  -8.3699999999999997E-002     9.7386685382616633E-009
  -8.2599999999999993E-002    -2.9505253795747421E-009
  -8.1499999999999989E-002    -8.7989979746794234E-009
  -8.0399999999999999E-002    -8.1144507779740138E-010
  -7.9299999999999995E-002     5.8461280261212778E-009
  -7.8199999999999992E-002    -3.1210903306266857E-010
  -7.7100000000000002E-002    -7.3377419695930257E-009
  -7.5999999999999984E-002     3.1674864554159798E-012
  -7.4899999999999994E-002     1.1607330208107669E-008
  -7.3799999999999991E-002     4.7740180697530832E-009
  -7.2699999999999987E-002    -1.6707955907691030E-008
  -7.1599999999999997E-002    -2.0919548759934514E-008
  -7.0499999999999993E-002     5.0187098921128381E-009
  -6.9399999999999989E-002     2.8316048172882802E-008
  -6.8300000000000000E-002     1.2550323447158007E-008
  -6.7199999999999996E-002    -2.6888070436825728E-008
  -6.6099999999999992E-002    -3.8678408031955769E-008
  -6.5000000000000002E-002    -6.8551369025726672E-009
  -6.3899999999999985E-002     2.4601028769666300E-008
  -6.2799999999999995E-002     1.2652989767047984E-008
  -6.1699999999999991E-002    -2.5253639179823040E-008
  -6.0599999999999994E-002    -3.9294992149052632E-008
  -5.9499999999999990E-002    -1.9398857631358624E-008
  -5.8399999999999994E-002    -3.7799625651757651E-009
  -5.7299999999999990E-002    -1.5911945538960026E-008
  -5.6199999999999986E-002    -3.1371094166843250E-008
  -5.5099999999999996E-002    -2.4942425014273795E-008
  -5.3999999999999992E-002    -1.7670023666482848E-008
  -5.2899999999999989E-002    -4.2288789359190559E-008
  -5.1799999999999985E-002    -8.0368245392037352E-008
  -5.0699999999999995E-002    -7.9865834834436100E-008
  -4.9599999999999991E-002    -3.7826531240625627E-008
  -4.8499999999999988E-002    -1.9334242651325440E-008
  -4.7399999999999998E-002    -6.9026619087253493E-008
  -4.6299999999999994E-002    -1.3945614796284644E-007
  -4.5199999999999990E-002    -1.5010529352821322E-007
  -4.4099999999999986E-002    -1.0022376528695531E-007
  -4.2999999999999997E-002    -7.1628960540692788E-008
  -4.1899999999999993E-002    -1.1481756700959522E-007
  -4.0799999999999989E-002    -1.8240602628338820E-007
  -3.9699999999999985E-002    -2.0380555554311286E-007
  -3.8599999999999995E-002    -1.8461716422280006E-007
  -3.7499999999999992E-002    -1.8539435586717445E-007
  -3.6399999999999988E-002    -2.2213960448880243E-007
  -3.5299999999999984E-002    -2.4808218768157531E-007
  -3.4199999999999994E-002    -2.3942277493915753E-007
  -3.3099999999999991E-002    -2.4102789097923960E-007
  -3.1999999999999987E-002    -2.9296072057150013E-007
  -3.0899999999999997E-002    -3.5235132145317039E-007
  -2.9799999999999993E-002    -3.4702009088505292E-007
  -2.8699999999999989E-002    -2.9066583806525159E-007
  -2.7599999999999986E-002    -2.7511410394254199E-007
  -2.6499999999999996E-002    -3.4223225497953536E-007
  -2.5399999999999992E-002    -4.1563438912817219E-007
  -2.4299999999999988E-002    -4.0557796410212177E-007
  -2.3199999999999985E-002    -3.3558626455487683E-007
  -2.2099999999999995E-002    -3.0267491979429906E-007
  -2.0999999999999991E-002    -3.3746187000360806E-007
  -1.9899999999999987E-002    -3.6665525726675696E-007
  -1.8799999999999983E-002    -3.3259490805903624E-007
  -1.7699999999999994E-002    -2.7417283376962587E-007
  -1.6599999999999990E-002    -2.5789211122173583E-007
  -1.5499999999999986E-002    -2.6231694505440828E-007
  -1.4399999999999996E-002    -2.1656516935308900E-007
  -1.3299999999999992E-002    -1.2116021252950304E-007
  -1.2199999999999989E-002    -5.4208491917506763E-008
  -1.1099999999999985E-002    -5.2535167327505405E-008
  -9.9999999999999950E-003    -4.6219497562560719E-008
  -8.8999999999999913E-003     4.3425711027111902E-008
  -7.7999999999999875E-003     1.8325084738535224E-007
  -6.6999999999999837E-003     2.7374750288799987E-007
  -5.5999999999999939E-003     2.9017428460065275E-007
  -4.4999999999999901E-003     3.1779154596733861E-007
  -3.3999999999999864E-003     4.1801351358117245E-007
  -2.2999999999999826E-003     5.4568761242990149E-007
  -1.1999999999999927E-003     6.2245209164757398E-007
  -9.9999999999988987E-005     6.5508675106684677E-007
   1.0000000000000148E-003     7.1647951926934184E-007
   2.1000000000000185E-003     8.2024030234606471E-007
   3.2000000000000084E-003     8.9965828919957858E-007
   4.3000000000000121E-003     9.1537287971732439E-007
   5.4000000000000159E-003     9.2197944923100295E-007
   6.5000000000000058E-003     9.8255429747950984E-007
   7.6000000000000234E-003     1.0660974112397525E-006
   8.7000000000000133E-003     1.0895603281824151E-006
   9.8000000000000032E-003     1.0422247669339413E-006
   1.0900000000000021E-002     1.0006613138102693E-006
   1.2000000000000011E-002     1.0131981298400206E-006
   1.3100000000000001E-002     1.0329141559850541E-006
   1.4200000000000018E-002     9.8881719168275595E-007
   1.5300000000000008E-002     8.9242325884697493E-007
   1.6400000000000026E-002     8.1547807440074394E-007
   1.7500000000000016E-002     7.7670785003647325E-007
   1.8600000000000005E-002     7.1874450213726959E-007
   1.9700000000000023E-002     6.0370257415343076E-007
   2.0800000000000013E-002     4.7339821662717441E-007
   2.1900000000000003E-002     3.8195310025912477E-007
   2.3000000000000020E-002     3.1254421628545970E-007
   2.4100000000000010E-002     2.0536285205707827E-007
   2.5200000000000000E-002     5.5079965477489168E-008
   2.6300000000000018E-002    -7.9006419184679544E-008
   2.7400000000000008E-002    -1.6085088816453208E-007
   2.8500000000000025E-002    -2.3264253457000450E-007
   2.9600000000000015E-002    -3.4357628919678973E-007
   3.0700000000000005E-002    -4.7672011760369060E-007
   3.1800000000000023E-002    -5.7292720612167614E-007
   3.2900000000000013E-002    -6.2046689208727912E-007
   3.4000000000000002E-002    -6.6658668629315798E-007
   3.5100000000000020E-002    -7.4297474839113420E-007
   3.6200000000000010E-002    -8.1754069469752721E-007
   3.7300000000000028E-002    -8.4913693854105077E-007
   3.8400000000000017E-002    -8.4707278347195825E-007
   3.9500000000000007E-002    -8.5448749587158090E-007
   4.0600000000000025E-002    -8.7184093899850268E-007
   4.1700000000000015E-002    -8.7093053480202798E-007
   4.2800000000000005E-002    -8.3761250380121055E-007
   4.3900000000000022E-002    -7.9602131108913454E-007
   4.5000000000000012E-002    -7.7172836654426646E-007
   4.6100000000000002E-002    -7.4016526241393876E-007
   4.7200000000000020E-002    -6.7921058644060395E-007
   4.8300000000000010E-002    -6.0214779296074994E-007
   4.9400000000000027E-002    -5.3887146123088314E-007
   5.0500000000000017E-002    -4.8906548499871860E-007
   5.1600000000000007E-002    -4.2513653397691087E-007
   5.2700000000000025E-002    -3.4332222753619135E-007
   5.3800000000000014E-002    -2.6735176561487606E-007
   5.4900000000000004E-002    -2.1211950240740407E-007
   5.6000000000000022E-002    -1.5643715300939220E-007
   5.7100000000000012E-002    -8.6557705003542651E-008
   5.8200000000000002E-002    -2.1314866316402004E-008
   5.9300000000000019E-002     1.9911722048959746E-008
   6.0400000000000009E-002     5.1246235699409226E-008
   6.1500000000000027E-002     1.0152434981591796E-007
   6.2600000000000017E-002     1.6311051354023220E-007
   6.3700000000000007E-002     1.9875865575613716E-007
   6.4800000000000024E-002     1.9910282844648464E-007
   6.5900000000000014E-002     1.9855887956055085E-007
   6.7000000000000004E-002     2.2688799106163060E-007
   6.8100000000000022E-002     2.5929944058589172E-007
   6.9200000000000012E-002     2.5706020778670791E-007
   7.0300000000000029E-002     2.3012266581190488E-007
   7.1400000000000019E-002     2.2424231360673730E-007
   7.2500000000000009E-002     2.4596846515123616E-007
   7.3600000000000027E-002     2.4873901338651194E-007
   7.4700000000000016E-002     2.0673932965564745E-007
   7.5800000000000006E-002     1.6155217963387258E-007
   7.6900000000000024E-002     1.6204212727188860E-007
   7.8000000000000014E-002     1.8595109452235192E-007
   7.9100000000000004E-002     1.7169730881505529E-007
   8.0200000000000021E-002     1.1240338437801256E-007
   8.1300000000000011E-002     7.2059954447922792E-008
   8.2400000000000029E-002     8.4614505624358571E-008
   8.3500000000000019E-002     1.0021530982839977E-007
   8.4600000000000009E-002     6.5232846679919021E-008
   8.5700000000000026E-002     1.0456802534974940E-008
   8.6800000000000016E-002     4.7907153799542357E-009
   8.7900000000000006E-002     4.3435434804450779E-008
   8.9000000000000024E-002     4.7161972105413952E-008
   9.0100000000000013E-002    -1.5309320033907170E-008
   9.1200000000000003E-002    -7.0293040721480793E-008
   9.2300000000000021E-002    -4.4384538711028654E-008
   9.3400000000000011E-002     1.9790842742395398E-008
   9.4500000000000028E-002     2.2498324980801954E-008
   9.5600000000000018E-002    -4.6424414534840253E-008
   9.6700000000000008E-002    -9.0281943698755640E-008
   9.7800000000000026E-002    -5.2520100268793612E-008
   9.8900000000000016E-002     1.3144858534985815E-009
  0.10000000000000001         -1.1415836276285063E-008
  0.10110000000000002         -6.2893867891489208E-008
  0.10220000000000001         -6.3473116540535557E-008
  0.10330000000000003         -8.7304723450642996E-009
  0.10440000000000002          1.0552394513752006E-008
  0.10550000000000001         -4.4302392865347429E-008
  0.10660000000000003         -8.8786272556262702E-008
  0.10770000000000002         -4.2272024103340300E-008
  0.10880000000000001          3.8221884324229904E-008
  0.10990000000000003          3.5885218352404991E-008
  0.11100000000000002         -4.8564775312343045E-008
  0.11210000000000001         -9.1543704172636353E-008
  0.11320000000000002         -2.8280384256618163E-008
  0.11430000000000001          4.9335653784510214E-008
  0.11540000000000003          3.0816831753099905E-008
  0.11650000000000002         -4.7107576506277837E-008
  0.11760000000000001         -6.0233745102777903E-008
  0.11870000000000003          1.0274863626591468E-008
  0.11980000000000002          5.1975852954910806E-008
  0.12090000000000001         -1.2488752254569135E-009
  0.12200000000000003         -6.3851075537968427E-008
  0.12310000000000001         -3.2466857646795688E-008
  0.12420000000000003          5.0497977355234980E-008
  0.12530000000000002          5.8769494160060276E-008
  0.12640000000000001         -2.2228153540027051E-008
  0.12750000000000003         -7.0344682967515837E-008
  0.12860000000000002         -1.3149723976368932E-008
  0.12970000000000001          6.0939463253362192E-008
  0.13080000000000003          3.9657113148905410E-008
  0.13190000000000002         -4.0252970734400151E-008
  0.13300000000000001         -5.1546177104455637E-008
  0.13410000000000000          2.3823004013934224E-008
  0.13520000000000004          6.5796051273991907E-008
  0.13630000000000003          3.8846263983316476E-009
  0.13740000000000002         -6.8870747327309800E-008
  0.13850000000000001         -3.7116638651468747E-008
  0.13960000000000000          5.6678469917414986E-008
  0.14070000000000005          7.2490323077545327E-008
  0.14180000000000004         -1.5373661454987086E-008
  0.14290000000000003         -7.8026090477578691E-008
  0.14400000000000002         -2.5536046166507731E-008
  0.14510000000000001          5.9992331102876051E-008
  0.14620000000000000          5.2407145290089829E-008
  0.14730000000000004         -2.9093502718069431E-008
  0.14840000000000003         -5.6910099743845421E-008
  0.14950000000000002          5.8402469527152334E-009
  0.15060000000000001          5.3596028948277308E-008
  0.15170000000000000          8.9631750910257324E-009
  0.15280000000000005         -5.4924697678870871E-008
  0.15390000000000004         -3.1235405373308822E-008
  0.15500000000000003          4.9012285785465792E-008
  0.15610000000000002          6.1246325344654906E-008
  0.15720000000000001         -1.9310682830564474E-008
  0.15830000000000000         -7.4872239963497123E-008
  0.15940000000000004         -2.2222844009434084E-008
  0.16050000000000003          6.0942468849134457E-008
  0.16160000000000002          5.3143718758974501E-008
  0.16270000000000001         -2.9163167880597030E-008
  0.16380000000000000         -6.1105161819341447E-008
  0.16490000000000005          6.6942999754626697E-011
  0.16600000000000004          5.5590547276551661E-008
  0.16710000000000003          2.1533558935971087E-008
  0.16820000000000002         -4.4177824065627647E-008
  0.16930000000000001         -3.6713835527280025E-008
  0.17040000000000000          3.1661024024742801E-008
  0.17150000000000004          5.2952806584016798E-008
  0.17260000000000003         -7.3671051481483119E-009
  0.17370000000000002         -5.7030646871680801E-008
  0.17480000000000001         -2.0184193871841671E-008
  0.17590000000000000          4.6380595364325927E-008
  0.17700000000000005          4.1771304637450157E-008
  0.17810000000000004         -2.5220179722396097E-008
  0.17920000000000003         -5.2314110376983081E-008
  0.18030000000000002         -1.2201010202161910E-009
  0.18140000000000001          4.7510379630466559E-008
  0.18250000000000000          2.1131706162691444E-008
  0.18360000000000004         -3.5702672818160863E-008
  0.18470000000000003         -3.4201608656303506E-008
  0.18580000000000002          2.0996397509520648E-008
  0.18690000000000001          4.2391675947328622E-008
  0.18800000000000000         -3.4208222920995013E-009
  0.18910000000000005         -4.5678316240582717E-008
  0.19020000000000004         -1.9981406751412578E-008
  0.19130000000000003          3.3885427797031298E-008
  0.19240000000000002          3.5372433870861641E-008
  0.19350000000000001         -1.4452064434067324E-008
  0.19460000000000005         -3.8425437054456779E-008
  0.19570000000000004         -2.7490314469247323E-009
  0.19680000000000003          3.5034968703939739E-008
  0.19790000000000002          1.7894937087703511E-008
  0.19900000000000001         -2.4702170975388071E-008
  0.20010000000000000         -2.6528303109785156E-008
  0.20120000000000005          1.3117950281582580E-008
  0.20230000000000004          3.1906665753922425E-008
  0.20340000000000003          2.3711081986732552E-009
  0.20450000000000002         -2.8342657998337017E-008
  0.20560000000000000         -1.3981111379735012E-008
  0.20670000000000005          2.0829078906103859E-008
  0.20780000000000004          2.1715337084060593E-008
  0.20890000000000003         -1.1464186044918279E-008
