 -0.12000000000000000          0.0000000000000000     
 -0.11889999999999999          0.0000000000000000     
 -0.11780000000000000          0.0000000000000000     
 -0.11670000000000000          0.0000000000000000     
 -0.11559999999999999          0.0000000000000000     
 -0.11449999999999999          0.0000000000000000     
 -0.11340000000000000          0.0000000000000000     
 -0.11230000000000000          0.0000000000000000     
 -0.11119999999999999          0.0000000000000000     
 -0.11009999999999999          0.0000000000000000     
 -0.10900000000000000          8.9070157697128113E-028
 -0.10790000000000000         -2.0270162293782887E-027
 -0.10679999999999999         -1.4855762315132007E-026
 -0.10569999999999999          3.1235662447421319E-026
 -0.10460000000000000          1.4590655439022380E-025
 -0.10349999999999999         -2.4132191863035701E-025
 -0.10239999999999999         -1.0752429531880456E-024
 -0.10130000000000000          1.1442761710039364E-024
 -0.10020000000000000          6.2736115918441386E-024
  -9.9099999999999994E-002    -3.0681819969159883E-024
  -9.7999999999999990E-002    -2.9395910823764047E-023
  -9.6899999999999986E-002    -1.9027340441370360E-026
  -9.5799999999999996E-002     1.1322049780448947E-022
  -9.4699999999999993E-002     4.6618877464626453E-023
  -9.3599999999999989E-002    -3.7613612450793198E-022
  -9.2499999999999999E-002    -3.0327516425329163E-022
  -9.1399999999999995E-002     1.1327303467859974E-021
  -9.0299999999999991E-002     1.4758465208498055E-021
  -8.9200000000000002E-002    -2.9997434303390622E-021
  -8.8099999999999984E-002    -6.3280956681247518E-021
  -8.6999999999999994E-002     5.5913475453913642E-021
  -8.5899999999999990E-002     2.2743392334456584E-020
  -8.4799999999999986E-002    -2.1915116353826777E-022
  -8.3699999999999997E-002    -6.2687559604904424E-020
  -8.2599999999999993E-002    -4.5903893723967300E-020
  -8.1499999999999989E-002     1.2108029407185696E-019
  -8.0399999999999999E-002     1.9439575453017825E-019
  -7.9299999999999995E-002    -1.3725857683550464E-019
  -7.8199999999999992E-002    -5.0191908192797551E-019
  -7.7100000000000002E-002    -1.1466721569321197E-021
  -7.5999999999999984E-002     1.0375819629692861E-018
  -7.4899999999999994E-002     4.8259448845751167E-019
  -7.3799999999999991E-002    -2.0785264151286002E-018
  -7.2699999999999987E-002    -2.1767911292016840E-018
  -7.1599999999999997E-002     3.6678557344515022E-018
  -7.0499999999999993E-002     7.7374532400853087E-018
  -6.9399999999999989E-002    -2.5632271639196133E-018
  -6.8300000000000000E-002    -1.9364058257488737E-017
  -6.7199999999999996E-002    -1.0981042661684381E-017
  -6.6099999999999992E-002     2.9396523279921809E-017
  -6.5000000000000002E-002     4.4981433201033403E-017
  -6.3899999999999985E-002    -1.6910028447003168E-017
  -6.2799999999999995E-002    -8.8182667844734284E-017
  -6.1699999999999991E-002    -2.9741864568217798E-017
  -6.0599999999999994E-002     1.2524291362084149E-016
  -5.9499999999999990E-002     1.1031072861237304E-016
  -5.8399999999999994E-002    -1.7424862682405967E-016
  -5.7299999999999990E-002    -3.0450964155712146E-016
  -5.6199999999999986E-002     1.6932252143084508E-016
  -5.5099999999999996E-002     7.5855183264455692E-016
  -5.3999999999999992E-002     2.9013747767568611E-016
  -5.2899999999999989E-002    -1.2040655930932237E-015
  -5.1799999999999985E-002    -1.6138849086885614E-015
  -5.0699999999999995E-002     6.1467910432823694E-016
  -4.9599999999999991E-002     3.1298578908722091E-015
  -4.8499999999999988E-002     1.6468983354451529E-015
  -4.7399999999999998E-002    -3.2455742381701713E-015
  -4.6299999999999994E-002    -4.5194798153468801E-015
  -4.5199999999999990E-002     1.6772489023738138E-015
  -4.4099999999999986E-002     7.1989220072859843E-015
  -4.2999999999999997E-002     1.0316483309104666E-015
  -4.1899999999999993E-002    -1.1110565050452548E-014
  -4.0799999999999989E-002    -8.2800672378648479E-015
  -3.9699999999999985E-002     1.4091225710962437E-014
  -3.8599999999999995E-002     2.5391267796551036E-014
  -3.7499999999999992E-002    -3.5327067605863544E-015
  -3.6399999999999988E-002    -4.5410937244685576E-014
  -3.5299999999999984E-002    -3.3796028448647084E-014
  -3.4199999999999994E-002     4.0724354769504367E-014
  -3.3099999999999991E-002     8.5846518153680218E-014
  -3.1999999999999987E-002     1.6198002479790065E-014
  -3.0899999999999997E-002    -1.0267881109162630E-013
  -2.9799999999999993E-002    -1.0366599749846508E-013
  -2.8699999999999989E-002     4.6600083411204099E-014
  -2.7599999999999986E-002     1.5057781952744487E-013
  -2.6499999999999996E-002     3.2273249556732247E-014
  -2.5399999999999992E-002    -1.6209210080934955E-013
  -2.4299999999999988E-002    -1.0544936777066860E-013
  -2.3199999999999985E-002     2.0885487892093046E-013
  -2.2099999999999995E-002     3.2544073772650117E-013
  -2.0999999999999991E-002    -8.2490566840395102E-014
  -1.9899999999999987E-002    -6.0885064351312579E-013
  -1.8799999999999983E-002    -4.8659405497974983E-013
  -1.7699999999999994E-002     3.3633653587911150E-013
  -1.6599999999999990E-002     9.0510124351947385E-013
  -1.5499999999999986E-002     4.2736823737017648E-013
  -1.4399999999999996E-002    -5.2977208123833330E-013
  -1.3299999999999992E-002    -6.4905421532160390E-013
  -1.2199999999999989E-002     2.6495461640657636E-013
  -1.1099999999999985E-002     7.7843471685962173E-013
  -9.9999999999999950E-003    -2.3374948894885894E-013
  -8.8999999999999913E-003    -1.6864706246094707E-012
  -7.7999999999999875E-003    -1.3721154204157648E-012
  -6.6999999999999837E-003     9.8086794762808349E-013
  -5.5999999999999939E-003     2.8648134212105880E-012
  -4.4999999999999901E-003     1.9659324081849894E-012
  -3.3999999999999864E-003    -7.8092442451840882E-013
  -2.2999999999999826E-003    -2.3177332449109134E-012
  -1.1999999999999927E-003    -1.4122039041636336E-012
  -9.9999999999988987E-005     7.9176563563273334E-016
   1.0000000000000148E-003    -7.7942135438911070E-014
   2.1000000000000185E-003    -7.2057247321732909E-013
   3.2000000000000084E-003     3.6325662530062308E-013
   4.3000000000000121E-003     2.9620789328277386E-012
   5.4000000000000159E-003     3.9710014790306225E-012
   6.5000000000000058E-003     1.2297781066053504E-012
   7.6000000000000234E-003    -3.7630515023479028E-012
   8.7000000000000133E-003    -7.6245416230635854E-012
   9.8000000000000032E-003    -8.1427130663169756E-012
   1.0900000000000021E-002    -4.4680869247526456E-012
   1.2000000000000011E-002     3.8636880153597453E-012
   1.3100000000000001E-002     1.5040534789845239E-011
   1.4200000000000018E-002     2.2660831544563109E-011
   1.5300000000000008E-002     1.9043816870678576E-011
   1.6400000000000026E-002     3.0188330134295338E-012
   1.7500000000000016E-002    -1.7545416508557565E-011
   1.8600000000000005E-002    -3.3153611800340599E-011
   1.9700000000000023E-002    -4.0360582931331379E-011
   2.0800000000000013E-002    -3.8778570632391762E-011
   2.1900000000000003E-002    -2.2889405648651717E-011
   2.3000000000000020E-002     1.4259419166273712E-011
   2.4100000000000010E-002     6.4768815311033734E-011
   2.5200000000000000E-002     9.9650517004779005E-011
   2.6300000000000018E-002     8.8595401848134969E-011
   2.7400000000000008E-002     2.9070860302349288E-011
   2.8500000000000025E-002    -4.8180650441542738E-011
   2.9600000000000015E-002    -1.0413690743060755E-010
   3.0700000000000005E-002    -1.1710714342694217E-010
   3.1800000000000023E-002    -8.5170717700755461E-011
   3.2900000000000013E-002    -1.3499002263217541E-011
   3.4000000000000002E-002     8.2176113136434026E-011
   3.5100000000000020E-002     1.6308571160195129E-010
   3.6200000000000010E-002     1.7031008547885307E-010
   3.7300000000000028E-002     6.1463320544241640E-011
   3.8400000000000017E-002    -1.4732692843466566E-010
   3.9500000000000007E-002    -3.7359207394338512E-010
   4.0600000000000025E-002    -5.2142212769723528E-010
   4.1700000000000015E-002    -5.0804349616129230E-010
   4.2800000000000005E-002    -2.9373375953767322E-010
   4.3900000000000022E-002     7.7370915230190462E-011
   4.5000000000000012E-002     4.8792758722271401E-010
   4.6100000000000002E-002     7.5265566001903039E-010
   4.7200000000000020E-002     7.0845440625078027E-010
   4.8300000000000010E-002     3.0946664675290947E-010
   4.9400000000000027E-002    -4.0320116689862573E-010
   5.0500000000000017E-002    -1.2098464452492408E-009
   5.1600000000000007E-002    -1.8030856807627060E-009
   5.2700000000000025E-002    -1.8901920029179564E-009
   5.3800000000000014E-002    -1.3010156285631069E-009
   5.4900000000000004E-002    -3.0579633270022555E-010
   5.6000000000000022E-002     6.3590893661924497E-010
   5.7100000000000012E-002     1.1865475268990622E-009
   5.8200000000000002E-002     9.3917718047009657E-010
   5.9300000000000019E-002    -4.3106081204502544E-011
   6.0400000000000009E-002    -1.7413012143308038E-009
   6.1500000000000027E-002    -3.9076559765760521E-009
   6.2600000000000017E-002    -5.8032068039892692E-009
   6.3700000000000007E-002    -6.6565597478529526E-009
   6.4800000000000024E-002    -5.4698716667189728E-009
   6.5900000000000014E-002    -2.5149471394314560E-009
   6.7000000000000004E-002     2.5717067364539048E-010
   6.8100000000000022E-002     1.1546533729145381E-009
   6.9200000000000012E-002     9.7641872365272775E-010
   7.0300000000000029E-002    -9.4639984737909799E-010
   7.1400000000000019E-002    -6.5672587368226232E-009
   7.2500000000000009E-002    -1.2412495919988942E-008
   7.3600000000000027E-002    -1.5615055914963705E-008
   7.4700000000000016E-002    -1.8623643072146479E-008
   7.5800000000000006E-002    -1.8414121782939219E-008
   7.6900000000000024E-002    -1.3652064367875028E-008
   7.8000000000000014E-002    -8.9395433278127712E-009
   7.9100000000000004E-002    -3.1592746196906774E-009
   8.0200000000000021E-002     4.9016377623445351E-009
   8.1300000000000011E-002     3.5460889780125626E-009
   8.2400000000000029E-002    -1.3548124400131201E-008
   8.3500000000000019E-002    -3.4156588668565746E-008
   8.4600000000000009E-002    -3.7407044573001258E-008
   8.5700000000000026E-002    -2.9030845283273266E-008
   8.6800000000000016E-002    -3.2545763417601847E-008
   8.7900000000000006E-002    -4.3099642965671592E-008
   8.9000000000000024E-002    -2.4395129472054577E-008
   9.0100000000000013E-002     4.7492845212104839E-009
   9.1200000000000003E-002     1.7114187400579794E-008
   9.2300000000000021E-002     1.9527588435153120E-008
   9.3400000000000011E-002     7.1462737949445909E-009
   9.4500000000000028E-002    -1.2917844571802561E-008
   9.5600000000000018E-002    -3.4448181196466976E-008
   9.6700000000000008E-002    -5.6545172100186392E-008
   9.7800000000000026E-002    -9.1868784579673957E-008
   9.8900000000000016E-002    -8.9534601954710524E-008
  0.10000000000000001         -1.4205208564987970E-008
  0.10110000000000002          4.5825117922504432E-008
  0.10220000000000001          8.5061870436220488E-008
  0.10330000000000003          6.0257718814682448E-008
  0.10440000000000002          5.0037595400453938E-008
  0.10550000000000001          6.1803376638636109E-008
  0.10660000000000003          5.6392796210502638E-008
  0.10770000000000002          3.6903994526937822E-008
  0.10880000000000001         -5.4065456112084576E-008
  0.10990000000000003         -1.1243143660522037E-007
  0.11100000000000002         -3.2520325987661636E-008
  0.11210000000000001          1.6215189191370882E-007
  0.11320000000000002          2.6717526679931325E-007
  0.11430000000000001          2.0048383930770797E-007
  0.11540000000000003          2.1334356858915271E-007
  0.11650000000000002          1.8287235548086755E-007
  0.11760000000000001          3.0809282236532454E-008
  0.11870000000000003          7.8924053070750233E-008
  0.11980000000000002          9.4316114029879827E-008
  0.12090000000000001          8.4039861292239948E-008
  0.12200000000000003         -2.9358231401488410E-008
  0.12310000000000001         -4.1756816671068009E-008
  0.12420000000000003          9.8456801822521811E-008
  0.12530000000000002          2.0357889241040539E-007
  0.12640000000000001          4.5711198026765487E-007
  0.12750000000000003          4.5516051727645390E-007
  0.12860000000000002          2.0301027348068601E-007
  0.12970000000000001         -8.0534647395325010E-008
  0.13080000000000003         -6.6562833467287419E-008
  0.13190000000000002          2.0274968903777335E-007
  0.13300000000000001          1.8074165097914374E-007
  0.13410000000000000         -2.5881607257360884E-007
  0.13520000000000004         -3.4131113579860539E-007
  0.13630000000000003          1.3805369070141182E-009
  0.13740000000000002          1.3257367470487225E-007
  0.13850000000000001          1.6863459961768967E-007
  0.13960000000000000          2.9051574301774963E-007
  0.14070000000000005          1.8469776819074468E-007
  0.14180000000000004         -4.5008269466961792E-007
  0.14290000000000003         -8.2510962329251925E-007
  0.14400000000000002         -5.8838594441112946E-007
  0.14510000000000001         -2.2176570269039075E-007
  0.14620000000000000         -4.3692388373983704E-008
  0.14730000000000004         -2.7909791810998286E-007
  0.14840000000000003         -6.0790569023083663E-007
  0.14950000000000002         -5.6936437431431841E-007
  0.15060000000000001         -3.7218157444840472E-007
  0.15170000000000000         -2.7793655021923769E-007
  0.15280000000000005         -2.4528199560336361E-007
  0.15390000000000004         -1.3081832150874106E-007
  0.15500000000000003         -8.5515978298644768E-008
  0.15610000000000002         -2.0967787861536635E-007
  0.15720000000000001         -2.4939780018939928E-007
  0.15830000000000000         -2.1658907201071997E-007
  0.15940000000000004         -1.7578011579644226E-007
  0.16050000000000003         -3.0114527760360943E-008
  0.16160000000000002         -1.2111502201150870E-007
  0.16270000000000001         -3.3772079177651904E-007
  0.16380000000000000         -3.7230506677587982E-007
  0.16490000000000005         -6.4566940238819370E-008
  0.16600000000000004          3.3636717944318661E-007
  0.16710000000000003          1.7759980153186916E-007
  0.16820000000000002         -9.0629406201969687E-008
  0.16930000000000001         -1.7966094389976206E-007
  0.17040000000000000          2.2018198819750978E-007
  0.17150000000000004          5.4600582188868430E-007
  0.17260000000000003          3.4020644079646445E-007
  0.17370000000000002          3.6711804796141223E-007
  0.17480000000000001          2.8080845027034229E-007
  0.17590000000000000          3.7735368607627606E-008
  0.17700000000000005          3.0291460006992565E-007
  0.17810000000000004          5.1558021141318022E-007
  0.17920000000000003          4.2479922512939083E-007
  0.18030000000000002         -4.8319542145236483E-008
  0.18140000000000001         -4.5179632479630527E-007
  0.18250000000000000         -2.8682555353043426E-007
  0.18360000000000004          5.1368169806664810E-007
  0.18470000000000003          1.5108387287909864E-006
  0.18580000000000002          1.3214270211392432E-006
  0.18690000000000001         -2.5217204324690101E-007
  0.18800000000000000         -1.9664939827634953E-006
  0.18910000000000005         -1.8286181102666887E-006
  0.19020000000000004          2.1902074820445705E-008
  0.19130000000000003          1.5735497527202824E-006
  0.19240000000000002          1.4440626046052785E-006
  0.19350000000000001          1.4144303861485241E-007
  0.19460000000000005         -8.7480572119602584E-007
  0.19570000000000004         -1.0655144251359161E-006
  0.19680000000000003         -4.0272340129376971E-007
  0.19790000000000002          4.8907446625889861E-007
  0.19900000000000001          7.3992481475215754E-007
  0.20010000000000000         -1.4283622817856667E-007
  0.20120000000000005         -1.4186256294124178E-006
  0.20230000000000004         -1.7037187944879406E-006
  0.20340000000000003         -4.9549464620213257E-007
  0.20450000000000002          1.2895188774564303E-006
  0.20560000000000000          2.0215600216033636E-006
  0.20670000000000005          8.2894268871314125E-007
  0.20780000000000004         -1.3175164212952950E-006
  0.20890000000000003         -2.4414857762167230E-006
