 -0.12000000000000000          0.0000000000000000     
 -0.11889999999999999          0.0000000000000000     
 -0.11780000000000000          0.0000000000000000     
 -0.11670000000000000          0.0000000000000000     
 -0.11559999999999999          0.0000000000000000     
 -0.11449999999999999          0.0000000000000000     
 -0.11340000000000000          0.0000000000000000     
 -0.11230000000000000          0.0000000000000000     
 -0.11119999999999999         -2.6777132282871687E-014
 -0.11009999999999999          1.9617265440124293E-013
 -0.10900000000000000         -3.7010294866779078E-014
 -0.10790000000000000         -2.7932786292317324E-012
 -0.10679999999999999          2.5751987348110461E-012
 -0.10569999999999999          2.5121271382544386E-011
 -0.10460000000000000         -2.0349963034127505E-011
 -0.10349999999999999         -1.7970863686045391E-010
 -0.10239999999999999          5.5530902792755299E-011
 -0.10130000000000000          1.0452206877786807E-009
 -0.10020000000000000          3.7640415784245818E-010
  -9.9099999999999994E-002    -4.7305754868887107E-009
  -9.7999999999999990E-002    -5.4335314025877324E-009
  -9.6899999999999986E-002     1.5033748468340491E-008
  -9.5799999999999996E-002     3.4846195262616675E-008
  -9.4699999999999993E-002    -2.2175186131789815E-008
  -9.3599999999999989E-002    -1.4292477601429709E-007
  -9.2499999999999999E-002    -7.2909742243609799E-008
  -9.1399999999999995E-002     3.6878466858070169E-007
  -9.0299999999999991E-002     6.1070005585861509E-007
  -8.9200000000000002E-002    -3.6724472352034354E-007
  -8.8099999999999984E-002    -2.0336206034698989E-006
  -8.6999999999999994E-002    -1.3627980024466524E-006
  -8.5899999999999990E-002     3.3085932500398485E-006
  -8.4799999999999986E-002     6.8887138695572503E-006
  -8.3699999999999997E-002     9.8713098850566894E-007
  -8.2599999999999993E-002    -1.2522340512077790E-005
  -8.1499999999999989E-002    -1.6696900274837390E-005
  -8.0399999999999999E-002     9.5406505806749919E-007
  -7.9299999999999995E-002     2.6504214474698529E-005
  -7.8199999999999992E-002     3.3414962672395632E-005
  -7.7100000000000002E-002     1.7693611880531535E-005
  -7.5999999999999984E-002    -9.5661207524244674E-006
  -7.4899999999999994E-002    -6.6803338995669037E-005
  -7.3799999999999991E-002    -1.6743686865083873E-004
  -7.2699999999999987E-002    -1.8568108498584479E-004
  -7.1599999999999997E-002     1.2195187446195632E-004
  -7.0499999999999993E-002     7.2555145015940070E-004
  -6.9399999999999989E-002     9.5996673917397857E-004
  -6.8300000000000000E-002    -6.9760280894115567E-006
  -6.7199999999999996E-002    -1.9248608732596040E-003
  -6.6099999999999992E-002    -2.9522851109504700E-003
  -6.5000000000000002E-002    -1.2258950155228376E-003
  -6.3899999999999985E-002     2.7227965183556080E-003
  -6.2799999999999995E-002     5.7906364090740681E-003
  -6.1699999999999991E-002     5.2134357392787933E-003
  -6.0599999999999994E-002     1.1773195583373308E-003
  -5.9499999999999990E-002    -4.2292783036828041E-003
  -5.8399999999999994E-002    -9.6834506839513779E-003
  -5.7299999999999990E-002    -1.3988068327307701E-002
  -5.6199999999999986E-002    -1.2867419049143791E-002
  -5.5099999999999996E-002    -5.7606166228652000E-004
  -5.3999999999999992E-002     2.1435383707284927E-002
  -5.2899999999999989E-002     3.9649028331041336E-002
  -5.1799999999999985E-002     3.8514293730258942E-002
  -5.0699999999999995E-002     1.6838807612657547E-002
  -4.9599999999999991E-002    -1.1875619180500507E-002
  -4.8499999999999988E-002    -3.8985755294561386E-002
  -4.7399999999999998E-002    -7.2033196687698364E-002
  -4.6299999999999994E-002   -0.11400298774242401     
  -4.5199999999999990E-002   -0.13360399007797241     
  -4.4099999999999986E-002    -7.6241828501224518E-002
  -4.2999999999999997E-002     7.9044558107852936E-002
  -4.1899999999999993E-002    0.27841028571128845     
  -4.0799999999999989E-002    0.42237985134124756     
  -3.9699999999999985E-002    0.43517324328422546     
  -3.8599999999999995E-002    0.29540437459945679     
  -3.7499999999999992E-002     1.0496438480913639E-002
  -3.6399999999999988E-002   -0.39940163493156433     
  -3.5299999999999984E-002   -0.86624133586883545     
  -3.4199999999999994E-002    -1.2450441122055054     
  -3.3099999999999991E-002    -1.3610714673995972     
  -3.1999999999999987E-002    -1.0934382677078247     
  -3.0899999999999997E-002   -0.39615029096603394     
  -2.9799999999999993E-002    0.73438137769699097     
  -2.8699999999999989E-002     2.2233622074127197     
  -2.7599999999999986E-002     3.7906866073608398     
  -2.6499999999999996E-002     4.9136667251586914     
  -2.5399999999999992E-002     5.0254020690917969     
  -2.4299999999999988E-002     3.7887830734252930     
  -2.3199999999999985E-002     1.1367132663726807     
  -2.2099999999999995E-002    -2.9356505870819092     
  -2.0999999999999991E-002    -8.4751434326171875     
  -1.9899999999999987E-002    -15.363406181335449     
  -1.8799999999999983E-002    -23.105707168579102     
  -1.7699999999999994E-002    -31.037914276123047     
  -1.6599999999999990E-002    -38.809974670410156     
  -1.5499999999999986E-002    -46.548053741455078     
  -1.4399999999999996E-002    -54.509086608886719     
  -1.3299999999999992E-002    -62.811546325683594     
  -1.2199999999999989E-002    -71.779655456542969     
  -1.1099999999999985E-002    -82.496040344238281     
  -9.9999999999999950E-003    -96.710136413574219     
  -8.8999999999999913E-003    -116.06048583984375     
  -7.7999999999999875E-003    -141.59283447265625     
  -6.6999999999999837E-003    -174.18234252929688     
  -5.5999999999999939E-003    -215.20405578613281     
  -4.4999999999999901E-003    -266.44021606445312     
  -3.3999999999999864E-003    -329.40832519531250     
  -2.2999999999999826E-003    -405.21279907226562     
  -1.1999999999999927E-003    -495.14382934570312     
  -9.9999999999988987E-005    -601.12780761718750     
   1.0000000000000148E-003    -725.43627929687500     
   2.1000000000000185E-003    -870.56500244140625     
   3.2000000000000084E-003    -1040.1517333984375     
   4.3000000000000121E-003    -1239.8220214843750     
   5.4000000000000159E-003    -1476.0623779296875     
   6.5000000000000058E-003    -1754.0697021484375     
   7.6000000000000234E-003    -2077.4423828125000     
   8.7000000000000133E-003    -2450.6125488281250     
   9.8000000000000032E-003    -2881.4497070312500     
   1.0900000000000021E-002    -3379.8129882812500     
   1.2000000000000011E-002    -3953.8891601562500     
   1.3100000000000001E-002    -4608.9340820312500     
   1.4200000000000018E-002    -5350.5576171875000     
   1.5300000000000008E-002    -6188.5053710937500     
   1.6400000000000026E-002    -7135.9296875000000     
   1.7500000000000016E-002    -8205.1865234375000     
   1.8600000000000005E-002    -9405.0048828125000     
   1.9700000000000023E-002    -10742.716796875000     
   2.0800000000000013E-002    -12226.251953125000     
   2.1900000000000003E-002    -13862.872070312500     
   2.3000000000000020E-002    -15659.133789062500     
   2.4100000000000010E-002    -17621.906250000000     
   2.5200000000000000E-002    -19757.306640625000     
   2.6300000000000018E-002    -22069.148437500000     
   2.7400000000000008E-002    -24554.060546875000     
   2.8500000000000025E-002    -27204.330078125000     
   2.9600000000000015E-002    -30013.808593750000     
   3.0700000000000005E-002    -32979.363281250000     
   3.1800000000000023E-002    -36092.800781250000     
   3.2900000000000013E-002    -39329.378906250000     
   3.4000000000000002E-002    -42652.335937500000     
   3.5100000000000020E-002    -46022.437500000000     
   3.6200000000000010E-002    -49408.578125000000     
   3.7300000000000028E-002    -52777.730468750000     
   3.8400000000000017E-002    -56078.171875000000     
   3.9500000000000007E-002    -59241.312500000000     
   4.0600000000000025E-002    -62192.453125000000     
   4.1700000000000015E-002    -64859.929687500000     
   4.2800000000000005E-002    -67171.953125000000     
   4.3900000000000022E-002    -69054.835937500000     
   4.5000000000000012E-002    -70419.750000000000     
   4.6100000000000002E-002    -71166.890625000000     
   4.7200000000000020E-002    -71184.882812500000     
   4.8300000000000010E-002    -70373.210937500000     
   4.9400000000000027E-002    -68635.820312500000     
   5.0500000000000017E-002    -65895.640625000000     
   5.1600000000000007E-002    -62064.984375000000     
   5.2700000000000025E-002    -57055.355468750000     
   5.3800000000000014E-002    -50780.363281250000     
   5.4900000000000004E-002    -43150.503906250000     
   5.6000000000000022E-002    -34115.871093750000     
   5.7100000000000012E-002    -23687.160156250000     
   5.8200000000000002E-002    -11869.973632812500     
   5.9300000000000019E-002     1335.3500976562500     
   6.0400000000000009E-002     15937.185546875000     
   6.1500000000000027E-002     31913.804687500000     
   6.2600000000000017E-002     49151.488281250000     
   6.3700000000000007E-002     67475.070312500000     
   6.4800000000000024E-002     86732.015625000000     
   6.5900000000000014E-002     106777.93750000000     
   6.7000000000000004E-002     127445.88281250000     
   6.8100000000000022E-002     148531.07812500000     
   6.9200000000000012E-002     169735.67187500000     
   7.0300000000000029E-002     190740.81250000000     
   7.1400000000000019E-002     211255.79687500000     
   7.2500000000000009E-002     230946.04687500000     
   7.3600000000000027E-002     249527.14062500000     
   7.4700000000000016E-002     266684.43750000000     
   7.5800000000000006E-002     282085.81250000000     
   7.6900000000000024E-002     295386.28125000000     
   7.8000000000000014E-002     306230.81250000000     
   7.9100000000000004E-002     314262.62500000000     
   8.0200000000000021E-002     319257.43750000000     
   8.1300000000000011E-002     321060.43750000000     
   8.2400000000000029E-002     319498.06250000000     
   8.3500000000000019E-002     314346.53125000000     
   8.4600000000000009E-002     305391.28125000000     
   8.5700000000000026E-002     292573.40625000000     
   8.6800000000000016E-002     275989.06250000000     
   8.7900000000000006E-002     255772.00000000000     
   8.9000000000000024E-002     232024.59375000000     
   9.0100000000000013E-002     204855.90625000000     
   9.1200000000000003E-002     174472.70312500000     
   9.2300000000000021E-002     141209.45312500000     
   9.3400000000000011E-002     105445.02343750000     
   9.4500000000000028E-002     67596.484375000000     
   9.5600000000000018E-002     28130.048828125000     
   9.6700000000000008E-002    -12440.561523437500     
   9.7800000000000026E-002    -53628.097656250000     
   9.8900000000000016E-002    -94983.554687500000     
  0.10000000000000001         -135995.70312500000     
  0.10110000000000002         -176019.54687500000     
  0.10220000000000001         -214410.54687500000     
  0.10330000000000003         -250662.90625000000     
  0.10440000000000002         -284425.06250000000     
  0.10550000000000001         -315322.90625000000     
  0.10660000000000003         -342889.78125000000     
  0.10770000000000002         -366646.90625000000     
  0.10880000000000001         -386258.50000000000     
  0.10990000000000003         -401586.15625000000     
  0.11100000000000002         -412544.28125000000     
  0.11210000000000001         -418977.46875000000     
  0.11320000000000002         -420863.65625000000     
  0.11430000000000001         -418270.53125000000     
  0.11540000000000003         -411311.53125000000     
  0.11650000000000002         -400054.96875000000     
  0.11760000000000001         -384722.96875000000     
  0.11870000000000003         -365764.93750000000     
  0.11980000000000002         -343635.62500000000     
  0.12090000000000001         -318649.62500000000     
  0.12200000000000003         -291023.21875000000     
  0.12310000000000001         -261140.95312500000     
  0.12420000000000003         -229618.15625000000     
  0.12530000000000002         -197103.84375000000     
  0.12640000000000001         -163974.79687500000     
  0.12750000000000003         -130560.49218750000     
  0.12860000000000002         -97243.273437500000     
  0.12970000000000001         -64547.054687500000     
  0.13080000000000003         -32922.304687500000     
  0.13190000000000002         -2610.2751464843750     
  0.13300000000000001          26117.009765625000     
  0.13410000000000000          52859.769531250000     
  0.13520000000000004          77298.679687500000     
  0.13630000000000003          99375.804687500000     
  0.13740000000000002          119169.10937500000     
  0.13850000000000001          136573.81250000000     
  0.13960000000000000          151295.93750000000     
  0.14070000000000005          163175.23437500000     
  0.14180000000000004          172417.68750000000     
  0.14290000000000003          179355.82812500000     
  0.14400000000000002          184089.51562500000     
  0.14510000000000001          186518.68750000000     
  0.14620000000000000          186687.23437500000     
  0.14730000000000004          184906.00000000000     
  0.14840000000000003          181488.46875000000     
  0.14950000000000002          176543.51562500000     
  0.15060000000000001          170149.03125000000     
  0.15170000000000000          162578.45312500000     
  0.15280000000000005          154220.04687500000     
  0.15390000000000004          145247.03125000000     
  0.15500000000000003          135597.71875000000     
  0.15610000000000002          125314.14062500000     
  0.15720000000000001          114779.19531250000     
  0.15830000000000000          104420.99218750000     
  0.15940000000000004          94330.210937500000     
  0.16050000000000003          84320.304687500000     
  0.16160000000000002          74356.226562500000     
  0.16270000000000001          64712.933593750000     
  0.16380000000000000          55687.050781250000     
  0.16490000000000005          47279.128906250000     
  0.16600000000000004          39338.296875000000     
  0.16710000000000003          31870.996093750000     
  0.16820000000000002          25069.951171875000     
  0.16930000000000001          19000.761718750000     
  0.17040000000000000          13453.828125000000     
  0.17150000000000004          8297.4658203125000     
  0.17260000000000003          3700.3037109375000     
  0.17370000000000002         -109.87416076660156     
  0.17480000000000001         -3237.1999511718750     
  0.17590000000000000         -6025.4550781250000     
  0.17700000000000005         -8634.2734375000000     
  0.17810000000000004         -10844.217773437500     
  0.17920000000000003         -12431.678710937500     
  0.18030000000000002         -13524.861328125000     
  0.18140000000000001         -14447.915039062500     
  0.18250000000000000         -15287.530273437500     
  0.18360000000000004         -15848.358398437500     
  0.18470000000000003         -16022.023437500000     
  0.18580000000000002         -15996.995117187500     
  0.18690000000000001         -15995.679687500000     
  0.18800000000000000         -15947.800781250000     
  0.18910000000000005         -15635.371093750000     
  0.19020000000000004         -15073.291015625000     
  0.19130000000000003         -14529.266601562500     
  0.19240000000000002         -14148.024414062500     
  0.19350000000000001         -13749.907226562500     
  0.19460000000000005         -13114.926757812500     
  0.19570000000000004         -12329.668945312500     
  0.19680000000000003         -11665.105468750000     
  0.19790000000000002         -11172.235351562500     
  0.19900000000000001         -10623.352539062500     
  0.20010000000000000         -9872.7197265625000     
  0.20120000000000005         -9092.0761718750000     
  0.20230000000000004         -8509.2363281250000     
  0.20340000000000003         -8059.9443359375000     
  0.20450000000000002         -7478.2255859375000     
  0.20560000000000000         -6698.6289062500000     
  0.20670000000000005         -5955.6059570312500     
  0.20780000000000004         -5437.6782226562500     
  0.20890000000000003         -5019.8720703125000     
