 -0.12000000000000000          0.0000000000000000     
 -0.11889999999999999         -2.3804462398402393E-004
 -0.11780000000000000          1.6688909090589732E-004
 -0.11670000000000000          6.6972925560548902E-004
 -0.11559999999999999         -1.1048441228922457E-004
 -0.11449999999999999         -1.1875819182023406E-003
 -0.11340000000000000         -2.8042783378623426E-004
 -0.11230000000000000          1.4356311876326799E-003
 -0.11119999999999999          3.2772312988527119E-004
 -0.11009999999999999         -2.5303363800048828E-003
 -0.10900000000000000         -1.1085482547059655E-003
 -0.10790000000000000          5.0206361338496208E-003
 -0.10679999999999999          6.4050024375319481E-003
 -0.10569999999999999         -2.7467783074826002E-003
 -0.10460000000000000         -1.1950998567044735E-002
 -0.10349999999999999         -6.5400348976254463E-003
 -0.10239999999999999          8.9880032464861870E-003
 -0.10130000000000000          1.3437520712614059E-002
 -0.10020000000000000         -8.5764256073161960E-004
  -9.9099999999999994E-002    -1.4127862639725208E-002
  -9.7999999999999990E-002    -6.5306443721055984E-003
  -9.6899999999999986E-002     1.1461478658020496E-002
  -9.5799999999999996E-002     1.3230031356215477E-002
  -9.4699999999999993E-002    -4.0341480635106564E-003
  -9.3599999999999989E-002    -1.4631012454628944E-002
  -9.2499999999999999E-002    -3.7690037861466408E-003
  -9.1399999999999995E-002     9.6112620085477829E-003
  -9.0299999999999991E-002     3.2291109673678875E-003
  -8.9200000000000002E-002    -1.2479634955525398E-002
  -8.8099999999999984E-002    -1.1040860787034035E-002
  -8.6999999999999994E-002     6.2278299592435360E-003
  -8.5899999999999990E-002     1.0888456366956234E-002
  -8.4799999999999986E-002    -5.9583969414234161E-003
  -8.3699999999999997E-002    -1.6754129901528358E-002
  -8.2599999999999993E-002    -1.7533885547891259E-003
  -8.1499999999999989E-002     1.5199365094304085E-002
  -8.0399999999999999E-002     1.9376494456082582E-003
  -7.9299999999999995E-002    -2.7117192745208740E-002
  -7.8199999999999992E-002    -2.7603210881352425E-002
  -7.7100000000000002E-002     4.4783186167478561E-003
  -7.5999999999999984E-002     1.9044239073991776E-002
  -7.4899999999999994E-002    -1.4634957537055016E-002
  -7.3799999999999991E-002    -5.5820371955633163E-002
  -7.2699999999999987E-002    -4.7623552381992340E-002
  -7.1599999999999997E-002    -2.9548250604420900E-003
  -7.0499999999999993E-002     1.0166016407310963E-002
  -6.9399999999999989E-002    -3.2849531620740891E-002
  -6.8300000000000000E-002    -7.7495232224464417E-002
  -6.7199999999999996E-002    -7.1866549551486969E-002
  -6.6099999999999992E-002    -4.1785959154367447E-002
  -6.5000000000000002E-002    -4.6495899558067322E-002
  -6.3899999999999985E-002    -8.6979098618030548E-002
  -6.2799999999999995E-002   -0.11066696047782898     
  -6.1699999999999991E-002   -0.10123332589864731     
  -6.0599999999999994E-002   -0.10588069260120392     
  -5.9499999999999990E-002   -0.15351256728172302     
  -5.8399999999999994E-002   -0.19862218201160431     
  -5.7299999999999990E-002   -0.19040952622890472     
  -5.6199999999999986E-002   -0.16318483650684357     
  -5.5099999999999996E-002   -0.19614845514297485     
  -5.3999999999999992E-002   -0.29097953438758850     
  -5.2899999999999989E-002   -0.35718971490859985     
  -5.1799999999999985E-002   -0.34126746654510498     
  -5.0699999999999995E-002   -0.31019860506057739     
  -4.9599999999999991E-002   -0.35722157359123230     
  -4.8499999999999988E-002   -0.46517297625541687     
  -4.7399999999999998E-002   -0.53224718570709229     
  -4.6299999999999994E-002   -0.52325505018234253     
  -4.5199999999999990E-002   -0.51698631048202515     
  -4.4099999999999986E-002   -0.58169293403625488     
  -4.2999999999999997E-002   -0.67141121625900269     
  -4.1899999999999993E-002   -0.70264977216720581     
  -4.0799999999999989E-002   -0.68643730878829956     
  -3.9699999999999985E-002   -0.70701593160629272     
  -3.8599999999999995E-002   -0.78325116634368896     
  -3.7499999999999992E-002   -0.83285492658615112     
  -3.6399999999999988E-002   -0.80115568637847900     
  -3.5299999999999984E-002   -0.75005996227264404     
  -3.4199999999999994E-002   -0.76329636573791504     
  -3.3099999999999991E-002   -0.80955296754837036     
  -3.1999999999999987E-002   -0.78310626745223999     
  -3.0899999999999997E-002   -0.66532582044601440     
  -2.9799999999999993E-002   -0.55760067701339722     
  -2.8699999999999989E-002   -0.52421051263809204     
  -2.7599999999999986E-002   -0.48884010314941406     
  -2.6499999999999996E-002   -0.34414321184158325     
  -2.5399999999999992E-002   -0.11762953549623489     
  -2.4299999999999988E-002     7.0318140089511871E-002
  -2.3199999999999985E-002    0.18713603913784027     
  -2.2099999999999995E-002    0.33874681591987610     
  -2.0999999999999991E-002    0.60707849264144897     
  -1.9899999999999987E-002    0.93096143007278442     
  -1.8799999999999983E-002     1.1978746652603149     
  -1.7699999999999994E-002     1.4130647182464600     
  -1.6599999999999990E-002     1.6820684671401978     
  -1.5499999999999986E-002     2.0387637615203857     
  -1.4399999999999996E-002     2.3931965827941895     
  -1.3299999999999992E-002     2.6689715385437012     
  -1.2199999999999989E-002     2.9200739860534668     
  -1.1099999999999985E-002     3.2378396987915039     
  -9.9999999999999950E-003     3.5944004058837891     
  -8.8999999999999913E-003     3.8745200634002686     
  -7.7999999999999875E-003     4.0432362556457520     
  -6.6999999999999837E-003     4.1981401443481445     
  -5.5999999999999939E-003     4.4131159782409668     
  -4.4999999999999901E-003     4.6113858222961426     
  -3.3999999999999864E-003     4.6772370338439941     
  -2.2999999999999826E-003     4.6179885864257812     
  -1.1999999999999927E-003     4.5420236587524414     
  -9.9999999999988987E-005     4.4893374443054199     
   1.0000000000000148E-003     4.3677215576171875     
   2.1000000000000185E-003     4.0917248725891113     
   3.2000000000000084E-003     3.7095322608947754     
   4.3000000000000121E-003     3.3240470886230469     
   5.4000000000000159E-003     2.9398331642150879     
   6.5000000000000058E-003     2.4466903209686279     
   7.6000000000000234E-003     1.8061742782592773     
   8.7000000000000133E-003     1.1109195947647095     
   9.8000000000000032E-003    0.45169389247894287     
   1.0900000000000021E-002   -0.20828376710414886     
   1.2000000000000011E-002   -0.95896100997924805     
   1.3100000000000001E-002    -1.7976067066192627     
   1.4200000000000018E-002    -2.6196167469024658     
   1.5300000000000008E-002    -3.3703224658966064     
   1.6400000000000026E-002    -4.1013383865356445     
   1.7500000000000016E-002    -4.8665232658386230     
   1.8600000000000005E-002    -5.6173686981201172     
   1.9700000000000023E-002    -6.2653908729553223     
   2.0800000000000013E-002    -6.8052787780761719     
   2.1900000000000003E-002    -7.3048248291015625     
   2.3000000000000020E-002    -7.7843208312988281     
   2.4100000000000010E-002    -8.1687526702880859     
   2.5200000000000000E-002    -8.3825035095214844     
   2.6300000000000018E-002    -8.4563035964965820     
   2.7400000000000008E-002    -8.4702053070068359     
   2.8500000000000025E-002    -8.4326496124267578     
   2.9600000000000015E-002    -8.2721109390258789     
   3.0700000000000005E-002    -7.9458932876586914     
   3.1800000000000023E-002    -7.5021824836730957     
   3.2900000000000013E-002    -6.9995498657226562     
   3.4000000000000002E-002    -6.4317760467529297     
   3.5100000000000020E-002    -5.7540869712829590     
   3.6200000000000010E-002    -4.9733915328979492     
   3.7300000000000028E-002    -4.1604075431823730     
   3.8400000000000017E-002    -3.3442871570587158     
   3.9500000000000007E-002    -2.4887278079986572     
   4.0600000000000025E-002    -1.5632277727127075     
   4.1700000000000015E-002   -0.61511218547821045     
   4.2800000000000005E-002    0.28539285063743591     
   4.3900000000000022E-002     1.1241273880004883     
   4.5000000000000012E-002     1.9357764720916748     
   4.6100000000000002E-002     2.7278761863708496     
   4.7200000000000020E-002     3.4794213771820068     
   4.8300000000000010E-002     4.1509299278259277     
   4.9400000000000027E-002     4.7325067520141602     
   5.0500000000000017E-002     5.2333593368530273     
   5.1600000000000007E-002     5.6453638076782227     
   5.2700000000000025E-002     5.9655055999755859     
   5.3800000000000014E-002     6.1948843002319336     
   5.4900000000000004E-002     6.3478965759277344     
   5.6000000000000022E-002     6.4220905303955078     
   5.7100000000000012E-002     6.3994803428649902     
   5.8200000000000002E-002     6.2833795547485352     
   5.9300000000000019E-002     6.0930342674255371     
   6.0400000000000009E-002     5.8406033515930176     
   6.1500000000000027E-002     5.5283355712890625     
   6.2600000000000017E-002     5.1697869300842285     
   6.3700000000000007E-002     4.7787632942199707     
   6.4800000000000024E-002     4.3568959236145020     
   6.5900000000000014E-002     3.8897430896759033     
   6.7000000000000004E-002     3.3851726055145264     
   6.8100000000000022E-002     2.8814570903778076     
   6.9200000000000012E-002     2.4109148979187012     
   7.0300000000000029E-002     1.9584286212921143     
   7.1400000000000019E-002     1.4894047975540161     
   7.2500000000000009E-002     1.0128670930862427     
   7.3600000000000027E-002    0.58010447025299072     
   7.4700000000000016E-002    0.21289108693599701     
   7.5800000000000006E-002   -0.12922452390193939     
   7.6900000000000024E-002   -0.48012551665306091     
   7.8000000000000014E-002   -0.80546253919601440     
   7.9100000000000004E-002    -1.0475331544876099     
   8.0200000000000021E-002    -1.2149417400360107     
   8.1300000000000011E-002    -1.3781651258468628     
   8.2400000000000029E-002    -1.5653612613677979     
   8.3500000000000019E-002    -1.7154231071472168     
   8.4600000000000009E-002    -1.7672104835510254     
   8.5700000000000026E-002    -1.7598860263824463     
   8.6800000000000016E-002    -1.7746955156326294     
   8.7900000000000006E-002    -1.8160053491592407     
   8.9000000000000024E-002    -1.8076300621032715     
   9.0100000000000013E-002    -1.7173131704330444     
   9.1200000000000003E-002    -1.6192115545272827     
   9.2300000000000021E-002    -1.5770796537399292     
   9.3400000000000011E-002    -1.5428199768066406     
   9.4500000000000028E-002    -1.4296536445617676     
   9.5600000000000018E-002    -1.2568384408950806     
   9.6700000000000008E-002    -1.1343475580215454     
   9.7800000000000026E-002    -1.1002120971679688     
   9.8900000000000016E-002    -1.0546894073486328     
  0.10000000000000001        -0.91041862964630127     
  0.10110000000000002        -0.72677284479141235     
  0.10220000000000001        -0.62847536802291870     
  0.10330000000000003        -0.61784350872039795     
  0.10440000000000002        -0.57316464185714722     
  0.10550000000000001        -0.43446165323257446     
  0.10660000000000003        -0.29732304811477661     
  0.10770000000000002        -0.26358884572982788     
  0.10880000000000001        -0.28330174088478088     
  0.10990000000000003        -0.22898215055465698     
  0.11100000000000002         -9.7031965851783752E-002
  0.11210000000000001         -1.7428314313292503E-002
  0.11320000000000002         -5.3548343479633331E-002
  0.11430000000000001         -9.8675325512886047E-002
  0.11540000000000003         -3.6341506987810135E-002
  0.11650000000000002          7.9674579203128815E-002
  0.11760000000000001         0.10661191493272781     
  0.11870000000000003          3.2216671854257584E-002
  0.11980000000000002         -5.0005605444312096E-003
  0.12090000000000001          6.9496303796768188E-002
  0.12200000000000003         0.15019580721855164     
  0.12310000000000001         0.11703432351350784     
  0.12420000000000003          2.5075810030102730E-002
  0.12530000000000002          2.3469569161534309E-002
  0.12640000000000001         0.12237898260354996     
  0.12750000000000003         0.17078417539596558     
  0.12860000000000002          8.7893664836883545E-002
  0.12970000000000001         -8.5202818736433983E-003
  0.13080000000000003          2.2343400865793228E-002
  0.13190000000000002         0.13065789639949799     
  0.13300000000000001         0.14970302581787109     
  0.13410000000000000          4.8344567418098450E-002
  0.13520000000000004         -2.4019962176680565E-002
  0.13630000000000003          3.3147986978292465E-002
  0.13740000000000002         0.12056329846382141     
  0.13850000000000001          9.6767894923686981E-002
  0.13960000000000000         -3.4054450225085020E-003
  0.14070000000000005         -2.5704940780997276E-002
  0.14180000000000004          6.1173833906650543E-002
  0.14290000000000003         0.11540674418210983     
  0.14400000000000002          4.4314641505479813E-002
  0.14510000000000001         -4.8819128423929214E-002
  0.14620000000000000         -2.2666303440928459E-002
  0.14730000000000004          8.1986725330352783E-002
  0.14840000000000003         0.10262034833431244     
  0.14950000000000002          3.9833728224039078E-003
  0.15060000000000001         -6.7147724330425262E-002
  0.15170000000000000         -6.3777696341276169E-003
  0.15280000000000005          8.9097335934638977E-002
  0.15390000000000004          7.1361251175403595E-002
  0.15500000000000003         -3.1826630234718323E-002
  0.15610000000000002         -6.1948839575052261E-002
  0.15720000000000001          2.5037119165062904E-002
  0.15830000000000000          9.2527426779270172E-002
  0.15940000000000004          3.4622620791196823E-002
  0.16050000000000003         -6.1109211295843124E-002
  0.16160000000000002         -4.9597054719924927E-002
  0.16270000000000001          4.9403239041566849E-002
  0.16380000000000000          8.3870887756347656E-002
  0.16490000000000005          2.9800885822623968E-003
  0.16600000000000004         -6.8088792264461517E-002
  0.16710000000000003         -2.3241000249981880E-002
  0.16820000000000002          6.4159236848354340E-002
  0.16930000000000001          5.8513786643743515E-002
  0.17040000000000000         -2.8717003762722015E-002
  0.17150000000000004         -6.0956247150897980E-002
  0.17260000000000003          1.0126168839633465E-002
  0.17370000000000002          7.1777842938899994E-002
  0.17480000000000001          2.7280163019895554E-002
  0.17590000000000000         -5.4411452263593674E-002
  0.17700000000000005         -4.6795919537544250E-002
  0.17810000000000004          3.8523398339748383E-002
  0.17920000000000003          7.0571511983871460E-002
  0.18030000000000002          7.2985823499038815E-004
  0.18140000000000001         -6.4462549984455109E-002
  0.18250000000000000         -2.7310920879244804E-002
  0.18360000000000004          5.3296096622943878E-002
  0.18470000000000003          5.5006325244903564E-002
  0.18580000000000002         -2.1817952394485474E-002
  0.18690000000000001         -5.9356957674026489E-002
  0.18800000000000000         -3.7676501087844372E-003
  0.18910000000000005          5.6845664978027344E-002
  0.19020000000000004          3.1555000692605972E-002
  0.19130000000000003         -3.6780457943677902E-002
  0.19240000000000002         -4.2749963700771332E-002
  0.19350000000000001          1.9058953970670700E-002
  0.19460000000000005          5.0982736051082611E-002
  0.19570000000000004          5.5736317299306393E-003
  0.19680000000000003         -4.4476617127656937E-002
  0.19790000000000002         -2.2328058257699013E-002
  0.19900000000000001          3.5200741142034531E-002
  0.20010000000000000          3.8424398750066757E-002
  0.20120000000000005         -1.6173416748642921E-002
  0.20230000000000004         -4.3374080210924149E-002
  0.20340000000000003         -2.0979503169655800E-003
  0.20450000000000002          4.3536338955163956E-002
  0.20560000000000000          2.4752777069807053E-002
  0.20670000000000005         -2.7944918721914291E-002
  0.20780000000000004         -3.4706089645624161E-002
  0.20890000000000003          1.1790562421083450E-002
