 -0.12000000000000000          0.0000000000000000
 -0.11889999999999999          0.0000000000000000
 -0.11780000000000000          0.0000000000000000
 -0.11670000000000000          0.0000000000000000
 -0.11559999999999999          0.0000000000000000
 -0.11449999999999999          0.0000000000000000
 -0.11340000000000000          0.0000000000000000
 -0.11230000000000000          4.5173367227286533E-021
 -0.11119999999999999         -2.1335585054060316E-021
 -0.11009999999999999         -5.0255070541149363E-020
 -0.10900000000000000          6.3249792005434729E-021
 -0.10790000000000000          3.2296858596705518E-019
 -0.10679999999999999          1.0674466598259625E-019
 -0.10569999999999999         -1.4623058100980340E-018
 -0.10460000000000000         -1.2596277416636066E-018
 -0.10349999999999999          4.7662502582968852E-018
 -0.10239999999999999          7.2483777398296558E-018
 -0.10130000000000000         -1.0592429074003906E-017
 -0.10020000000000000         -2.7792593602401887E-017
  -9.9099999999999994E-002     1.2570456973815223E-017
  -9.7999999999999990E-002     7.9820507126533615E-017
  -9.6899999999999986E-002     1.2145739433938646E-017
  -9.5799999999999996E-002    -1.8955684152154983E-016
  -9.4699999999999993E-002    -1.2844003948025284E-016
  -9.3599999999999989E-002     3.9215216707930351E-016
  -9.2499999999999999E-002     5.3949000130372243E-016
  -9.1399999999999995E-002    -6.0574216558087523E-016
  -9.0299999999999991E-002    -1.6980247147458305E-015
  -8.9200000000000002E-002     1.2997000597612073E-016
  -8.8099999999999984E-002     3.8443729570450478E-015
  -8.6999999999999994E-002     2.7951515512152515E-015
  -8.5899999999999990E-002    -5.4412913722836319E-015
  -8.4799999999999986E-002    -9.5917494256979145E-015
  -8.3699999999999997E-002     2.5228006007616032E-015
  -8.2599999999999993E-002     1.8417230495662226E-014
  -8.1499999999999989E-002     8.2132456556889034E-015
  -8.0399999999999999E-002    -2.5318201040454985E-014
  -7.9299999999999995E-002    -2.8646833847125255E-014
  -7.8199999999999992E-002     2.6885518618802347E-014
  -7.7100000000000002E-002     6.7104518285381748E-014
  -7.5999999999999984E-002    -4.8576949889878387E-015
  -7.4899999999999994E-002    -1.2584735770843070E-013
  -7.3799999999999991E-002    -8.8558927714959407E-014
  -7.2699999999999987E-002     1.4607440962117330E-013
  -7.1599999999999997E-002     2.6607234753124598E-013
  -7.0499999999999993E-002    -1.4645877284384656E-014
  -6.9399999999999989E-002    -4.1285169185244219E-013
  -6.8300000000000000E-002    -2.8991403461936516E-013
  -6.7199999999999996E-002     3.7689518389907861E-013
  -6.6099999999999992E-002     6.6022968342460686E-013
  -6.5000000000000002E-002    -1.0487731559941094E-013
  -6.3899999999999985E-002    -1.0222499929879447E-012
  -6.2799999999999995E-002    -5.2546931649660733E-013
  -6.1699999999999991E-002     1.1612631429375186E-012
  -6.0599999999999994E-002     1.6429054297550927E-012
  -5.9499999999999990E-002    -4.3080518536200985E-013
  -5.8399999999999994E-002    -2.6582687873838440E-012
  -5.7299999999999990E-002    -1.4798661428228055E-012
  -5.6199999999999986E-002     2.3741826647022402E-012
  -5.5099999999999996E-002     3.6570000500057986E-012
  -5.3999999999999992E-002    -3.4670332468671183E-013
  -5.2899999999999989E-002    -4.7691954552231408E-012
  -5.1799999999999985E-002    -2.8353901258132419E-012
  -5.0699999999999995E-002     3.9463007514561887E-012
  -4.9599999999999991E-002     6.1618184513112517E-012
  -4.8499999999999988E-002    -6.3211534531010249E-013
  -4.7399999999999998E-002    -7.9609227196519861E-012
  -4.6299999999999994E-002    -4.8449655745685938E-012
  -4.5199999999999990E-002     5.9953301004278536E-012
  -4.4099999999999986E-002     1.0003449457673952E-011
  -4.2999999999999997E-002     7.0892884661624689E-013
  -4.1899999999999993E-002    -9.9522022567466450E-012
  -4.0799999999999989E-002    -7.5308596164669339E-012
  -3.9699999999999985E-002     4.1720238375120289E-012
  -3.8599999999999995E-002     8.2175898030723005E-012
  -3.7499999999999992E-002    -6.3644971454515642E-013
  -3.6399999999999988E-002    -8.0506434851912445E-012
  -3.5299999999999984E-002    -1.8630988678908222E-012
  -3.4199999999999994E-002     9.1507704191862160E-012
  -3.3099999999999991E-002     8.9028975164273660E-012
  -3.1999999999999987E-002    -8.5994362672425773E-013
  -3.0899999999999997E-002    -4.3742882580022346E-012
  -2.9799999999999993E-002     6.2943611911156494E-013
  -2.8699999999999989E-002    -1.9726872045600086E-012
  -2.7599999999999986E-002    -1.6758964008212196E-011
  -2.6499999999999996E-002    -2.0910788725569951E-011
  -2.5399999999999992E-002     2.9894871300673032E-012
  -2.4299999999999988E-002     3.0755904767421072E-011
  -2.3199999999999985E-002     2.1634041780238533E-011
  -2.2099999999999995E-002    -1.9669203765726451E-011
  -2.0999999999999991E-002    -3.8401063578996641E-011
  -1.9899999999999987E-002    -5.0469962410704117E-012
  -1.8799999999999983E-002     3.2670970095960428E-011
  -1.7699999999999994E-002     9.1561766848990978E-012
  -1.6599999999999990E-002    -5.9844892930094318E-011
  -1.5499999999999986E-002    -8.4310343428928292E-011
  -1.4399999999999996E-002    -1.9536568543476740E-011
  -1.3299999999999992E-002     6.4550247091954560E-011
  -1.2199999999999989E-002     6.8626937466120808E-011
  -1.1099999999999985E-002    -7.4524483806293063E-012
  -9.9999999999999950E-003    -7.1625150255272274E-011
  -8.8999999999999913E-003    -6.8002617426010659E-011
  -7.7999999999999875E-003    -4.2949067913244932E-011
  -6.6999999999999837E-003    -6.1551048979868739E-011
  -5.5999999999999939E-003    -1.1019042622795183E-010
  -4.4999999999999901E-003    -1.3012979582782691E-010
  -3.3999999999999864E-003    -1.1068945066083913E-010
  -2.2999999999999826E-003    -9.1249799383241736E-011
  -1.1999999999999927E-003    -7.9811893205494755E-011
  -9.9999999999988987E-005    -4.8239159194940484E-011
   1.0000000000000148E-003    -2.3229298692917233E-011
   2.1000000000000185E-003    -9.7338102855726305E-011
   3.2000000000000084E-003    -3.0171198872608329E-010
   4.3000000000000121E-003    -4.9955983794092162E-010
   5.4000000000000159E-003    -5.2130327832244916E-010
   6.5000000000000058E-003    -3.9255143580163576E-010
   7.6000000000000234E-003    -3.2858563092652560E-010
   8.7000000000000133E-003    -4.4904438500914523E-010
   9.8000000000000032E-003    -6.1232696690893818E-010
   1.0900000000000021E-002    -6.1157190422989061E-010
   1.2000000000000011E-002    -4.6902093320255744E-010
   1.3100000000000001E-002    -4.4590225956042673E-010
   1.4200000000000018E-002    -7.2740374834623367E-010
   1.5300000000000008E-002    -1.1708547464905905E-009
   1.6400000000000026E-002    -1.4743285481344515E-009
   1.7500000000000016E-002    -1.5576359091440395E-009
   1.8600000000000005E-002    -1.5549153076221955E-009
   1.9700000000000023E-002    -1.5827963384396071E-009
   2.0800000000000013E-002    -1.6309068540110161E-009
   2.1900000000000003E-002    -1.6325122365046241E-009
   2.3000000000000020E-002    -1.6884866838040580E-009
   2.4100000000000010E-002    -1.8525498912680405E-009
   2.5200000000000000E-002    -2.0676942380504215E-009
   2.6300000000000018E-002    -2.2607546945607737E-009
   2.7400000000000008E-002    -2.6032371813755617E-009
   2.8500000000000025E-002    -3.0103841641704321E-009
   2.9600000000000015E-002    -3.3636242680046280E-009
   3.0700000000000005E-002    -3.3938147847578648E-009
   3.1800000000000023E-002    -3.2164428898084907E-009
   3.2900000000000013E-002    -3.0217413016231376E-009
   3.4000000000000002E-002    -2.9694424696913302E-009
   3.5100000000000020E-002    -3.0864721889400926E-009
   3.6200000000000010E-002    -3.0670082029615742E-009
   3.7300000000000028E-002    -2.4929991404576413E-009
   3.8400000000000017E-002    -2.2787054465567280E-009
   3.9500000000000007E-002    -2.5998694308526638E-009
   4.0600000000000025E-002    -3.1857043669702989E-009
   4.1700000000000015E-002    -3.1979756620614808E-009
   4.2800000000000005E-002    -2.3353614597709793E-009
   4.3900000000000022E-002    -1.1792513632258306E-009
   4.5000000000000012E-002    -6.3149363516146195E-010
   4.6100000000000002E-002    -5.1423737490452481E-010
   4.7200000000000020E-002     4.5341504856244441E-011
   4.8300000000000010E-002     9.0909807459738090E-010
   4.9400000000000027E-002     1.9122046168718043E-009
   5.0500000000000017E-002     2.9714359861543471E-009
   5.1600000000000007E-002     4.2952925660699748E-009
   5.2700000000000025E-002     4.7957628979133915E-009
   5.3800000000000014E-002     4.3713299646697124E-009
   5.4900000000000004E-002     5.0020787512039533E-009
   5.6000000000000022E-002     6.6320895442117944E-009
   5.7100000000000012E-002     9.4423233676366181E-009
   5.8200000000000002E-002     1.0675610617738585E-008
   5.9300000000000019E-002     1.0067083167086821E-008
   6.0400000000000009E-002     9.1405425450830080E-009
   6.1500000000000027E-002     1.0198430544505754E-008
   6.2600000000000017E-002     1.2971529628202916E-008
   6.3700000000000007E-002     1.5378226692064345E-008
   6.4800000000000024E-002     1.6147341241889990E-008
   6.5900000000000014E-002     1.4543435788993975E-008
   6.7000000000000004E-002     1.2849820762994568E-008
   6.8100000000000022E-002     1.2454528075522830E-008
   6.9200000000000012E-002     1.3080888372485333E-008
   7.0300000000000029E-002     1.5566069322403564E-008
   7.1400000000000019E-002     1.7449371725319907E-008
   7.2500000000000009E-002     1.5309618461856189E-008
   7.3600000000000027E-002     9.6174046504415855E-009
   7.4700000000000016E-002     5.4618323197530572E-009
   7.5800000000000006E-002     6.8672441067008094E-009
   7.6900000000000024E-002     1.2210506383780739E-008
   7.8000000000000014E-002     1.3001686838265414E-008
   7.9100000000000004E-002     6.1723794964052558E-009
   8.0200000000000021E-002    -2.8120112904872485E-009
   8.1300000000000011E-002    -5.7217128812681040E-009
   8.2400000000000029E-002    -1.8397545709092356E-009
   8.3500000000000019E-002     1.6584349449288993E-009
   8.4600000000000009E-002    -1.0031552255540532E-009
   8.5700000000000026E-002    -7.4111823344935601E-009
   8.6800000000000016E-002    -1.2996263620834725E-008
   8.7900000000000006E-002    -1.5641205663996516E-008
   8.9000000000000024E-002    -1.5674848086177917E-008
   9.0100000000000013E-002    -1.3943346033329362E-008
   9.1200000000000003E-002    -1.2235013002737105E-008
   9.2300000000000021E-002    -1.3594400272154417E-008
   9.3400000000000011E-002    -1.9960628705462113E-008
   9.4500000000000028E-002    -2.6704084277184847E-008
   9.5600000000000018E-002    -2.7783331191244542E-008
   9.6700000000000008E-002    -2.0038397607891056E-008
   9.7800000000000026E-002    -1.1728077176087481E-008
   9.8900000000000016E-002    -1.4190424835192061E-008
  0.10000000000000001         -2.4087936978389735E-008
  0.10110000000000002         -3.0277675477918820E-008
  0.10220000000000001         -2.6053241342083311E-008
  0.10330000000000003         -1.2041484254154966E-008
  0.10440000000000002         -4.9456092554578390E-009
  0.10550000000000001         -8.3767242031740352E-009
  0.10660000000000003         -1.7901824023169866E-008
  0.10770000000000002         -2.2529194509957051E-008
  0.10880000000000001         -1.4476782439487579E-008
  0.10990000000000003          4.5954012817261969E-010
  0.11100000000000002          7.1083272601413228E-009
  0.11210000000000001          2.5556712301977313E-009
  0.11320000000000002         -3.6433034367178152E-009
  0.11430000000000001         -5.5145634725306536E-009
  0.11540000000000003         -3.1242610720738639E-009
  0.11650000000000002          2.4466022541247412E-009
  0.11760000000000001          1.1452518045018678E-008
  0.11870000000000003          1.7888812209321259E-008
  0.11980000000000002          1.4018509020274905E-008
  0.12090000000000001          3.4619440647531974E-009
  0.12200000000000003         -3.0947637785772031E-009
  0.12310000000000001          6.6988543601098627E-009
  0.12420000000000003          2.3490466460884818E-008
  0.12530000000000002          2.9192840145242371E-008
  0.12640000000000001          1.7452876477364043E-008
  0.12750000000000003          1.7657827422468131E-009
  0.12860000000000002         -1.6972407923532273E-009
  0.12970000000000001          6.9762533527750747E-009
  0.13080000000000003          1.6487181397906170E-008
  0.13190000000000002          1.8238001331383202E-008
  0.13300000000000001          1.5342829229325616E-008
  0.13410000000000000          1.2051532216617034E-008
  0.13520000000000004          7.0307706323546881E-009
  0.13630000000000003         -1.0014500340105315E-010
  0.13740000000000002         -2.1940527172858992E-009
  0.13850000000000001          6.4471592509107722E-009
  0.13960000000000000          1.7783174044438965E-008
  0.14070000000000005          1.6285291337680974E-008
  0.14180000000000004         -1.2457834763779374E-010
  0.14290000000000003         -1.4946953896810555E-008
  0.14400000000000002         -1.1779658137811566E-008
  0.14510000000000001          4.5903822964987739E-009
  0.14620000000000000          1.4940011894282179E-008
  0.14730000000000004          9.4789882609802589E-009
  0.14840000000000003         -2.9182527505611233E-009
  0.14950000000000002         -9.5034051739162351E-009
  0.15060000000000001         -8.7480014343555013E-009
  0.15170000000000000         -5.6321201036269031E-009
  0.15280000000000005         -1.7549343089839908E-009
  0.15390000000000004          4.2664538568715216E-009
  0.15500000000000003          7.6149353489540772E-009
  0.15610000000000002          5.1276360935048615E-010
  0.15720000000000001         -1.3755015793037728E-008
  0.15830000000000000         -1.8731844519948027E-008
  0.15940000000000004         -5.2380135784346749E-009
  0.16050000000000003          1.2867301890651106E-008
  0.16160000000000002          1.4273493498251355E-008
  0.16270000000000001         -2.7652009570999780E-009
  0.16380000000000000         -1.8472897878041294E-008
  0.16490000000000005         -1.5160940947112067E-008
  0.16600000000000004         -3.9747229813036355E-011
  0.16710000000000003          8.8456202362863223E-009
  0.16820000000000002          4.9637822741033233E-009
  0.16930000000000001         -2.2450103998039594E-009
  0.17040000000000000         -4.7546260262265605E-009
  0.17150000000000004         -5.1037174486623371E-009
  0.17260000000000003         -6.0081957187207991E-009
  0.17370000000000002         -3.4229792333917430E-009
  0.17480000000000001          4.9106425592526648E-009
  0.17590000000000000          1.0744814815666359E-008
  0.17700000000000005          3.8844194527598574E-009
  0.17810000000000004         -1.0052987775566180E-008
  0.17920000000000003         -1.4361160260989436E-008
  0.18030000000000002         -2.4747304205874343E-009
  0.18140000000000001          1.1163011848225324E-008
  0.18250000000000000          9.9678878484610323E-009
  0.18360000000000004         -2.9186930650126897E-009
  0.18470000000000003         -9.9358690164308427E-009
  0.18580000000000002         -3.5919112129079167E-009
  0.18690000000000001          5.3367377184088127E-009
  0.18800000000000000          5.2573954079093710E-009
  0.18910000000000005         -2.3008779603816976E-010
  0.19020000000000004         -9.0136248465100266E-010
  0.19130000000000003          2.4331552328504813E-009
  0.19240000000000002          1.0905800706950686E-009
  0.19350000000000001         -5.3300546198897791E-009
  0.19460000000000005         -6.3887313217492192E-009
  0.19570000000000004          2.2440223013120431E-009
  0.19680000000000003          9.7199759352406545E-009
  0.19790000000000002          4.8659534179762431E-009
  0.19900000000000001         -6.8808829745137245E-009
  0.20010000000000000         -9.7554373468256017E-009
  0.20120000000000005         -3.2516100922919122E-011
  0.20230000000000004          8.7317628683081239E-009
  0.20340000000000003          5.6639088974463903E-009
  0.20450000000000002         -3.0421285490689343E-009
  0.20560000000000000         -5.0595674316866734E-009
  0.20670000000000005         -2.2419115175420501E-010
  0.20780000000000004          1.7608469127239346E-009
  0.20890000000000003         -1.7576312627554103E-009
