 -0.12000000000000000          0.0000000000000000     
 -0.11889999999999999          0.0000000000000000     
 -0.11780000000000000          0.0000000000000000     
 -0.11670000000000000          0.0000000000000000     
 -0.11559999999999999         -1.5936995623633265E-005
 -0.11449999999999999          5.4949676268734038E-005
 -0.11340000000000000          8.9407716586720198E-005
 -0.11230000000000000         -4.6513776760548353E-004
 -0.11119999999999999         -5.4299586918205023E-004
 -0.11009999999999999          2.2798178251832724E-003
 -0.10900000000000000          3.5701529122889042E-003
 -0.10790000000000000         -7.0889354683458805E-003
 -0.10679999999999999         -1.8415888771414757E-002
 -0.10569999999999999          9.0613868087530136E-003
 -0.10460000000000000          6.5911613404750824E-002
 -0.10349999999999999          3.5395182669162750E-002
 -0.10239999999999999        -0.14516286551952362     
 -0.10130000000000000        -0.23814876377582550     
 -0.10020000000000000          9.9519081413745880E-002
  -9.9099999999999994E-002    0.64215189218521118     
  -9.7999999999999990E-002    0.48085302114486694     
  -9.6899999999999986E-002   -0.75436162948608398     
  -9.5799999999999996E-002    -1.7146496772766113     
  -9.4699999999999993E-002   -0.53987240791320801     
  -9.3599999999999989E-002     2.2048351764678955     
  -9.2499999999999999E-002     3.1297512054443359     
  -9.1399999999999995E-002    0.16143970191478729     
  -9.0299999999999991E-002    -3.7380154132843018     
  -8.9200000000000002E-002    -3.5615129470825195     
  -8.8099999999999984E-002    0.69838052988052368     
  -8.6999999999999994E-002     3.1295855045318604     
  -8.5899999999999990E-002    0.10511718690395355     
  -8.4799999999999986E-002    -3.4864997863769531     
  -8.3699999999999997E-002   -0.35999420285224915     
  -8.2599999999999993E-002     8.1393709182739258     
  -8.1499999999999989E-002     12.548518180847168     
  -8.0399999999999999E-002     7.5227756500244141     
  -7.9299999999999995E-002    -2.6574995517730713     
  -7.8199999999999992E-002    -13.889286041259766     
  -7.7100000000000002E-002    -30.320749282836914     
  -7.5999999999999984E-002    -54.776649475097656     
  -7.4899999999999994E-002    -76.583023071289062     
  -7.3799999999999991E-002    -82.240898132324219     
  -7.2699999999999987E-002    -78.813934326171875     
  -7.1599999999999997E-002    -90.737312316894531     
  -7.0499999999999993E-002    -124.41447448730469     
  -6.9399999999999989E-002    -151.14477539062500     
  -6.8300000000000000E-002    -144.70632934570312     
  -6.7199999999999996E-002    -128.63708496093750     
  -6.6099999999999992E-002    -159.08099365234375     
  -6.5000000000000002E-002    -253.79470825195312     
  -6.3899999999999985E-002    -364.11013793945312     
  -6.2799999999999995E-002    -437.35855102539062     
  -6.1699999999999991E-002    -488.05508422851562     
  -6.0599999999999994E-002    -577.26110839843750     
  -5.9499999999999990E-002    -730.38531494140625     
  -5.8399999999999994E-002    -913.74975585937500     
  -5.7299999999999990E-002    -1098.9613037109375     
  -5.6199999999999986E-002    -1308.0648193359375     
  -5.5099999999999996E-002    -1568.2761230468750     
  -5.3999999999999992E-002    -1860.4656982421875     
  -5.2899999999999989E-002    -2163.7106933593750     
  -5.1799999999999985E-002    -2531.1071777343750     
  -5.0699999999999995E-002    -3049.9279785156250     
  -4.9599999999999991E-002    -3711.1840820312500     
  -4.8499999999999988E-002    -4391.8974609375000     
  -4.7399999999999998E-002    -5023.6225585937500     
  -4.6299999999999994E-002    -5728.2490234375000     
  -4.5199999999999990E-002    -6699.0522460937500     
  -4.4099999999999986E-002    -7957.6606445312500     
  -4.2999999999999997E-002    -9326.4091796875000     
  -4.1899999999999993E-002    -10674.130859375000     
  -4.0799999999999989E-002    -12101.059570312500     
  -3.9699999999999985E-002    -13805.489257812500     
  -3.8599999999999995E-002    -15834.026367187500     
  -3.7499999999999992E-002    -18076.287109375000     
  -3.6399999999999988E-002    -20479.847656250000     
  -3.5299999999999984E-002    -23127.404296875000     
  -3.4199999999999994E-002    -26063.886718750000     
  -3.3099999999999991E-002    -29188.621093750000     
  -3.1999999999999987E-002    -32436.652343750000     
  -3.0899999999999997E-002    -35966.574218750000     
  -2.9799999999999993E-002    -39987.347656250000     
  -2.8699999999999989E-002    -44405.527343750000     
  -2.7599999999999986E-002    -48855.488281250000     
  -2.6499999999999996E-002    -53151.789062500000     
  -2.5399999999999992E-002    -57559.929687500000     
  -2.4299999999999988E-002    -62425.808593750000     
  -2.3199999999999985E-002    -67668.187500000000     
  -2.2099999999999995E-002    -72821.593750000000     
  -2.0999999999999991E-002    -77607.242187500000     
  -1.9899999999999987E-002    -82180.304687500000     
  -1.8799999999999983E-002    -86741.765625000000     
  -1.7699999999999994E-002    -91127.265625000000     
  -1.6599999999999990E-002    -94984.406250000000     
  -1.5499999999999986E-002    -98239.945312500000     
  -1.4399999999999996E-002    -101023.94531250000     
  -1.3299999999999992E-002    -103189.82812500000     
  -1.2199999999999989E-002    -104205.37500000000     
  -1.1099999999999985E-002    -103758.43750000000     
  -9.9999999999999950E-003    -102110.57812500000     
  -8.8999999999999913E-003    -99629.273437500000     
  -7.7999999999999875E-003    -96018.367187500000     
  -6.6999999999999837E-003    -90458.632812500000     
  -5.5999999999999939E-003    -82549.609375000000     
  -4.4999999999999901E-003    -72684.304687500000     
  -3.3999999999999864E-003    -61360.082031250000     
  -2.2999999999999826E-003    -48366.921875000000     
  -1.1999999999999927E-003    -33063.296875000000     
  -9.9999999999988987E-005    -15303.343750000000     
   1.0000000000000148E-003     4432.4208984375000     
   2.1000000000000185E-003     25880.570312500000     
   3.2000000000000084E-003     49369.425781250000     
   4.3000000000000121E-003     75128.523437500000     
   5.4000000000000159E-003     102562.78125000000     
   6.5000000000000058E-003     130809.71875000000     
   7.6000000000000234E-003     159778.25000000000     
   8.7000000000000133E-003     190108.50000000000     
   9.8000000000000032E-003     221786.82812500000     
   1.0900000000000021E-002     253618.90625000000     
   1.2000000000000011E-002     284322.96875000000     
   1.3100000000000001E-002     313767.12500000000     
   1.4200000000000018E-002     342511.53125000000     
   1.5300000000000008E-002     370309.15625000000     
   1.6400000000000026E-002     395851.84375000000     
   1.7500000000000016E-002     418071.93750000000     
   1.8600000000000005E-002     437033.40625000000     
   1.9700000000000023E-002     452962.46875000000     
   2.0800000000000013E-002     465037.50000000000     
   2.1900000000000003E-002     471992.90625000000     
   2.3000000000000020E-002     473606.18750000000     
   2.4100000000000010E-002     470624.43750000000     
   2.5200000000000000E-002     463245.81250000000     
   2.6300000000000018E-002     450302.78125000000     
   2.7400000000000008E-002     430637.12500000000     
   2.8500000000000025E-002     404749.25000000000     
   2.9600000000000015E-002     374136.34375000000     
   3.0700000000000005E-002     339264.37500000000     
   3.1800000000000023E-002     299189.50000000000     
   3.2900000000000013E-002     253389.84375000000     
   3.4000000000000002E-002     203056.28125000000     
   3.5100000000000020E-002     149857.26562500000     
   3.6200000000000010E-002     94169.398437500000     
   3.7300000000000028E-002     35444.996093750000     
   3.8400000000000017E-002    -25805.378906250000     
   3.9500000000000007E-002    -87584.421875000000     
   4.0600000000000025E-002    -148355.01562500000     
   4.1700000000000015E-002    -208306.59375000000     
   4.2800000000000005E-002    -267952.53125000000     
   4.3900000000000022E-002    -326061.25000000000     
   4.5000000000000012E-002    -380257.28125000000     
   4.6100000000000002E-002    -429396.37500000000     
   4.7200000000000020E-002    -474235.56250000000     
   4.8300000000000010E-002    -515301.34375000000     
   4.9400000000000027E-002    -551146.00000000000     
   5.0500000000000017E-002    -579922.87500000000     
   5.1600000000000007E-002    -601446.50000000000     
   5.2700000000000025E-002    -617028.12500000000     
   5.3800000000000014E-002    -626997.25000000000     
   5.4900000000000004E-002    -629892.25000000000     
   5.6000000000000022E-002    -624661.68750000000     
   5.7100000000000012E-002    -612459.81250000000     
   5.8200000000000002E-002    -595324.62500000000     
   5.9300000000000019E-002    -573420.00000000000     
   6.0400000000000009E-002    -545209.68750000000     
   6.1500000000000027E-002    -510475.68750000000     
   6.2600000000000017E-002    -471321.34375000000     
   6.3700000000000007E-002    -429935.00000000000     
   6.4800000000000024E-002    -386200.56250000000     
   6.5900000000000014E-002    -338986.68750000000     
   6.7000000000000004E-002    -288933.46875000000     
   6.8100000000000022E-002    -238500.37500000000     
   6.9200000000000012E-002    -189102.93750000000     
   7.0300000000000029E-002    -139924.34375000000     
   7.1400000000000019E-002    -90200.351562500000     
   7.2500000000000009E-002    -41460.355468750000     
   7.3600000000000027E-002     3790.0363769531250     
   7.4700000000000016E-002     45181.929687500000     
   7.5800000000000006E-002     84420.250000000000     
   7.6900000000000024E-002     122234.04687500000     
   7.8000000000000014E-002     156731.48437500000     
   7.9100000000000004E-002     185791.78125000000     
   8.0200000000000021E-002     209903.89062500000     
   8.1300000000000011E-002     231148.64062500000     
   8.2400000000000029E-002     249956.93750000000     
   8.3500000000000019E-002     264553.40625000000     
   8.4600000000000009E-002     273892.75000000000     
   8.5700000000000026E-002     279433.37500000000     
   8.6800000000000016E-002     283029.78125000000     
   8.7900000000000006E-002     284240.56250000000     
   8.9000000000000024E-002     281301.40625000000     
   9.0100000000000013E-002     274320.15625000000     
   9.1200000000000003E-002     265712.15625000000     
   9.2300000000000021E-002     257015.43750000000     
   9.3400000000000011E-002     246920.31250000000     
   9.4500000000000028E-002     233620.56250000000     
   9.5600000000000018E-002     217938.54687500000     
   9.6700000000000008E-002     202517.14062500000     
   9.7800000000000026E-002     188305.20312500000     
   9.8900000000000016E-002     173632.67187500000     
  0.10000000000000001          157174.95312500000     
  0.10110000000000002          140279.31250000000     
  0.10220000000000001          125074.92968750000     
  0.10330000000000003          111387.89062500000     
  0.10440000000000002          97296.085937500000     
  0.10550000000000001          82412.531250000000     
  0.10660000000000003          68721.195312500000     
  0.10770000000000002          57673.167968750000     
  0.10880000000000001          47958.703125000000     
  0.10990000000000003          37494.304687500000     
  0.11100000000000002          26624.492187500000     
  0.11210000000000001          17677.384765625000     
  0.11320000000000002          11463.540039062500     
  0.11430000000000001          6075.8305664062500     
  0.11540000000000003         -260.70361328125000     
  0.11650000000000002         -6590.5615234375000     
  0.11760000000000001         -10844.521484375000     
  0.11870000000000003         -13083.766601562500     
  0.11980000000000002         -15433.197265625000     
  0.12090000000000001         -18810.363281250000     
  0.12200000000000003         -21613.414062500000     
  0.12310000000000001         -22286.675781250000     
  0.12420000000000003         -21853.580078125000     
  0.12530000000000002         -22430.107421875000     
  0.12640000000000001         -24066.175781250000     
  0.12750000000000003         -24718.525390625000     
  0.12860000000000002         -23437.851562500000     
  0.12970000000000001         -21859.789062500000     
  0.13080000000000003         -21737.892578125000     
  0.13190000000000002         -22345.035156250000     
  0.13300000000000001         -21685.691406250000     
  0.13410000000000000         -19620.171875000000     
  0.13520000000000004         -18074.441406250000     
  0.13630000000000003         -18083.634765625000     
  0.13740000000000002         -18215.058593750000     
  0.13850000000000001         -16812.695312500000     
  0.13960000000000000         -14564.196289062500     
  0.14070000000000005         -13472.375000000000     
  0.14180000000000004         -13818.953125000000     
  0.14290000000000003         -13765.105468750000     
  0.14400000000000002         -12165.901367187500     
  0.14510000000000001         -10260.001953125000     
  0.14620000000000000         -9733.3564453125000     
  0.14730000000000004         -10184.562500000000     
  0.14840000000000003         -9827.4541015625000     
  0.14950000000000002         -8270.0019531250000     
  0.15060000000000001         -7055.5307617187500     
  0.15170000000000000         -7216.3920898437500     
  0.15280000000000005         -7675.5336914062500     
  0.15390000000000004         -6935.6508789062500     
  0.15500000000000003         -5405.0190429687500     
  0.15610000000000002         -4782.5883789062500     
  0.15720000000000001         -5450.3393554687500     
  0.15830000000000000         -5889.9360351562500     
  0.15940000000000004         -4975.4809570312500     
  0.16050000000000003         -3643.2070312500000     
  0.16160000000000002         -3435.4018554687500     
  0.16270000000000001         -4195.8549804687500     
  0.16380000000000000         -4389.7348632812500     
  0.16490000000000005         -3452.0834960937500     
  0.16600000000000004         -2568.8098144531250     
  0.16710000000000003         -2787.2312011718750     
  0.16820000000000002         -3433.2485351562500     
  0.16930000000000001         -3218.3242187500000     
  0.17040000000000000         -2239.8769531250000     
  0.17150000000000004         -1796.9112548828125     
  0.17260000000000003         -2367.6765136718750     
  0.17370000000000002         -2885.6115722656250     
  0.17480000000000001         -2383.6613769531250     
  0.17590000000000000         -1452.8870849609375     
  0.17700000000000005         -1319.8261718750000     
  0.17810000000000004         -1995.2926025390625     
  0.17920000000000003         -2307.2089843750000     
  0.18030000000000002         -1692.2448730468750     
  0.18140000000000001         -997.76568603515625     
  0.18250000000000000         -1143.6860351562500     
  0.18360000000000004         -1751.8726806640625     
  0.18470000000000003         -1785.0705566406250     
  0.18580000000000002         -1134.0073242187500     
  0.18690000000000001         -731.49707031250000     
  0.18800000000000000         -1099.1835937500000     
  0.18910000000000005         -1582.0786132812500     
  0.19020000000000004         -1386.1707763671875     
  0.19130000000000003         -774.81982421875000     
  0.19240000000000002         -622.42517089843750     
  0.19350000000000001         -1078.2744140625000     
  0.19460000000000005         -1381.4877929687500     
  0.19570000000000004         -1041.6713867187500     
  0.19680000000000003         -551.05224609375000     
  0.19790000000000002         -599.28839111328125     
  0.19900000000000001         -1040.3170166015625     
  0.20010000000000000         -1155.3137207031250     
  0.20120000000000005         -748.65478515625000     
  0.20230000000000004         -401.86685180664062     
  0.20340000000000003         -570.93847656250000     
  0.20450000000000002         -926.64245605468750     
  0.20560000000000000         -896.32977294921875     
  0.20670000000000005         -519.20068359375000     
  0.20780000000000004         -339.30966186523438     
  0.20890000000000003         -567.40698242187500     
