 -0.12000000000000000          0.0000000000000000     
 -0.11889999999999999          0.0000000000000000     
 -0.11780000000000000         -1.2008120195806033E-033
 -0.11670000000000000         -1.3550497612868639E-008
 -0.11559999999999999          4.5017500838184787E-008
 -0.11449999999999999          5.3513254272274935E-008
 -0.11340000000000000         -3.1081916063158133E-007
 -0.11230000000000000         -2.7573020133786486E-007
 -0.11119999999999999          1.2863785059380461E-006
 -0.11009999999999999          1.6800780713310814E-006
 -0.10900000000000000         -3.4199515539512504E-006
 -0.10790000000000000         -7.7485456131398678E-006
 -0.10679999999999999          3.7166257698117988E-006
 -0.10569999999999999          2.3921145839267410E-005
 -0.10460000000000000          1.2480370060075074E-005
 -0.10349999999999999         -4.3498261220520362E-005
 -0.10239999999999999         -6.9086650910321623E-005
 -0.10130000000000000          1.9003760826308280E-005
 -0.10020000000000000          1.4771895075682551E-004
  -9.9099999999999994E-002     1.1354999151080847E-004
  -9.7999999999999990E-002    -1.2561280163936317E-004
  -9.6899999999999986E-002    -2.8829948860220611E-004
  -9.5799999999999996E-002    -9.6642841526772827E-005
  -9.4699999999999993E-002     2.6992161292582750E-004
  -9.3599999999999989E-002     3.2502619433216751E-004
  -9.2499999999999999E-002    -3.3385316783096641E-005
  -9.1399999999999995E-002    -2.9695479315705597E-004
  -9.0299999999999991E-002    -6.8481771450024098E-005
  -8.9200000000000002E-002     2.7522793971002102E-004
  -8.8099999999999984E-002     1.0228421160718426E-004
  -8.6999999999999994E-002    -4.3246138375252485E-004
  -8.5899999999999990E-002    -4.9852195661514997E-004
  -8.4799999999999986E-002     1.3584441330749542E-004
  -8.3699999999999997E-002     6.4473360544070601E-004
  -8.2599999999999993E-002     3.9465236477553844E-004
  -8.1499999999999989E-002    -3.3396419894415885E-005
  -8.0399999999999999E-002     1.0606810246827081E-004
  -7.9299999999999995E-002     1.7762370407581329E-004
  -7.8199999999999992E-002    -1.0205870494246483E-003
  -7.7100000000000002E-002    -2.9080111999064684E-003
  -7.5999999999999984E-002    -3.2130472827702761E-003
  -7.4899999999999994E-002    -1.2291317107155919E-003
  -7.3799999999999991E-002     5.3331337403506041E-004
  -7.2699999999999987E-002    -3.8437888724729419E-004
  -7.1599999999999997E-002    -2.4793876800686121E-003
  -7.0499999999999993E-002    -2.1056230179965496E-003
  -6.9399999999999989E-002     8.0686289584264159E-004
  -6.8300000000000000E-002     1.7622715095058084E-003
  -6.7199999999999996E-002    -2.1007882896810770E-003
  -6.6099999999999992E-002    -7.3479358106851578E-003
  -6.5000000000000002E-002    -8.6115458980202675E-003
  -6.3899999999999985E-002    -6.1161266639828682E-003
  -6.2799999999999995E-002    -5.1202494651079178E-003
  -6.1699999999999991E-002    -7.9793930053710938E-003
  -6.0599999999999994E-002    -1.1102708056569099E-002
  -5.9499999999999990E-002    -1.1529419571161270E-002
  -5.8399999999999994E-002    -1.2256748043000698E-002
  -5.7299999999999990E-002    -1.7035307362675667E-002
  -5.6199999999999986E-002    -2.2989755496382713E-002
  -5.5099999999999996E-002    -2.4436835199594498E-002
  -5.3999999999999992E-002    -2.3330198600888252E-002
  -5.2899999999999989E-002    -2.8543908149003983E-002
  -5.1799999999999985E-002    -4.2121797800064087E-002
  -5.0699999999999995E-002    -5.3258731961250305E-002
  -4.9599999999999991E-002    -5.2618905901908875E-002
  -4.8499999999999988E-002    -4.7960311174392700E-002
  -4.7399999999999998E-002    -5.6061562150716782E-002
  -4.6299999999999994E-002    -7.9328753054141998E-002
  -4.5199999999999990E-002   -0.10088127851486206     
  -4.4099999999999986E-002   -0.10734799504280090     
  -4.2999999999999997E-002   -0.10737713426351547     
  -4.1899999999999993E-002   -0.11876869946718216     
  -4.0799999999999989E-002   -0.14318954944610596     
  -3.9699999999999985E-002   -0.16607584059238434     
  -3.8599999999999995E-002   -0.18037120997905731     
  -3.7499999999999992E-002   -0.19594493508338928     
  -3.6399999999999988E-002   -0.22029322385787964     
  -3.5299999999999984E-002   -0.24408048391342163     
  -3.4199999999999994E-002   -0.25725096464157104     
  -3.3099999999999991E-002   -0.27053371071815491     
  -3.1999999999999987E-002   -0.30263936519622803     
  -3.0899999999999997E-002   -0.34753271937370300     
  -2.9799999999999993E-002   -0.37504938244819641     
  -2.8699999999999989E-002   -0.37281611561775208     
  -2.7599999999999986E-002   -0.36901596188545227     
  -2.6499999999999996E-002   -0.39621207118034363     
  -2.5399999999999992E-002   -0.44352212548255920     
  -2.4299999999999988E-002   -0.46842822432518005     
  -2.3199999999999985E-002   -0.45506837964057922     
  -2.2099999999999995E-002   -0.43463829159736633     
  -2.0999999999999991E-002   -0.43750885128974915     
  -1.9899999999999987E-002   -0.44959130883216858     
  -1.8799999999999983E-002   -0.43669396638870239     
  -1.7699999999999994E-002   -0.39814248681068420     
  -1.6599999999999990E-002   -0.36227861046791077     
  -1.5499999999999986E-002   -0.33468854427337646     
  -1.4399999999999996E-002   -0.28375992178916931     
  -1.3299999999999992E-002   -0.19311755895614624     
  -1.2199999999999989E-002    -9.4491794705390930E-002
  -1.1099999999999985E-002    -2.4976987391710281E-002
  -9.9999999999999950E-003     3.7540670484304428E-002
  -8.8999999999999913E-003    0.15042765438556671     
  -7.7999999999999875E-003    0.32206687331199646     
  -6.6999999999999837E-003    0.49213987588882446     
  -5.5999999999999939E-003    0.61857581138610840     
  -4.4999999999999901E-003    0.73348414897918701     
  -3.3999999999999864E-003    0.90154987573623657     
  -2.2999999999999826E-003     1.1146438121795654     
  -1.1999999999999927E-003     1.3112511634826660     
  -9.9999999999988987E-005     1.4648890495300293     
   1.0000000000000148E-003     1.6214802265167236     
   2.1000000000000185E-003     1.8215745687484741     
   3.2000000000000084E-003     2.0245652198791504     
   4.3000000000000121E-003     2.1702840328216553     
   5.4000000000000159E-003     2.2671353816986084     
   6.5000000000000058E-003     2.3885695934295654     
   7.6000000000000234E-003     2.5514841079711914     
   8.7000000000000133E-003     2.6737527847290039     
   9.8000000000000032E-003     2.6929697990417480     
   1.0900000000000021E-002     2.6531407833099365     
   1.2000000000000011E-002     2.6434955596923828     
   1.3100000000000001E-002     2.6559855937957764     
   1.4200000000000018E-002     2.5941815376281738     
   1.5300000000000008E-002     2.4222283363342285     
   1.6400000000000026E-002     2.2134759426116943     
   1.7500000000000016E-002     2.0326399803161621     
   1.8600000000000005E-002     1.8291717767715454     
   1.9700000000000023E-002     1.5189495086669922     
   2.0800000000000013E-002     1.1267250776290894     
   2.1900000000000003E-002    0.75605273246765137     
   2.3000000000000020E-002    0.43439862132072449     
   2.4100000000000010E-002     6.5593376755714417E-002
   2.5200000000000000E-002   -0.42833247780799866     
   2.6300000000000018E-002   -0.97160792350769043     
   2.7400000000000008E-002    -1.4303951263427734     
   2.8500000000000025E-002    -1.8041625022888184     
   2.9600000000000015E-002    -2.2178499698638916     
   3.0700000000000005E-002    -2.7260184288024902     
   3.1800000000000023E-002    -3.2226693630218506     
   3.2900000000000013E-002    -3.5932095050811768     
   3.4000000000000002E-002    -3.8790626525878906     
   3.5100000000000020E-002    -4.1973495483398438     
   3.6200000000000010E-002    -4.5443997383117676     
   3.7300000000000028E-002    -4.7890901565551758     
   3.8400000000000017E-002    -4.8756728172302246     
   3.9500000000000007E-002    -4.9128012657165527     
   4.0600000000000025E-002    -5.0040478706359863     
   4.1700000000000015E-002    -5.0687284469604492     
   4.2800000000000005E-002    -4.9627728462219238     
   4.3900000000000022E-002    -4.6941490173339844     
   4.5000000000000012E-002    -4.4216847419738770     
   4.6100000000000002E-002    -4.2218575477600098     
   4.7200000000000020E-002    -3.9699232578277588     
   4.8300000000000010E-002    -3.5436382293701172     
   4.9400000000000027E-002    -3.0105268955230713     
   5.0500000000000017E-002    -2.5294606685638428     
   5.1600000000000007E-002    -2.1264503002166748     
   5.2700000000000025E-002    -1.6531113386154175     
   5.3800000000000014E-002    -1.0395158529281616     
   5.4900000000000004E-002   -0.41386041045188904     
   5.6000000000000022E-002     7.6922081410884857E-002
   5.7100000000000012E-002    0.48485624790191650     
   5.8200000000000002E-002    0.98083585500717163     
   5.9300000000000019E-002     1.5761333703994751     
   6.0400000000000009E-002     2.0903906822204590     
   6.1500000000000027E-002     2.4147737026214600     
   6.2600000000000017E-002     2.6677780151367188     
   6.3700000000000007E-002     3.0106651782989502     
   6.4800000000000024E-002     3.3874096870422363     
   6.5900000000000014E-002     3.6176717281341553     
   6.7000000000000004E-002     3.6678643226623535     
   6.8100000000000022E-002     3.7062697410583496     
   6.9200000000000012E-002     3.8398158550262451     
   7.0300000000000029E-002     3.9367811679840088     
   7.1400000000000019E-002     3.8359110355377197     
   7.2500000000000009E-002     3.6025552749633789     
   7.3600000000000027E-002     3.4453663825988770     
   7.4700000000000016E-002     3.4028804302215576     
   7.5800000000000006E-002     3.2815442085266113     
   7.6900000000000024E-002     2.9527204036712646     
   7.8000000000000014E-002     2.5553715229034424     
   7.9100000000000004E-002     2.2981636524200439     
   8.0200000000000021E-002     2.1515221595764160     
   8.1300000000000011E-002     1.9064872264862061     
   8.2400000000000029E-002     1.5021899938583374     
   8.3500000000000019E-002     1.1209522485733032     
   8.4600000000000009E-002    0.90598952770233154     
   8.5700000000000026E-002    0.74578708410263062     
   8.6800000000000016E-002    0.45710420608520508     
   8.7900000000000006E-002     8.2534953951835632E-002
   8.9000000000000024E-002   -0.16618137061595917     
   9.0100000000000013E-002   -0.23668813705444336     
   9.1200000000000003E-002   -0.32563799619674683     
   9.2300000000000021E-002   -0.57703202962875366     
   9.3400000000000011E-002   -0.85662013292312622     
   9.4500000000000028E-002   -0.95016407966613770     
   9.5600000000000018E-002   -0.88785505294799805     
   9.6700000000000008E-002   -0.89996701478958130     
   9.7800000000000026E-002    -1.0683513879776001     
   9.8900000000000016E-002    -1.2079975605010986     
  0.10000000000000001         -1.1566596031188965     
  0.10110000000000002         -1.0239878892898560     
  0.10220000000000001         -1.0204297304153442     
  0.10330000000000003         -1.1279666423797607     
  0.10440000000000002         -1.1330544948577881     
  0.10550000000000001        -0.96338933706283569     
  0.10660000000000003        -0.80986821651458740     
  0.10770000000000002        -0.83419382572174072     
  0.10880000000000001        -0.91832131147384644     
  0.10990000000000003        -0.84380787611007690     
  0.11100000000000002        -0.62606900930404663     
  0.11210000000000001        -0.49468734860420227     
  0.11320000000000002        -0.54653441905975342     
  0.11430000000000001        -0.60373187065124512     
  0.11540000000000003        -0.48916900157928467     
  0.11650000000000002        -0.29531374573707581     
  0.11760000000000001        -0.23526275157928467     
  0.11870000000000003        -0.31494665145874023     
  0.11980000000000002        -0.32829916477203369     
  0.12090000000000001        -0.18110965192317963     
  0.12200000000000003         -3.9815019816160202E-002
  0.12310000000000001         -6.9257564842700958E-002
  0.12420000000000003        -0.17517413198947906     
  0.12530000000000002        -0.14710366725921631     
  0.12640000000000001          1.5900727361440659E-002
  0.12750000000000003         0.10240526497364044     
  0.12860000000000002          1.1604681611061096E-002
  0.12970000000000001         -9.2525765299797058E-002
  0.13080000000000003         -3.3033899962902069E-002
  0.13190000000000002         0.11286485940217972     
  0.13300000000000001         0.13544899225234985     
  0.13410000000000000          1.6138523817062378E-002
  0.13520000000000004         -4.9904927611351013E-002
  0.13630000000000003          4.4018015265464783E-002
  0.13740000000000002         0.15424372255802155     
  0.13850000000000001         0.11205143481492996     
  0.13960000000000000         -1.6121448948979378E-002
  0.14070000000000005         -3.3500205725431442E-002
  0.14180000000000004          8.4180884063243866E-002
  0.14290000000000003         0.15408504009246826     
  0.14400000000000002          6.9255411624908447E-002
  0.14510000000000001         -4.0860380977392197E-002
  0.14620000000000000         -1.2810741551220417E-002
  0.14730000000000004         0.10146240890026093     
  0.14840000000000003         0.12036983668804169     
  0.14950000000000002          1.4463740400969982E-002
  0.15060000000000001         -5.2890822291374207E-002
  0.15170000000000000          1.8571514636278152E-002
  0.15280000000000005         0.11242829263210297     
  0.15390000000000004          7.8405164182186127E-002
  0.15500000000000003         -3.4869145601987839E-002
  0.15610000000000002         -5.6255728006362915E-002
  0.15720000000000001          4.4339906424283981E-002
  0.15830000000000000         0.11120306700468063     
  0.15940000000000004          4.1910775005817413E-002
  0.16050000000000003         -5.9590507298707962E-002
  0.16160000000000002         -4.4094029814004898E-002
  0.16270000000000001          5.7760205119848251E-002
  0.16380000000000000          8.8873744010925293E-002
  0.16490000000000005          6.4585199579596519E-003
  0.16600000000000004         -6.0309052467346191E-002
  0.16710000000000003         -1.3537248596549034E-002
  0.16820000000000002          6.6997818648815155E-002
  0.16930000000000001          5.4469045251607895E-002
  0.17040000000000000         -2.9123321175575256E-002
  0.17150000000000004         -5.2555643022060394E-002
  0.17260000000000003          1.8864626064896584E-002
  0.17370000000000002          7.2421051561832428E-002
  0.17480000000000001          2.4656660854816437E-002
  0.17590000000000000         -5.1056757569313049E-002
  0.17700000000000005         -3.9904542267322540E-002
  0.17810000000000004          3.8691043853759766E-002
  0.17920000000000003          6.4515188336372375E-002
  0.18030000000000002          6.5001629991456866E-004
  0.18140000000000001         -5.4358717054128647E-002
  0.18250000000000000         -1.9916364923119545E-002
  0.18360000000000004          4.7098428010940552E-002
  0.18470000000000003          4.4977523386478424E-002
  0.18580000000000002         -1.8506953492760658E-002
  0.18690000000000001         -4.4584292918443680E-002
  0.18800000000000000          2.9385196976363659E-003
  0.18910000000000005          4.7137051820755005E-002
  0.19020000000000004          2.0593324676156044E-002
  0.19130000000000003         -3.3209349960088730E-002
  0.19240000000000002         -3.1350262463092804E-002
  0.19350000000000001          2.1067386493086815E-002
  0.19460000000000005          4.3120235204696655E-002
  0.19570000000000004          3.4556121099740267E-003
  0.19680000000000003         -3.5791330039501190E-002
  0.19790000000000002         -1.7328349873423576E-002
  0.19900000000000001          2.6728613302111626E-002
  0.20010000000000000          2.9262447729706764E-002
  0.20120000000000005         -9.5237800851464272E-003
  0.20230000000000004         -2.7950303629040718E-002
  0.20340000000000003         -2.6802156935445964E-004
  0.20450000000000002          2.7623536065220833E-002
  0.20560000000000000          1.2813818641006947E-002
  0.20670000000000005         -1.9651306793093681E-002
  0.20780000000000004         -1.8992288038134575E-002
  0.20890000000000003          1.2798701412975788E-002
