 -0.12000000000000000          0.0000000000000000     
 -0.11889999999999999          0.0000000000000000     
 -0.11780000000000000          0.0000000000000000     
 -0.11670000000000000          0.0000000000000000     
 -0.11559999999999999          0.0000000000000000     
 -0.11449999999999999          0.0000000000000000     
 -0.11340000000000000          0.0000000000000000     
 -0.11230000000000000          0.0000000000000000     
 -0.11119999999999999          0.0000000000000000     
 -0.11009999999999999          0.0000000000000000     
 -0.10900000000000000          0.0000000000000000     
 -0.10790000000000000          0.0000000000000000     
 -0.10679999999999999          0.0000000000000000     
 -0.10569999999999999          0.0000000000000000     
 -0.10460000000000000          0.0000000000000000     
 -0.10349999999999999          0.0000000000000000     
 -0.10239999999999999          0.0000000000000000     
 -0.10130000000000000          0.0000000000000000     
 -0.10020000000000000          2.8342021505256475E-036
  -9.9099999999999994E-002     6.7788443235502586E-036
  -9.7999999999999990E-002    -8.4711954474260070E-035
  -9.6899999999999986E-002     4.2733556009724361E-035
  -9.5799999999999996E-002     1.2920966864326389E-033
  -9.4699999999999993E-002    -1.8658695298999096E-033
  -9.3599999999999989E-002    -1.4617040092340858E-032
  -9.2499999999999999E-002     2.6410337042495187E-032
  -9.1399999999999995E-002     1.4171611781225295E-031
  -9.0299999999999991E-002    -2.4783739681578742E-031
  -8.9200000000000002E-002    -1.2419627259093078E-030
  -8.8099999999999984E-002     1.6919048177825935E-030
  -8.6999999999999994E-002     9.8784151715419409E-030
  -8.5899999999999990E-002    -7.7749287802935079E-030
  -8.4799999999999986E-002    -6.9982287685018093E-029
  -8.3699999999999997E-002     9.5240387955599978E-030
  -8.2599999999999993E-002     4.2975224853181086E-028
  -8.1499999999999989E-002     2.3952614977236627E-028
  -8.0399999999999999E-002    -2.2054715498742489E-027
  -7.9299999999999995E-002    -2.9925226587265200E-027
  -7.8199999999999992E-002     8.8312007670800300E-027
  -7.7100000000000002E-002     2.2313477668280525E-026
  -7.5999999999999984E-002    -2.2152255761519936E-026
  -7.4899999999999994E-002    -1.2298081434815884E-025
  -7.3799999999999991E-002    -1.8201803667032393E-026
  -7.2699999999999987E-002     5.1229381533293124E-025
  -7.1599999999999997E-002     5.8837244850096399E-025
  -7.0499999999999993E-002    -1.4773703216507929E-024
  -6.9399999999999989E-002    -3.8620109509028557E-024
  -6.8300000000000000E-002     1.5595713043042460E-024
  -6.7199999999999996E-002     1.6100999752080959E-023
  -6.6099999999999992E-002     1.2020876255063093E-023
  -6.5000000000000002E-002    -4.3632073372616932E-023
  -6.3899999999999985E-002    -9.0815043182461584E-023
  -6.2799999999999995E-002     4.3109512976336809E-023
  -6.1699999999999991E-002     3.4853192505920383E-022
  -6.0599999999999994E-002     2.6942134365613847E-022
  -5.9499999999999990E-002    -7.7452797152719365E-022
  -5.8399999999999994E-002    -1.7499690463607287E-021
  -5.7299999999999990E-002     2.1190866312186987E-022
  -5.6199999999999986E-002     5.3805493712321048E-021
  -5.5099999999999996E-002     5.9822376407463362E-021
  -5.3999999999999992E-002    -7.6795536926715453E-021
  -5.2899999999999989E-002    -2.5926066676482391E-020
  -5.1799999999999985E-002    -1.1894962221676241E-020
  -5.0699999999999995E-002     5.2921461396319906E-020
  -4.9599999999999991E-002     9.7650480769474877E-020
  -4.8499999999999988E-002    -7.8977799325756596E-021
  -4.7399999999999998E-002    -2.4958667964109115E-019
  -4.6299999999999994E-002    -3.0416069603610142E-019
  -4.5199999999999990E-002     1.8894760697378016E-019
  -4.4099999999999986E-002     9.4550580064901778E-019
  -4.2999999999999997E-002     8.2624264143718083E-019
  -4.1899999999999993E-002    -9.7188066127542420E-019
  -4.0799999999999989E-002    -3.0765535317837897E-018
  -3.9699999999999985E-002    -2.1365800184691031E-018
  -3.8599999999999995E-002     3.3748768400864985E-018
  -3.7499999999999992E-002     8.9660339982276563E-018
  -3.6399999999999988E-002     5.9891449769085433E-018
  -3.5299999999999984E-002    -8.7063993747401245E-018
  -3.4199999999999994E-002    -2.4041347722447382E-017
  -3.3099999999999991E-002    -1.9536995253793974E-017
  -3.1999999999999987E-002     1.4809118731294036E-017
  -3.0899999999999997E-002     5.9543458194106824E-017
  -2.9799999999999993E-002     6.8560434937539171E-017
  -2.8699999999999989E-002     9.8786137711964242E-019
  -2.7599999999999986E-002    -1.3087209606494656E-016
  -2.6499999999999996E-002    -2.2873952687034970E-016
  -2.5399999999999992E-002    -1.3812931553834379E-016
  -2.4299999999999988E-002     2.2048926714541520E-016
  -2.3199999999999985E-002     6.6607182255126675E-016
  -2.2099999999999995E-002     7.1338586537503029E-016
  -2.0999999999999991E-002    -9.7907201649254691E-017
  -1.9899999999999987E-002    -1.5679448062448035E-015
  -1.8799999999999983E-002    -2.4773058258898643E-015
  -1.7699999999999994E-002    -1.2327164825341004E-015
  -1.6599999999999990E-002     2.5023996004687465E-015
  -1.5499999999999986E-002     6.4758684254883486E-015
  -1.4399999999999996E-002     6.5471966464601596E-015
  -1.3299999999999992E-002    -1.7918689508100125E-016
  -1.2199999999999989E-002    -1.1728945688760286E-014
  -1.1099999999999985E-002    -2.0298145082071548E-014
  -9.9999999999999950E-003    -1.5856761704461514E-014
  -8.8999999999999913E-003     6.6656126995192581E-015
  -7.7999999999999875E-003     4.0176490471088497E-014
  -6.6999999999999837E-003     6.3114823697224542E-014
  -5.5999999999999939E-003     4.6887434256362437E-014
  -4.4999999999999901E-003    -2.5108687440951634E-014
  -3.3999999999999864E-003    -1.3319250216636824E-013
  -2.2999999999999826E-003    -2.0935338152731214E-013
  -1.1999999999999927E-003    -1.5928809649328607E-013
  -9.9999999999988987E-005     7.3979058014088384E-014
   1.0000000000000148E-003     4.3054240186045367E-013
   2.1000000000000185E-003     6.9675428621129853E-013
   3.2000000000000084E-003     5.7307863966446493E-013
   4.3000000000000121E-003    -1.3712933512235320E-013
   5.4000000000000159E-003    -1.2888875080066531E-012
   6.5000000000000058E-003    -2.2651815319296720E-012
   7.6000000000000234E-003    -2.1347472400901069E-012
   8.7000000000000133E-003    -1.7261756260489314E-013
   9.8000000000000032E-003     3.4184226629929704E-012
   1.0900000000000021E-002     7.0138742903902429E-012
   1.2000000000000011E-002     7.8323831795290566E-012
   1.3100000000000001E-002     3.2502817711582699E-012
   1.4200000000000018E-002    -7.1412810560833595E-012
   1.5300000000000008E-002    -1.9760817981939738E-011
   1.6400000000000026E-002    -2.6973236144645085E-011
   1.7500000000000016E-002    -1.9835473541451876E-011
   1.8600000000000005E-002     6.5072136047616969E-012
   1.9700000000000023E-002     4.6813244253263164E-011
   2.0800000000000013E-002     8.2802605050336098E-011
   2.1900000000000003E-002     8.7122191405608618E-011
   2.3000000000000020E-002     3.5767284967125335E-011
   2.4100000000000010E-002    -7.4121868365306653E-011
   2.5200000000000000E-002    -2.0938432931938422E-010
   2.6300000000000018E-002    -2.9995533834537014E-010
   2.7400000000000008E-002    -2.6041857559278014E-010
   2.8500000000000025E-002    -3.3321383846596220E-011
   2.9600000000000015E-002     3.5981534418638716E-010
   3.0700000000000005E-002     7.8579909246201396E-010
   3.1800000000000023E-002     1.0142012785152588E-009
   3.2900000000000013E-002     7.9534256958169181E-010
   3.4000000000000002E-002    -9.5642079325775065E-012
   3.5100000000000020E-002    -1.2920515768399810E-009
   3.6200000000000010E-002    -2.6248292428476816E-009
   3.7300000000000028E-002    -3.3239728747247455E-009
   3.8400000000000017E-002    -2.6747657422276916E-009
   3.9500000000000007E-002    -2.8053537270977813E-010
   4.0600000000000025E-002     3.5849154755851487E-009
   4.1700000000000015E-002     7.7920283558796655E-009
   4.2800000000000005E-002     1.0496926883263313E-008
   4.3900000000000022E-002     9.6779322333873097E-009
   4.5000000000000012E-002     3.9786756111936938E-009
   4.6100000000000002E-002    -6.4023479851016418E-009
   4.7200000000000020E-002    -1.9148906460486614E-008
   4.8300000000000010E-002    -2.9948786561817542E-008
   4.9400000000000027E-002    -3.3484468531241873E-008
   5.0500000000000017E-002    -2.5175406648259013E-008
   5.1600000000000007E-002    -3.2190721199754080E-009
   5.2700000000000025E-002     2.9761702435848747E-008
   5.3800000000000014E-002     6.6182373359424673E-008
   5.4900000000000004E-002     9.4548028073404566E-008
   5.6000000000000022E-002     1.0210870726723442E-007
   5.7100000000000012E-002     7.8592634622509649E-008
   5.8200000000000002E-002     2.0049169435765180E-008
   5.9300000000000019E-002    -6.8344618853188877E-008
   6.0400000000000009E-002    -1.7149365305613173E-007
   6.1500000000000027E-002    -2.6610314307617955E-007
   6.2600000000000017E-002    -3.2472087241330883E-007
   6.3700000000000007E-002    -3.2125649340741802E-007
   6.4800000000000024E-002    -2.3668428639211925E-007
   6.5900000000000014E-002    -6.3550871232109785E-008
   6.7000000000000004E-002     1.9183653421350755E-007
   6.8100000000000022E-002     5.1016280622206978E-007
   6.9200000000000012E-002     8.6279874267347623E-007
   7.0300000000000029E-002     1.2178882116131717E-006
   7.1400000000000019E-002     1.5478165096283192E-006
   7.2500000000000009E-002     1.8367110214967397E-006
   7.3600000000000027E-002     2.0864395082753617E-006
   7.4700000000000016E-002     2.3197471819003113E-006
   7.5800000000000006E-002     2.5795004603423877E-006
   7.6900000000000024E-002     2.9238740353321191E-006
   7.8000000000000014E-002     3.4183713069069199E-006
   7.9100000000000004E-002     4.1266521293437108E-006
   8.0200000000000021E-002     5.1027182053076103E-006
   8.1300000000000011E-002     6.3869833866192494E-006
   8.2400000000000029E-002     8.0078361861524172E-006
   8.3500000000000019E-002     9.9889275588793680E-006
   8.4600000000000009E-002     1.2360361324681435E-005
   8.5700000000000026E-002     1.5170417100307532E-005
   8.6800000000000016E-002     1.8494925825507380E-005
   8.7900000000000006E-002     2.2440177417593077E-005
   8.9000000000000024E-002     2.7139216399518773E-005
   9.0100000000000013E-002     3.2744017516961321E-005
   9.1200000000000003E-002     3.9416445360984653E-005
   9.2300000000000021E-002     4.7323981561930850E-005
   9.3400000000000011E-002     5.6640703405719250E-005
   9.4500000000000028E-002     6.7555811256170273E-005
   9.5600000000000018E-002     8.0286466982215643E-005
   9.6700000000000008E-002     9.5087976660579443E-005
   9.7800000000000026E-002     1.1225791968172416E-004
   9.8900000000000016E-002     1.3213530473876745E-004
  0.10000000000000001          1.5509019431192428E-004
  0.10110000000000002          1.8150905088987201E-004
  0.10220000000000001          2.1178559109102935E-004
  0.10330000000000003          2.4631622363813221E-004
  0.10440000000000002          2.8550045681186020E-004
  0.10550000000000001          3.2975792419165373E-004
  0.10660000000000003          3.7952812272123992E-004
  0.10770000000000002          4.3526891386136413E-004
  0.10880000000000001          4.9746024888008833E-004
  0.10990000000000003          5.6657003005966544E-004
  0.11100000000000002          6.4303301041945815E-004
  0.11210000000000001          7.2723859921097755E-004
  0.11320000000000002          8.1949483137577772E-004
  0.11430000000000001          9.2000764561817050E-004
  0.11540000000000003          1.0289021302014589E-003
  0.11650000000000002          1.1462068650871515E-003
  0.11760000000000001          1.2718304060399532E-003
  0.11870000000000003          1.4055116334930062E-003
  0.11980000000000002          1.5468447236344218E-003
  0.12090000000000001          1.6952109290286899E-003
  0.12200000000000003          1.8497039563953876E-003
  0.12310000000000001          2.0091631449759007E-003
  0.12420000000000003          2.1721364464610815E-003
  0.12530000000000002          2.3369158152490854E-003
  0.12640000000000001          2.5015131104737520E-003
  0.12750000000000003          2.6636132970452309E-003
  0.12860000000000002          2.8205753769725561E-003
  0.12970000000000001          2.9694002587348223E-003
  0.13080000000000003          3.1067903619259596E-003
  0.13190000000000002          3.2292755786329508E-003
  0.13300000000000001          3.3328749705106020E-003
  0.13410000000000000          3.4133775625377893E-003
  0.13520000000000004          3.4664943814277649E-003
  0.13630000000000003          3.4875231795012951E-003
  0.13740000000000002          3.4721300471574068E-003
  0.13850000000000001          3.4158835187554359E-003
  0.13960000000000000          3.3141076564788818E-003
  0.14070000000000005          3.1627456191927195E-003
  0.14180000000000004          2.9575496446341276E-003
  0.14290000000000003          2.6945986319333315E-003
  0.14400000000000002          2.3706895299255848E-003
  0.14510000000000001          1.9835596904158592E-003
  0.14620000000000000          1.5317489160224795E-003
  0.14730000000000004          1.0139402002096176E-003
  0.14840000000000003          4.3013659887947142E-004
  0.14950000000000002         -2.1823082352057099E-004
  0.15060000000000001         -9.2882046010345221E-004
  0.15170000000000000         -1.6985239926725626E-003
  0.15280000000000005         -2.5225044228136539E-003
  0.15390000000000004         -3.3945492468774319E-003
  0.15500000000000003         -4.3069892562925816E-003
  0.15610000000000002         -5.2509657107293606E-003
  0.15720000000000001         -6.2167532742023468E-003
  0.15830000000000000         -7.1930335834622383E-003
  0.15940000000000004         -8.1669874489307404E-003
  0.16050000000000003         -9.1252438724040985E-003
  0.16160000000000002         -1.0054247453808784E-002
  0.16270000000000001         -1.0938993655145168E-002
  0.16380000000000000         -1.1763991788029671E-002
  0.16490000000000005         -1.2514793314039707E-002
  0.16600000000000004         -1.3176733627915382E-002
  0.16710000000000003         -1.3734822161495686E-002
  0.16820000000000002         -1.4175360091030598E-002
  0.16930000000000001         -1.4485436491668224E-002
  0.17040000000000000         -1.4653477817773819E-002
  0.17150000000000004         -1.4670495875179768E-002
  0.17260000000000003         -1.4529206790030003E-002
  0.17370000000000002         -1.4223676174879074E-002
  0.17480000000000001         -1.3750504702329636E-002
  0.17590000000000000         -1.3108559884130955E-002
  0.17700000000000005         -1.2299350462853909E-002
  0.17810000000000004         -1.1327729560434818E-002
  0.17920000000000003         -1.0201367549598217E-002
  0.18030000000000002         -8.9303851127624512E-003
  0.18140000000000001         -7.5270403176546097E-003
  0.18250000000000000         -6.0057830996811390E-003
  0.18360000000000004         -4.3836673721671104E-003
  0.18470000000000003         -2.6802518405020237E-003
  0.18580000000000002         -9.1699277982115746E-004
  0.18690000000000001          8.8407506700605154E-004
  0.18800000000000000          2.7002468705177307E-003
  0.18910000000000005          4.5081730931997299E-003
  0.19020000000000004          6.2843719497323036E-003
  0.19130000000000003          8.0047631636261940E-003
  0.19240000000000002          9.6460515633225441E-003
  0.19350000000000001          1.1186189949512482E-002
  0.19460000000000005          1.2605576775968075E-002
  0.19570000000000004          1.3886654749512672E-002
  0.19680000000000003          1.5012160874903202E-002
  0.19790000000000002          1.5968469902873039E-002
  0.19900000000000001          1.6744870692491531E-002
  0.20010000000000000          1.7333131283521652E-002
  0.20120000000000005          1.7728567123413086E-002
  0.20230000000000004          1.7929175868630409E-002
  0.20340000000000003          1.7935767769813538E-002
  0.20450000000000002          1.7752349376678467E-002
  0.20560000000000000          1.7384804785251617E-002
  0.20670000000000005          1.6842130571603775E-002
  0.20780000000000004          1.6137678176164627E-002
  0.20890000000000003          1.5285667032003403E-002
