 -0.12000000000000000          0.0000000000000000
 -0.11889999999999999          0.0000000000000000
 -0.11780000000000000          0.0000000000000000
 -0.11670000000000000          1.2546758770826116E-011
 -0.11559999999999999          1.3697731317263706E-011
 -0.11449999999999999         -3.8519867850972389E-011
 -0.11340000000000000         -6.0436995685808625E-011
 -0.11230000000000000          8.1728110390422160E-011
 -0.11119999999999999          2.1664800509135773E-010
 -0.11009999999999999         -3.4040520402456309E-011
 -0.10900000000000000         -4.8208020908546700E-010
 -0.10790000000000000         -2.7206739638963029E-010
 -0.10679999999999999          7.1667333179092907E-010
 -0.10569999999999999          1.0246075099473728E-009
 -0.10460000000000000         -4.2161327207246302E-010
 -0.10349999999999999         -1.8818469005310590E-009
 -0.10239999999999999         -6.0493343667644695E-010
 -0.10130000000000000          2.4258637321139531E-009
 -0.10020000000000000          2.5024646799209904E-009
  -9.9099999999999994E-002    -1.8537349433245254E-009
  -9.7999999999999990E-002    -4.8300936583700604E-009
  -9.6899999999999986E-002    -6.5601296617145977E-010
  -9.5799999999999996E-002     6.4044045622324575E-009
  -9.4699999999999993E-002     5.8165876559712615E-009
  -9.3599999999999989E-002    -3.7803609131970006E-009
  -9.2499999999999999E-002    -9.8755217337043177E-009
  -9.1399999999999995E-002    -2.5646735846152069E-009
  -9.0299999999999991E-002     9.5434895541757214E-009
  -8.9200000000000002E-002     9.3253706978657647E-009
  -8.8099999999999984E-002    -4.2171088843190319E-009
  -8.6999999999999994E-002    -1.2694439277538550E-008
  -8.5899999999999990E-002    -3.9121101913508483E-009
  -8.4799999999999986E-002     9.9854222668227521E-009
  -8.3699999999999997E-002     9.7386685382616633E-009
  -8.2599999999999993E-002    -2.9505253795747421E-009
  -8.1499999999999989E-002    -8.7989979746794234E-009
  -8.0399999999999999E-002    -8.1144507779740138E-010
  -7.9299999999999995E-002     5.8461280261212778E-009
  -7.8199999999999992E-002    -3.1210903306266857E-010
  -7.7100000000000002E-002    -7.3377419695930257E-009
  -7.5999999999999984E-002     3.1674864554159798E-012
  -7.4899999999999994E-002     1.1607330208107669E-008
  -7.3799999999999991E-002     4.7740180697530832E-009
  -7.2699999999999987E-002    -1.6707955907691030E-008
  -7.1599999999999997E-002    -2.0919548759934514E-008
  -7.0499999999999993E-002     5.0187098921128381E-009
  -6.9399999999999989E-002     2.8316048172882802E-008
  -6.8300000000000000E-002     1.2550323447158007E-008
  -6.7199999999999996E-002    -2.6888070436825728E-008
  -6.6099999999999992E-002    -3.8678408031955769E-008
  -6.5000000000000002E-002    -6.8551369025726672E-009
  -6.3899999999999985E-002     2.4601028769666300E-008
  -6.2799999999999995E-002     1.2652989767047984E-008
  -6.1699999999999991E-002    -2.5253639179823040E-008
  -6.0599999999999994E-002    -3.9294992149052632E-008
  -5.9499999999999990E-002    -1.9398857631358624E-008
  -5.8399999999999994E-002    -3.7799625651757651E-009
  -5.7299999999999990E-002    -1.5911945538960026E-008
  -5.6199999999999986E-002    -3.1371094166843250E-008
  -5.5099999999999996E-002    -2.4942425014273795E-008
  -5.3999999999999992E-002    -1.7670023666482848E-008
  -5.2899999999999989E-002    -4.2288789359190559E-008
  -5.1799999999999985E-002    -8.0368245392037352E-008
  -5.0699999999999995E-002    -7.9865834834436100E-008
  -4.9599999999999991E-002    -3.7826531240625627E-008
  -4.8499999999999988E-002    -1.9334242651325440E-008
  -4.7399999999999998E-002    -6.9026619087253493E-008
  -4.6299999999999994E-002    -1.3945614796284644E-007
  -4.5199999999999990E-002    -1.5010529352821322E-007
  -4.4099999999999986E-002    -1.0022376528695531E-007
  -4.2999999999999997E-002    -7.1628960540692788E-008
  -4.1899999999999993E-002    -1.1481756700959522E-007
  -4.0799999999999989E-002    -1.8240602628338820E-007
  -3.9699999999999985E-002    -2.0380555554311286E-007
  -3.8599999999999995E-002    -1.8461716422280006E-007
  -3.7499999999999992E-002    -1.8539435586717445E-007
  -3.6399999999999988E-002    -2.2213960448880243E-007
  -3.5299999999999984E-002    -2.4808218768157531E-007
  -3.4199999999999994E-002    -2.3942277493915753E-007
  -3.3099999999999991E-002    -2.4102789097923960E-007
  -3.1999999999999987E-002    -2.9296072057150013E-007
  -3.0899999999999997E-002    -3.5235132145317039E-007
  -2.9799999999999993E-002    -3.4702009088505292E-007
  -2.8699999999999989E-002    -2.9066583806525159E-007
  -2.7599999999999986E-002    -2.7511410394254199E-007
  -2.6499999999999996E-002    -3.4223225497953536E-007
  -2.5399999999999992E-002    -4.1563438912817219E-007
  -2.4299999999999988E-002    -4.0557796410212177E-007
  -2.3199999999999985E-002    -3.3558626455487683E-007
  -2.2099999999999995E-002    -3.0267491979429906E-007
  -2.0999999999999991E-002    -3.3746187000360806E-007
  -1.9899999999999987E-002    -3.6665525726675696E-007
  -1.8799999999999983E-002    -3.3259490805903624E-007
  -1.7699999999999994E-002    -2.7417283376962587E-007
  -1.6599999999999990E-002    -2.5789211122173583E-007
  -1.5499999999999986E-002    -2.6231694505440828E-007
  -1.4399999999999996E-002    -2.1656516935308900E-007
  -1.3299999999999992E-002    -1.2116021252950304E-007
  -1.2199999999999989E-002    -5.4208491917506763E-008
  -1.1099999999999985E-002    -5.2535167327505405E-008
  -9.9999999999999950E-003    -4.6219497562560719E-008
  -8.8999999999999913E-003     4.3425711027111902E-008
  -7.7999999999999875E-003     1.8325084738535224E-007
  -6.6999999999999837E-003     2.7374750288799987E-007
  -5.5999999999999939E-003     2.9017428460065275E-007
  -4.4999999999999901E-003     3.1779154596733861E-007
  -3.3999999999999864E-003     4.1801351358117245E-007
  -2.2999999999999826E-003     5.4542533689527772E-007
  -1.1999999999999927E-003     6.2250859400592162E-007
  -9.9999999999988987E-005     6.5575477492529899E-007
   1.0000000000000148E-003     7.1668529244561796E-007
   2.1000000000000185E-003     8.1921285755015560E-007
   3.2000000000000084E-003     9.0047848289032117E-007
   4.3000000000000121E-003     9.1659882173189544E-007
   5.4000000000000159E-003     9.2162150622243644E-007
   6.5000000000000058E-003     9.8279917892796220E-007
   7.6000000000000234E-003     1.0666610705811763E-006
   8.7000000000000133E-003     1.0899356084337342E-006
   9.8000000000000032E-003     1.0416320037620608E-006
   1.0900000000000021E-002     9.9861961189162685E-007
   1.2000000000000011E-002     1.0119011903952924E-006
   1.3100000000000001E-002     1.0342394034523750E-006
   1.4200000000000018E-002     9.9168050837761257E-007
   1.5300000000000008E-002     8.9370934119870071E-007
   1.6400000000000026E-002     8.1296536791342078E-007
   1.7500000000000016E-002     7.7375830187520478E-007
   1.8600000000000005E-002     7.2000415229922510E-007
   1.9700000000000023E-002     6.0887197150805150E-007
   2.0800000000000013E-002     4.7667498392911511E-007
   2.1900000000000003E-002     3.7923530271655181E-007
   2.3000000000000020E-002     3.0658310379294562E-007
   2.4100000000000010E-002     2.0278071133361664E-007
   2.5200000000000000E-002     5.7625666016747346E-008
   2.6300000000000018E-002    -7.6281423844193341E-008
   2.7400000000000008E-002    -1.6135302871589374E-007
   2.8500000000000025E-002    -2.3293385709166614E-007
   2.9600000000000015E-002    -3.4374443202978000E-007
   3.0700000000000005E-002    -4.7538406988678616E-007
   3.1800000000000023E-002    -5.7333005543114268E-007
   3.2900000000000013E-002    -6.2216082596933120E-007
   3.4000000000000002E-002    -6.6751994154401473E-007
   3.5100000000000020E-002    -7.4091423130084877E-007
   3.6200000000000010E-002    -8.1608294522084179E-007
   3.7300000000000028E-002    -8.5300740693128319E-007
   3.8400000000000017E-002    -8.4963181734565296E-007
   3.9500000000000007E-002    -8.5297898522185278E-007
   4.0600000000000025E-002    -8.7146713667607401E-007
   4.1700000000000015E-002    -8.7129285475384677E-007
   4.2800000000000005E-002    -8.3816024698535330E-007
   4.3900000000000022E-002    -7.9291157817351632E-007
   4.5000000000000012E-002    -7.6422497841122095E-007
   4.6100000000000002E-002    -7.3980584147648187E-007
   4.7200000000000020E-002    -6.8804712327619200E-007
   4.8300000000000010E-002    -6.0672101653835853E-007
   4.9400000000000027E-002    -5.2998842647866695E-007
   5.0500000000000017E-002    -4.7649317025388882E-007
   5.1600000000000007E-002    -4.2842449943236716E-007
   5.2700000000000025E-002    -3.5979400081487256E-007
   5.3800000000000014E-002    -2.7931977797379659E-007
   5.4900000000000004E-002    -2.0784180776445282E-007
   5.6000000000000022E-002    -1.4492124478238111E-007
   5.7100000000000012E-002    -7.9933940355658706E-008
   5.8200000000000002E-002    -2.0642579201535227E-008
   5.9300000000000019E-002     2.1764925861589290E-008
   6.0400000000000009E-002     5.1254783528520420E-008
   6.1500000000000027E-002     9.3629751063417643E-008
   6.2600000000000017E-002     1.5229976213504415E-007
   6.3700000000000007E-002     1.9663083605792053E-007
   6.4800000000000024E-002     2.0982245985123882E-007
   6.5900000000000014E-002     2.1078687950648600E-007
   6.7000000000000004E-002     2.2632131901900721E-007
   6.8100000000000022E-002     2.4811598109408806E-007
   6.9200000000000012E-002     2.4967866352199053E-007
   7.0300000000000029E-002     2.3549948480194871E-007
   7.1400000000000019E-002     2.3485203826112411E-007
   7.2500000000000009E-002     2.4904827000682417E-007
   7.3600000000000027E-002     2.4205070303651155E-007
   7.4700000000000016E-002     1.9871318102104851E-007
   7.5800000000000006E-002     1.5942103459565260E-007
   7.6900000000000024E-002     1.6429542881724046E-007
   7.8000000000000014E-002     1.8972778548231872E-007
   7.9100000000000004E-002     1.7669982810275542E-007
   8.0200000000000021E-002     1.1898610097205164E-007
   8.1300000000000011E-002     7.3583962034717842E-008
   8.2400000000000029E-002     7.6071096088980994E-008
   8.3500000000000019E-002     8.7905803525245574E-008
   8.4600000000000009E-002     6.1548284691070876E-008
   8.5700000000000026E-002     1.8166659287999209E-008
   8.6800000000000016E-002     1.5030243716296354E-008
   8.7900000000000006E-002     4.4467515891710718E-008
   8.9000000000000024E-002     3.9615578373286553E-008
   9.0100000000000013E-002    -1.9262294870259211E-008
   9.1200000000000003E-002    -6.4817228917490866E-008
   9.2300000000000021E-002    -3.7462601909510340E-008
   9.3400000000000011E-002     1.8616340469179704E-008
   9.4500000000000028E-002     1.5019933741200475E-008
   9.5600000000000018E-002    -5.0169607135330807E-008
   9.6700000000000008E-002    -8.6845844293748087E-008
   9.7800000000000026E-002    -4.8942716546207521E-008
   9.8900000000000016E-002    -8.9864671259931583E-010
  0.10000000000000001         -1.5829742849859940E-008
  0.10110000000000002         -6.1936738404710923E-008
  0.10220000000000001         -5.7212719895005648E-008
  0.10330000000000003         -4.3702081953256311E-009
  0.10440000000000002          8.8732390324253174E-009
  0.10550000000000001         -4.8908319172369374E-008
  0.10660000000000003         -9.1450047534635814E-008
  0.10770000000000002         -4.3147256434394876E-008
  0.10880000000000001          3.7963594934353750E-008
  0.10990000000000003          3.7257489537978472E-008
  0.11100000000000002         -4.4099099483219106E-008
  0.11210000000000001         -8.7077289379067224E-008
  0.11320000000000002         -3.0326646083267406E-008
  0.11430000000000001          4.0425323533099800E-008
  0.11540000000000003          2.5119136992657332E-008
  0.11650000000000002         -4.1194727629090266E-008
  0.11760000000000001         -4.7794127766564998E-008
  0.11870000000000003          1.5008213338774112E-008
  0.11980000000000002          4.3323694853825145E-008
  0.12090000000000001         -1.2754207467935430E-008
  0.12200000000000003         -6.4776976671510056E-008
  0.12310000000000001         -2.2426132062491888E-008
  0.12420000000000003          5.8762054777616868E-008
  0.12530000000000002          5.5773782037249475E-008
  0.12640000000000001         -3.2619237089193120E-008
  0.12750000000000003         -7.7609477955320472E-008
  0.12860000000000002         -1.1979511604920390E-008
  0.12970000000000001          6.7230658373773622E-008
  0.13080000000000003          4.5989374086730095E-008
  0.13190000000000002         -3.6156897920136544E-008
  0.13300000000000001         -5.0869974899114823E-008
  0.13410000000000000          1.9593285216501499E-008
  0.13520000000000004          5.8105996458834852E-008
  0.13630000000000003         -9.6319596742944213E-010
  0.13740000000000002         -6.6190061431825598E-008
  0.13850000000000001         -3.0487264268685976E-008
  0.13960000000000000          5.8783765410908018E-008
  0.14070000000000005          6.7699808425913943E-008
  0.14180000000000004         -1.9952301144599005E-008
  0.14290000000000003         -7.5510435237902129E-008
  0.14400000000000002         -1.8925739198039082E-008
  0.14510000000000001          6.1850428778598143E-008
  0.14620000000000000          4.7153751125961207E-008
  0.14730000000000004         -3.4296910200737329E-008
  0.14840000000000003         -5.5203273063852976E-008
  0.14950000000000002          1.1499015073468399E-008
  0.15060000000000001          5.4719272668535268E-008
  0.15170000000000000          4.0267975620622565E-009
  0.15280000000000005         -5.8228255994663414E-008
  0.15390000000000004         -2.6971159527988675E-008
  0.15500000000000003          5.6480796928326527E-008
  0.15610000000000002          6.2620678420444165E-008
  0.15720000000000001         -2.6237151118380098E-008
  0.15830000000000000         -8.2923527600087255E-008
  0.15940000000000004         -2.3866794762739119E-008
  0.16050000000000003          6.5790516146080336E-008
  0.16160000000000002          5.9326538348614122E-008
  0.16270000000000001         -2.5625459088018943E-008
  0.16380000000000000         -6.1210926105559338E-008
  0.16490000000000005         -3.5571077194873624E-009
  0.16600000000000004          4.9810743973921490E-008
  0.16710000000000003          1.8148753611058055E-008
  0.16820000000000002         -4.0427170944212776E-008
  0.16930000000000001         -2.7788271239614915E-008
  0.17040000000000000          3.6509238299231583E-008
  0.17150000000000004          4.6675733500478600E-008
  0.17260000000000003         -1.9806442708159011E-008
  0.17370000000000002         -6.2505407072421804E-008
  0.17480000000000001         -1.2147584271815504E-008
  0.17590000000000000          5.9736713353686355E-008
  0.17700000000000005          4.6596433378454094E-008
  0.17810000000000004         -3.2678801886731890E-008
  0.17920000000000003         -6.2512413023796398E-008
  0.18030000000000002         -3.2577214259532639E-009
  0.18140000000000001          5.3955105272507353E-008
  0.18250000000000000          2.7583554995658233E-008
  0.18360000000000004         -3.5520319130455391E-008
  0.18470000000000003         -3.8810721747495336E-008
  0.18580000000000002          1.6493725496502520E-008
  0.18690000000000001          4.0270155210464509E-008
  0.18800000000000000         -3.4849909624767861E-009
  0.18910000000000005         -4.3651454006976564E-008
  0.19020000000000004         -1.5901601813084199E-008
  0.19130000000000003          3.7534455543664080E-008
  0.19240000000000002          3.5054039670967541E-008
  0.19350000000000001         -1.8320019279371991E-008
  0.19460000000000005         -4.0749917218363407E-008
  0.19570000000000004         -7.7446250801305183E-011
  0.19680000000000003          3.9396113038492331E-008
  0.19790000000000002          1.7932217488692004E-008
  0.19900000000000001         -2.9427505765511341E-008
  0.20010000000000000         -2.9775764076589439E-008
  0.20120000000000005          1.5599516345332631E-008
  0.20230000000000004          3.6037857142900975E-008
  0.20340000000000003          1.1330547611265729E-009
  0.20450000000000002         -3.4666062020960453E-008
  0.20560000000000000         -1.7199816682023084E-008
  0.20670000000000005          2.5942119563637789E-008
  0.20780000000000004          2.9823237213122411E-008
  0.20890000000000003         -9.8906776102580807E-009
