 -0.12000000000000000          0.0000000000000000
 -0.11889999999999999          0.0000000000000000
 -0.11780000000000000          0.0000000000000000
 -0.11670000000000000          0.0000000000000000
 -0.11559999999999999          0.0000000000000000
 -0.11449999999999999          0.0000000000000000
 -0.11340000000000000          0.0000000000000000
 -0.11230000000000000          4.5173334915543855E-021
 -0.11119999999999999          2.6953383395904554E-021
 -0.11009999999999999         -3.9686148311642383E-020
 -0.10900000000000000         -4.3154532775948567E-020
 -0.10790000000000000          1.2673961825370042E-019
 -0.10679999999999999          1.1275675038395090E-019
 -0.10569999999999999         -2.9436460283678905E-019
 -0.10460000000000000          7.7179652784438657E-019
 -0.10349999999999999          3.4095613503514595E-018
 -0.10239999999999999         -2.6647571734607502E-018
 -0.10130000000000000         -2.4008300202614664E-017
 -0.10020000000000000         -2.3006908735613068E-017
  -9.9099999999999994E-002     5.9794438026845214E-017
  -9.7999999999999990E-002     1.6465776540652784E-016
  -9.6899999999999986E-002     6.5371812494824860E-017
  -9.5799999999999996E-002    -3.2096627411241083E-016
  -9.4699999999999993E-002    -5.9947491586458145E-016
  -9.3599999999999989E-002    -2.6554567599717041E-016
  -9.2499999999999999E-002     5.2617909029585791E-016
  -9.1399999999999995E-002     1.2265268951511580E-015
  -9.0299999999999991E-002     1.9775485519550650E-015
  -8.9200000000000002E-002     2.6896686324695421E-015
  -8.8099999999999984E-002     1.9473947878377427E-016
  -8.6999999999999994E-002    -9.5672506917644784E-015
  -8.5899999999999990E-002    -2.1019358061274800E-014
  -8.4799999999999986E-002    -1.4576915249951000E-014
  -8.3699999999999997E-002     2.3028618467983882E-014
  -8.2599999999999993E-002     6.8656241987170158E-014
  -8.1499999999999989E-002     7.0093887291622359E-014
  -8.0399999999999999E-002     1.8026813528514932E-015
  -7.9299999999999995E-002    -9.8447535930648589E-014
  -7.8199999999999992E-002    -1.7167478105328121E-013
  -7.7100000000000002E-002    -1.9459214513177503E-013
  -7.5999999999999984E-002    -1.4046683466991533E-013
  -7.4899999999999994E-002     9.1882779867675374E-014
  -7.3799999999999991E-002     5.6259548885870259E-013
  -7.2699999999999987E-002     1.0080226583997209E-012
  -7.1599999999999997E-002     8.3523872497145990E-013
  -7.0499999999999993E-002    -2.9889721882454812E-013
  -6.9399999999999989E-002    -1.8545852787515971E-012
  -6.8300000000000000E-002    -2.6645736398572817E-012
  -6.7199999999999996E-002    -2.0365252453163896E-012
  -6.6099999999999992E-002    -3.4666567576627227E-013
  -6.5000000000000002E-002     1.7393223363318389E-012
  -6.3899999999999985E-002     4.1749273309299451E-012
  -6.2799999999999995E-002     6.7709908860291712E-012
  -6.1699999999999991E-002     7.5979621899646688E-012
  -6.0599999999999994E-002     3.6871313294217778E-012
  -5.9499999999999990E-002    -5.3345947451099995E-012
  -5.8399999999999994E-002    -1.5047066023732292E-011
  -5.7299999999999990E-002    -1.9570288098402777E-011
  -5.6199999999999986E-002    -1.7235563670725540E-011
  -5.5099999999999996E-002    -1.0806295962229040E-011
  -5.3999999999999992E-002    -1.1947521964816854E-012
  -5.2899999999999989E-002     1.5830902561075888E-011
  -5.1799999999999985E-002     4.2452204945808703E-011
  -5.0699999999999995E-002     6.8811366327192758E-011
  -4.9599999999999991E-002     7.5453844561312877E-011
  -4.8499999999999988E-002     4.9080951108892990E-011
  -4.7399999999999998E-002    -6.5035745885899665E-012
  -4.6299999999999994E-002    -7.7458955916043237E-011
  -4.5199999999999990E-002    -1.5275551656923625E-010
  -4.4099999999999986E-002    -2.2125654086657676E-010
  -4.2999999999999997E-002    -2.5614368959203659E-010
  -4.1899999999999993E-002    -2.1505962288781433E-010
  -4.0799999999999989E-002    -6.9064864938184201E-011
  -3.9699999999999985E-002     1.6694917670534437E-010
  -3.8599999999999995E-002     4.3755216116991846E-010
  -3.7499999999999992E-002     6.7744632126220949E-010
  -3.6399999999999988E-002     8.2886347785304793E-010
  -3.5299999999999984E-002     8.2946916002413218E-010
  -3.4199999999999994E-002     6.0446880834064132E-010
  -3.3099999999999991E-002     9.7095761986132345E-011
  -3.1999999999999987E-002    -6.8152122834064244E-010
  -3.0899999999999997E-002    -1.6310359729487800E-009
  -2.9799999999999993E-002    -2.5782620483028040E-009
  -2.8699999999999989E-002    -3.2951077422183062E-009
  -2.7599999999999986E-002    -3.5026757050360402E-009
  -2.6499999999999996E-002    -2.8971747223494049E-009
  -2.5399999999999992E-002    -1.2209874222790518E-009
  -2.4299999999999988E-002     1.6695317350823302E-009
  -2.3199999999999985E-002     5.8055045215610335E-009
  -2.2099999999999995E-002     1.1159294821538879E-008
  -2.0999999999999991E-002     1.7666970109075919E-008
  -1.9899999999999987E-002     2.5200602493669066E-008
  -1.8799999999999983E-002     3.3585799030788621E-008
  -1.7699999999999994E-002     4.2738832917166292E-008
  -1.6599999999999990E-002     5.2839983055719131E-008
  -1.5499999999999986E-002     6.4385211828721367E-008
  -1.4399999999999996E-002     7.8097251332565065E-008
  -1.3299999999999992E-002     9.4849298193366849E-008
  -1.2199999999999989E-002     1.1570809022032336E-007
  -1.1099999999999985E-002     1.4199854092566966E-007
  -9.9999999999999950E-003     1.7523097994853742E-007
  -8.8999999999999913E-003     2.1693161045277520E-007
  -7.7999999999999875E-003     2.6858714363697800E-007
  -6.6999999999999837E-003     3.3180492664541816E-007
  -5.5999999999999939E-003     4.0853166183296707E-007
  -4.4999999999999901E-003     5.0113510496885283E-007
  -3.3999999999999864E-003     6.1238205262270640E-007
  -2.2999999999999826E-003     7.4549978990035015E-007
  -1.1999999999999927E-003     9.0435429456192651E-007
  -9.9999999999988987E-005     1.0935963246083702E-006
   1.0000000000000148E-003     1.3186769365347573E-006
   2.1000000000000185E-003     1.5858481674513314E-006
   3.2000000000000084E-003     1.9022559172299225E-006
   4.3000000000000121E-003     2.2760343654226745E-006
   5.4000000000000159E-003     2.7162589049112285E-006
   6.5000000000000058E-003     3.2328580346074887E-006
   7.6000000000000234E-003     3.8367247725545894E-006
   8.7000000000000133E-003     4.5400706767395604E-006
   9.8000000000000032E-003     5.3566236601909623E-006
   1.0900000000000021E-002     6.3014913393999450E-006
   1.2000000000000011E-002     7.3909372986236122E-006
   1.3100000000000001E-002     8.6424124674522318E-006
   1.4200000000000018E-002     1.0074980309582315E-005
   1.5300000000000008E-002     1.1709567843354307E-005
   1.6400000000000026E-002     1.3568740541813895E-005
   1.7500000000000016E-002     1.5676214388804510E-005
   1.8600000000000005E-002     1.8056529370369390E-005
   1.9700000000000023E-002     2.0735053112730384E-005
   2.0800000000000013E-002     2.3737804440315813E-005
   2.1900000000000003E-002     2.7090907678939402E-005
   2.3000000000000020E-002     3.0820134270470589E-005
   2.4100000000000010E-002     3.4950589906657115E-005
   2.5200000000000000E-002     3.9506419852841645E-005
   2.6300000000000018E-002     4.4510295992949978E-005
   2.7400000000000008E-002     4.9982540076598525E-005
   2.8500000000000025E-002     5.5940519814612344E-005
   2.9600000000000015E-002     6.2398066802415997E-005
   3.0700000000000005E-002     6.9364490627776831E-005
   3.1800000000000023E-002     7.6842930866405368E-005
   3.2900000000000013E-002     8.4829633124172688E-005
   3.4000000000000002E-002     9.3312650278676301E-005
   3.5100000000000020E-002     1.0227127495454624E-004
   3.6200000000000010E-002     1.1167451884830371E-004
   3.7300000000000028E-002     1.2148086534580216E-004
   3.8400000000000017E-002     1.3163679977878928E-004
   3.9500000000000007E-002     1.4207675121724606E-004
   4.0600000000000025E-002     1.5272165182977915E-004
   4.1700000000000015E-002     1.6347915516234934E-004
   4.2800000000000005E-002     1.7424282850697637E-004
   4.3900000000000022E-002     1.8489159992896020E-004
   4.5000000000000012E-002     1.9529007840901613E-004
   4.6100000000000002E-002     2.0528820459730923E-004
   4.7200000000000020E-002     2.1472341904882342E-004
   4.8300000000000010E-002     2.2342018201015890E-004
   4.9400000000000027E-002     2.3119234538171440E-004
   5.0500000000000017E-002     2.3784469522070140E-004
   5.1600000000000007E-002     2.4317482893820852E-004
   5.2700000000000025E-002     2.4697621120139956E-004
   5.3800000000000014E-002     2.4904133169911802E-004
   5.4900000000000004E-002     2.4916508118622005E-004
   5.6000000000000022E-002     2.4714524624869227E-004
   5.7100000000000012E-002     2.4278914497699589E-004
   5.8200000000000002E-002     2.3592091747559607E-004
   5.9300000000000019E-002     2.2637810616288334E-004
   6.0400000000000009E-002     2.1402035781648010E-004
   6.1500000000000027E-002     1.9873240671586245E-004
   6.2600000000000017E-002     1.8042999727185816E-004
   6.3700000000000007E-002     1.5906369662843645E-004
   6.4800000000000024E-002     1.3461982598528266E-004
   6.5900000000000014E-002     1.0712809307733551E-004
   6.7000000000000004E-002     7.6658310717903078E-005
   6.8100000000000022E-002     4.3327450839569792E-005
   6.9200000000000012E-002     7.2990651460713707E-006
   7.0300000000000029E-002    -3.1215375202009454E-005
   7.1400000000000019E-002    -7.1953392762225121E-005
   7.2500000000000009E-002    -1.1460500536486506E-004
   7.3600000000000027E-002    -1.5881867147982121E-004
   7.4700000000000016E-002    -2.0420012879185379E-004
   7.5800000000000006E-002    -2.5031782570295036E-004
   7.6900000000000024E-002    -2.9670819640159607E-004
   7.8000000000000014E-002    -3.4287883318029344E-004
   7.9100000000000004E-002    -3.8830903940834105E-004
   8.0200000000000021E-002    -4.3246333370916545E-004
   8.1300000000000011E-002    -4.7480652574449778E-004
   8.2400000000000029E-002    -5.1481090486049652E-004
   8.3500000000000019E-002    -5.5195571621879935E-004
   8.4600000000000009E-002    -5.8572966372594237E-004
   8.5700000000000026E-002    -6.1564496718347073E-004
   8.6800000000000016E-002    -6.4125488279387355E-004
   8.7900000000000006E-002    -6.6216569393873215E-004
   8.9000000000000024E-002    -6.7803706042468548E-004
   9.0100000000000013E-002    -6.8858102895319462E-004
   9.1200000000000003E-002    -6.9356645690277219E-004
   9.2300000000000021E-002    -6.9283053744584322E-004
   9.3400000000000011E-002    -6.8628834560513496E-004
   9.4500000000000028E-002    -6.7393289646133780E-004
   9.5600000000000018E-002    -6.5583438845351338E-004
   9.6700000000000008E-002    -6.3213874818757176E-004
   9.7800000000000026E-002    -6.0306483646854758E-004
   9.8900000000000016E-002    -5.6889682309702039E-004
  0.10000000000000001         -5.2998651517555118E-004
  0.10110000000000002         -4.8675315338186920E-004
  0.10220000000000001         -4.3967730016447604E-004
  0.10330000000000003         -3.8928931462578475E-004
  0.10440000000000002         -3.3615413121879101E-004
  0.10550000000000001         -2.8085909434594214E-004
  0.10660000000000003         -2.2400588204618543E-004
  0.10770000000000002         -1.6622235125396401E-004
  0.10880000000000001         -1.0814869165187702E-004
  0.10990000000000003         -5.0416296289768070E-005
  0.11100000000000002          6.3749207583896350E-006
  0.11210000000000001          6.1661339714191854E-005
  0.11320000000000002          1.1490590259199962E-004
  0.11430000000000001          1.6559784126002342E-004
  0.11540000000000003          2.1327278227545321E-004
  0.11650000000000002          2.5752684450708330E-004
  0.11760000000000001          2.9802118660882115E-004
  0.11870000000000003          3.3447780879214406E-004
  0.11980000000000002          3.6668049870058894E-004
  0.12090000000000001          3.9447491872124374E-004
  0.12200000000000003          4.1776371654123068E-004
  0.12310000000000001          4.3650917359627783E-004
  0.12420000000000003          4.5073384535498917E-004
  0.12530000000000002          4.6052641118876636E-004
  0.12640000000000001          4.6603527152910829E-004
  0.12750000000000003          4.6744942665100098E-004
  0.12860000000000002          4.6498689334839582E-004
  0.12970000000000001          4.5889351167716086E-004
  0.13080000000000003          4.4945353874936700E-004
  0.13190000000000002          4.3699087109416723E-004
  0.13300000000000001          4.2185190250165761E-004
  0.13410000000000000          4.0438066935166717E-004
  0.13520000000000004          3.8491515442728996E-004
  0.13630000000000003          3.6379502853378654E-004
  0.13740000000000002          3.4136514295823872E-004
  0.13850000000000001          3.1796674011275172E-004
  0.13960000000000000          2.9392022406682372E-004
  0.14070000000000005          2.6952289044857025E-004
  0.14180000000000004          2.4505492183379829E-004
  0.14290000000000003          2.2077710309531540E-004
  0.14400000000000002          1.9691983470693231E-004
  0.14510000000000001          1.7368179396726191E-004
  0.14620000000000000          1.5124074707273394E-004
  0.14730000000000004          1.2975966092199087E-004
  0.14840000000000003          1.0937375918729231E-004
  0.14950000000000002          9.0179244580212981E-005
  0.15060000000000001          7.2239723522216082E-005
  0.15170000000000000          5.5604152294108644E-005
  0.15280000000000005          4.0312366763828322E-005
  0.15390000000000004          2.6382487703813240E-005
  0.15500000000000003          1.3800215128867421E-005
  0.15610000000000002          2.5327092316729249E-006
  0.15720000000000001         -7.4531230893626343E-006
  0.15830000000000000         -1.6192665498238057E-005
  0.15940000000000004         -2.3742166376905516E-005
  0.16050000000000003         -3.0180312023730949E-005
  0.16160000000000002         -3.5588731407187879E-005
  0.16270000000000001         -4.0034079574979842E-005
  0.16380000000000000         -4.3578595068538561E-005
  0.16490000000000005         -4.6299519453896210E-005
  0.16600000000000004         -4.8290385166183114E-005
  0.16710000000000003         -4.9637084885034710E-005
  0.16820000000000002         -5.0406280934112146E-005
  0.16930000000000001         -5.0659258704399690E-005
  0.17040000000000000         -5.0467031542211771E-005
  0.17150000000000004         -4.9903796025319025E-005
  0.17260000000000003         -4.9027948989532888E-005
  0.17370000000000002         -4.7883313527563587E-005
  0.17480000000000001         -4.6518180170096457E-005
  0.17590000000000000         -4.4990902097197250E-005
  0.17700000000000005         -4.3351399654056877E-005
  0.17810000000000004         -4.1624265577411279E-005
  0.17920000000000003         -3.9822298276703805E-005
  0.18030000000000002         -3.7974630686221644E-005
  0.18140000000000001         -3.6125707993051037E-005
  0.18250000000000000         -3.4305827284697443E-005
  0.18360000000000004         -3.2518182706553489E-005
  0.18470000000000003         -3.0759481887798756E-005
  0.18580000000000002         -2.9044053007964976E-005
  0.18690000000000001         -2.7395943106967025E-005
  0.18800000000000000         -2.5823408577707596E-005
  0.18910000000000005         -2.4316061171703041E-005
  0.19020000000000004         -2.2869937311043032E-005
  0.19130000000000003         -2.1500300135812722E-005
  0.19240000000000002         -2.0221097656758502E-005
  0.19350000000000001         -1.9022778360522352E-005
  0.19460000000000005         -1.7883685359265655E-005
  0.19570000000000004         -1.6800431694719009E-005
  0.19680000000000003         -1.5790503312018700E-005
  0.19790000000000002         -1.4863700016576331E-005
  0.19900000000000001         -1.4004132026457228E-005
  0.20010000000000000         -1.3190361642045900E-005
  0.20120000000000005         -1.2421719475241844E-005
  0.20230000000000004         -1.1711576917150524E-005
  0.20340000000000003         -1.1060307770094369E-005
  0.20450000000000002         -1.0450277841300704E-005
  0.20560000000000000         -9.8709451776812784E-006
  0.20670000000000005         -9.3327889771899208E-006
  0.20780000000000004         -8.8469878392061219E-006
  0.20890000000000003         -8.4014454841963015E-006
