 -0.12000000000000000          0.0000000000000000
 -0.11889999999999999          0.0000000000000000
 -0.11780000000000000          0.0000000000000000
 -0.11670000000000000          0.0000000000000000
 -0.11559999999999999          0.0000000000000000
 -0.11449999999999999          0.0000000000000000
 -0.11340000000000000         -1.0370384665327475E-019
 -0.11230000000000000         -4.6409876227256865E-020
 -0.11119999999999999          8.2720873669385448E-019
 -0.11009999999999999          8.0862064416129255E-019
 -0.10900000000000000         -2.4883418826797283E-018
 -0.10790000000000000         -2.5798952668528631E-018
 -0.10679999999999999          4.4458120695224181E-018
 -0.10569999999999999         -8.2915616800998807E-018
 -0.10460000000000000         -4.1711786762958298E-017
 -0.10349999999999999          3.4793565756919995E-017
 -0.10239999999999999          2.8669140353912079E-016
 -0.10130000000000000          2.5638882632087780E-016
 -0.10020000000000000         -6.8406137298284960E-016
  -9.9099999999999994E-002    -1.7783003564977255E-015
  -9.7999999999999990E-002    -6.4952429277282515E-016
  -9.6899999999999986E-002     3.2767266276625268E-015
  -9.5799999999999996E-002     5.7871666883830847E-015
  -9.4699999999999993E-002     2.2170075190009342E-015
  -9.3599999999999989E-002    -5.0691211888860901E-015
  -9.2499999999999999E-002    -9.9055149933163777E-015
  -9.1399999999999995E-002    -1.3656558048584684E-014
  -9.0299999999999991E-002    -1.9275605214080262E-014
  -8.9200000000000002E-002    -7.1703405745467824E-015
  -8.8099999999999984E-002     5.4147770387489094E-014
  -8.6999999999999994E-002     1.3642902183409050E-013
  -8.5899999999999990E-002     1.1752883009256282E-013
  -8.4799999999999986E-002    -9.3426256856689316E-014
  -8.3699999999999997E-002    -3.7053053767582833E-013
  -8.2599999999999993E-002    -4.1808887623652480E-013
  -8.1499999999999989E-002    -1.0171629706047514E-013
  -8.0399999999999999E-002     3.5628252193116439E-013
  -7.9299999999999995E-002     6.6288993608512592E-013
  -7.8199999999999992E-002     8.2279506558730064E-013
  -7.7100000000000002E-002     9.0005449924698833E-013
  -7.5999999999999984E-002     4.4932590634316760E-013
  -7.4899999999999994E-002    -1.1745848434510653E-012
  -7.3799999999999991E-002    -3.4557812340907379E-012
  -7.2699999999999987E-002    -4.2359757194965209E-012
  -7.1599999999999997E-002    -1.7172210918861563E-012
  -7.0499999999999993E-002     2.9525605051150539E-012
  -6.9399999999999989E-002     6.3249323313530059E-012
  -6.8300000000000000E-002     6.5535025323137930E-012
  -6.7199999999999996E-002     5.3395486816765203E-012
  -6.6099999999999992E-002     4.4603713084123697E-012
  -6.5000000000000002E-002     1.5831729373652625E-012
  -6.3899999999999985E-002    -7.2067703367484359E-012
  -6.2799999999999995E-002    -1.9912897719631673E-011
  -6.1699999999999991E-002    -2.7178318623422015E-011
  -6.0599999999999994E-002    -2.1546920497828026E-011
  -5.9499999999999990E-002    -6.1065978662622200E-012
  -5.8399999999999994E-002     1.0584761366005946E-011
  -5.7299999999999990E-002     2.7202171071216696E-011
  -5.6199999999999986E-002     5.0020990821630917E-011
  -5.5099999999999996E-002     7.6652982572422701E-011
  -5.3999999999999992E-002     8.5816118100545680E-011
  -5.2899999999999989E-002     5.3101446850778444E-011
  -5.1799999999999985E-002    -2.2090558549070494E-011
  -5.0699999999999995E-002    -1.1234477237387352E-010
  -4.9599999999999991E-002    -1.8649713717788785E-010
  -4.8499999999999988E-002    -2.2949625533286167E-010
  -4.7399999999999998E-002    -2.3298921125736172E-010
  -4.6299999999999994E-002    -1.7724297030063951E-010
  -4.5199999999999990E-002    -3.9997807149694253E-011
  -4.4099999999999986E-002     1.7328639911884380E-010
  -4.2999999999999997E-002     4.1959896668330998E-010
  -4.1899999999999993E-002     6.4424493517734049E-010
  -4.0799999999999989E-002     8.0668832724839490E-010
  -3.9699999999999985E-002     8.7561657924339897E-010
  -3.8599999999999995E-002     8.1776513338738255E-010
  -3.7499999999999992E-002     6.2022365021618953E-010
  -3.6399999999999988E-002     3.2891836476700576E-010
  -3.5299999999999984E-002     4.5455618435941147E-011
  -3.4199999999999994E-002    -1.2487524903015412E-010
  -3.3099999999999991E-002    -1.0976027031706082E-010
  -3.1999999999999987E-002     1.4637262235606130E-010
  -3.0899999999999997E-002     6.9391647983252369E-010
  -2.9799999999999993E-002     1.5184223878250691E-009
  -2.8699999999999989E-002     2.4584039248765066E-009
  -2.7599999999999986E-002     3.2189704235463523E-009
  -2.6499999999999996E-002     3.4918146152307372E-009
  -2.5399999999999992E-002     3.0425295616254289E-009
  -2.4299999999999988E-002     1.6652327294863767E-009
  -2.3199999999999985E-002    -8.9585078244525107E-010
  -2.2099999999999995E-002    -4.8898578519640523E-009
  -2.0999999999999991E-002    -1.0389122451215371E-008
  -1.9899999999999987E-002    -1.7221806203338019E-008
  -1.8799999999999983E-002    -2.5130791669880637E-008
  -1.7699999999999994E-002    -3.4010255944849632E-008
  -1.6599999999999990E-002    -4.3996188026085292E-008
  -1.5499999999999986E-002    -5.5407607391089186E-008
  -1.4399999999999996E-002    -6.8720865442628565E-008
  -1.3299999999999992E-002    -8.4656107901537325E-008
  -1.2199999999999989E-002    -1.0424454188751042E-007
  -1.1099999999999985E-002    -1.2877328003924049E-007
  -9.9999999999999950E-003    -1.5969111188951501E-007
  -8.8999999999999913E-003    -1.9860704014718067E-007
  -7.7999999999999875E-003    -2.4732469228183618E-007
  -6.6999999999999837E-003    -3.0777536608184164E-007
  -5.5999999999999939E-003    -3.8194286844372982E-007
  -4.4999999999999901E-003    -4.7200208541653410E-007
  -3.3999999999999864E-003    -5.8066598285222426E-007
  -2.2999999999999826E-003    -7.1144086177810095E-007
  -1.1999999999999927E-003    -8.6851753167138668E-007
  -9.9999999999988987E-005    -1.0565519232841325E-006
   1.0000000000000148E-003    -1.2807670373149449E-006
   2.1000000000000185E-003    -1.5473559642487089E-006
   3.2000000000000084E-003    -1.8637223320183693E-006
   4.3000000000000121E-003    -2.2382830593414837E-006
   5.4000000000000159E-003    -2.6801346848515095E-006
   6.5000000000000058E-003    -3.1991353353078011E-006
   7.6000000000000234E-003    -3.8063874399085762E-006
   8.7000000000000133E-003    -4.5144915929995477E-006
   9.8000000000000032E-003    -5.3374315029941499E-006
   1.0900000000000021E-002    -6.2903127400204539E-006
   1.2000000000000011E-002    -7.3894257184292655E-006
   1.3100000000000001E-002    -8.6525351434829645E-006
   1.4200000000000018E-002    -1.0098973689309787E-005
   1.5300000000000008E-002    -1.1749652912840247E-005
   1.6400000000000026E-002    -1.3626891814055853E-005
   1.7500000000000016E-002    -1.5754338164697401E-005
   1.8600000000000005E-002    -1.8156715668737888E-005
   1.9700000000000023E-002    -2.0859390133409761E-005
   2.0800000000000013E-002    -2.3887811039458029E-005
   2.1900000000000003E-002    -2.7267637051409110E-005
   2.3000000000000020E-002    -3.1024534109747037E-005
   2.4100000000000010E-002    -3.5183664294891059E-005
   2.5200000000000000E-002    -3.9768754504621029E-005
   2.6300000000000018E-002    -4.4801221520174295E-005
   2.7400000000000008E-002    -5.0299979193368927E-005
   2.8500000000000025E-002    -5.6281533034052700E-005
   2.9600000000000015E-002    -6.2758888816460967E-005
   3.0700000000000005E-002    -6.9740868639200926E-005
   3.1800000000000023E-002    -7.7229684393387288E-005
   3.2900000000000013E-002    -8.5220250184647739E-005
   3.4000000000000002E-002    -9.3700014986097813E-005
   3.5100000000000020E-002    -1.0264728189213201E-004
   3.6200000000000010E-002    -1.1203000030945987E-004
   3.7300000000000028E-002    -1.2180590420030057E-004
   3.8400000000000017E-002    -1.3192101323511451E-004
   3.9500000000000007E-002    -1.4230958186089993E-004
   4.0600000000000025E-002    -1.5289247676264495E-004
   4.1700000000000015E-002    -1.6357668209820986E-004
   4.2800000000000005E-002    -1.7425481928512454E-004
   4.3900000000000022E-002    -1.8480597645975649E-004
   4.5000000000000012E-002    -1.9509665435180068E-004
   4.6100000000000002E-002    -2.0498009689617902E-004
   4.7200000000000020E-002    -2.1429495245683938E-004
   4.8300000000000010E-002    -2.2286664170678705E-004
   4.9400000000000027E-002    -2.3051144671626389E-004
   5.0500000000000017E-002    -2.3703619081061333E-004
   5.1600000000000007E-002    -2.4224133812822402E-004
   5.2700000000000025E-002    -2.4592474801465869E-004
   5.3800000000000014E-002    -2.4788416340015829E-004
   5.4900000000000004E-002    -2.4791626492515206E-004
   5.6000000000000022E-002    -2.4582087644375861E-004
   5.7100000000000012E-002    -2.4140850291587412E-004
   5.8200000000000002E-002    -2.3450366279575974E-004
   5.9300000000000019E-002    -2.2494993754662573E-004
   6.0400000000000009E-002    -2.1261129586491734E-004
   6.1500000000000027E-002    -1.9737401453312486E-004
   6.2600000000000017E-002    -1.7915440548676997E-004
   6.3700000000000007E-002    -1.5790101315360516E-004
   6.4800000000000024E-002    -1.3360004231799394E-004
   6.5900000000000014E-002    -1.0627954907249659E-004
   6.7000000000000004E-002    -7.6010772318113595E-005
   6.8100000000000022E-002    -4.2912179196719080E-005
   6.9200000000000012E-002    -7.1423351073462982E-006
   7.0300000000000029E-002     3.1096595193957910E-005
   7.1400000000000019E-002     7.1551323344465345E-005
   7.2500000000000009E-002     1.1391378939151764E-004
   7.3600000000000027E-002     1.5783344861119986E-004
   7.4700000000000016E-002     2.0292372209951282E-004
   7.5800000000000006E-002     2.4876254610717297E-004
   7.6900000000000024E-002     2.9489232110790908E-004
   7.8000000000000014E-002     3.4082509228028357E-004
   7.9100000000000004E-002     3.8604938890784979E-004
   8.0200000000000021E-002     4.3003822793252766E-004
   8.1300000000000011E-002     4.7225944581441581E-004
   8.2400000000000029E-002     5.1218457520008087E-004
   8.3500000000000019E-002     5.4929481120780110E-004
   8.4600000000000009E-002     5.8308779262006283E-004
   8.5700000000000026E-002     6.1308190925046802E-004
   8.6800000000000016E-002     6.3882849644869566E-004
   8.7900000000000006E-002     6.5992330200970173E-004
   8.9000000000000024E-002     6.7601946648210287E-004
   9.0100000000000013E-002     6.8682996788993478E-004
   9.1200000000000003E-002     6.9212581729516387E-004
   9.2300000000000021E-002     6.9173966767266393E-004
   9.3400000000000011E-002     6.8557169288396835E-004
   9.4500000000000028E-002     6.7360233515501022E-004
   9.5600000000000018E-002     6.5589667065069079E-004
   9.6700000000000008E-002     6.3259573653340340E-004
   9.7800000000000026E-002     6.0391327133402228E-004
   9.8900000000000016E-002     5.7012320030480623E-004
  0.10000000000000001          5.3156347712501884E-004
  0.10110000000000002          4.8864574637264013E-004
  0.10220000000000001          4.4184329453855753E-004
  0.10330000000000003          3.9168322109617293E-004
  0.10440000000000002          3.3872833591885865E-004
  0.10550000000000001          2.8356252005323768E-004
  0.10660000000000003          2.2678710229229182E-004
  0.10770000000000002          1.6902481729630381E-004
  0.10880000000000001          1.1091417400166392E-004
  0.10990000000000003          5.3083665989106521E-005
  0.11100000000000002         -3.8564517126360442E-006
  0.11210000000000001         -5.9328707720851526E-005
  0.11320000000000002         -1.1278509191470221E-004
  0.11430000000000001         -1.6372528625652194E-004
  0.11540000000000003         -2.1169171668589115E-004
  0.11650000000000002         -2.5626792921684682E-004
  0.11760000000000001         -2.9709257069043815E-004
  0.11870000000000003         -3.3387215808033943E-004
  0.11980000000000002         -3.6638753954321146E-004
  0.12090000000000001         -3.9449075120501220E-004
  0.12200000000000003         -4.1808249079622328E-004
  0.12310000000000001         -4.3711211765184999E-004
  0.12420000000000003         -4.5159275759942830E-004
  0.12530000000000002         -4.6161180944181979E-004
  0.12640000000000001         -4.6731569455005229E-004
  0.12750000000000003         -4.6888415818102658E-004
  0.12860000000000002         -4.6652797027491033E-004
  0.12970000000000001         -4.6050580567680299E-004
  0.13080000000000003         -4.5111743384040892E-004
  0.13190000000000002         -4.3868343345820904E-004
  0.13300000000000001         -4.2352842865511775E-004
  0.13410000000000000         -4.0598958730697632E-004
  0.13520000000000004         -3.8642529398202896E-004
  0.13630000000000003         -3.6520056892186403E-004
  0.13740000000000002         -3.4266168950125575E-004
  0.13850000000000001         -3.1913208658806980E-004
  0.13960000000000000         -2.9492916655726731E-004
  0.14070000000000005         -2.7036870596930385E-004
  0.14180000000000004         -2.4574383860453963E-004
  0.14290000000000003         -2.2130731667857617E-004
  0.14400000000000002         -1.9728187180589885E-004
  0.14510000000000001         -1.7388121341355145E-004
  0.14620000000000000         -1.5130473184399307E-004
  0.14730000000000004         -1.2971108662895858E-004
  0.14840000000000003         -1.0921018838416785E-004
  0.14950000000000002         -8.9889617811422795E-005
  0.15060000000000001         -7.1835100243333727E-005
  0.15170000000000000         -5.5121097830124199E-005
  0.15280000000000005         -3.9778966311132535E-005
  0.15390000000000004         -2.5797649868763983E-005
  0.15500000000000003         -1.3157295143173542E-005
  0.15610000000000002         -1.8469299902790226E-006
  0.15720000000000001          8.1561001934460364E-006
  0.15830000000000000          1.6905691154533997E-005
  0.15940000000000004          2.4478173145325854E-005
  0.16050000000000003          3.0941682780394331E-005
  0.16160000000000002          3.6352794268168509E-005
  0.16270000000000001          4.0782651922199875E-005
  0.16380000000000000          4.4327411160338670E-005
  0.16490000000000005          4.7080939111765474E-005
  0.16600000000000004          4.9111105909105390E-005
  0.16710000000000003          5.0476101023377851E-005
  0.16820000000000002          5.1254992285976186E-005
  0.16930000000000001          5.1543542213039473E-005
  0.17040000000000000          5.1419174269540235E-005
  0.17150000000000004          5.0926817493746057E-005
  0.17260000000000003          5.0109301810152829E-005
  0.17370000000000002          4.9035046686185524E-005
  0.17480000000000001          4.7778288717381656E-005
  0.17590000000000000          4.6381472202483565E-005
  0.17700000000000005          4.4858708861283958E-005
  0.17810000000000004          4.3234726035734639E-005
  0.17920000000000003          4.1562834667274728E-005
  0.18030000000000002          3.9891503547551110E-005
  0.18140000000000001          3.8233632949413732E-005
  0.18250000000000000          3.6582154280040413E-005
  0.18360000000000004          3.4948781831189990E-005
  0.18470000000000003          3.3368120057275519E-005
  0.18580000000000002          3.1861723982729018E-005
  0.18690000000000001          3.0420374969253317E-005
  0.18800000000000000          2.9031718440819532E-005
  0.18910000000000005          2.7707981644198298E-005
  0.19020000000000004          2.6470088414498605E-005
  0.19130000000000003          2.5313149308203720E-005
  0.19240000000000002          2.4209686671383679E-005
  0.19350000000000001          2.3150203560362570E-005
  0.19460000000000005          2.2156715203891508E-005
  0.19570000000000004          2.1246203687041998E-005
  0.19680000000000003          2.0398374545038678E-005
  0.19790000000000002          1.9576802515075542E-005
  0.19900000000000001          1.8773467672872357E-005
  0.20010000000000000          1.8010299754678272E-005
  0.20120000000000005          1.7297394151682965E-005
  0.20230000000000004          1.6611189494142309E-005
  0.20340000000000003          1.5925272236927412E-005
  0.20450000000000002          1.5243730558722746E-005
  0.20560000000000000          1.4585606550099328E-005
  0.20670000000000005          1.3945303180662449E-005
  0.20780000000000004          1.3293475603859406E-005
  0.20890000000000003          1.2617559150385205E-005
