 -0.12000000000000000          0.0000000000000000     
 -0.11889999999999999          0.0000000000000000     
 -0.11780000000000000          0.0000000000000000     
 -0.11670000000000000          0.0000000000000000     
 -0.11559999999999999          0.0000000000000000     
 -0.11449999999999999          0.0000000000000000     
 -0.11340000000000000          0.0000000000000000     
 -0.11230000000000000          0.0000000000000000     
 -0.11119999999999999          1.0909201634512065E-021
 -0.11009999999999999         -6.3934586884909965E-021
 -0.10900000000000000         -1.0253909395585626E-020
 -0.10790000000000000          1.1370843460339023E-019
 -0.10679999999999999          7.4596407797996472E-020
 -0.10569999999999999         -1.1494758218026764E-018
 -0.10460000000000000         -8.7081790538280324E-019
 -0.10349999999999999          8.2717333336363721E-018
 -0.10239999999999999          1.0274170506143516E-017
 -0.10130000000000000         -4.3262525418368610E-017
 -0.10020000000000000         -8.9063284324858238E-017
  -9.9099999999999994E-002     1.4717352306754138E-016
  -9.7999999999999990E-002     5.5214245007421513E-016
  -9.6899999999999986E-002    -1.3098898661166765E-016
  -9.5799999999999996E-002    -2.4200434340401582E-015
  -9.4699999999999993E-002    -1.9742540173067194E-015
  -9.3599999999999989E-002     6.8391439159067730E-015
  -9.2499999999999999E-002     1.4372040002866814E-014
  -9.1399999999999995E-002    -6.6375699797345099E-015
  -9.0299999999999991E-002    -5.2947863514408652E-014
  -8.9200000000000002E-002    -4.1576297119720954E-014
  -8.8099999999999984E-002     1.0255396521146459E-013
  -8.6999999999999994E-002     2.3631725916406499E-013
  -8.5899999999999990E-002     1.9737277133849429E-014
  -8.4799999999999986E-002    -5.6198687196917785E-013
  -8.3699999999999997E-002    -7.4491302883006316E-013
  -8.2599999999999993E-002     3.2555124503293176E-013
  -8.1499999999999989E-002     2.0028117619225183E-012
  -8.0399999999999999E-002     1.9334260754899635E-012
  -7.9299999999999995E-002    -1.2689729909226566E-012
  -7.8199999999999992E-002    -5.1918244009518943E-012
  -7.7100000000000002E-002    -5.1436910286639659E-012
  -7.5999999999999984E-002     7.5718424585868860E-013
  -7.4899999999999994E-002     9.4544398351881220E-012
  -7.3799999999999991E-002     1.5867892069754141E-011
  -7.2699999999999987E-002     1.3896205366958903E-011
  -7.1599999999999997E-002    -6.0116013729516471E-012
  -7.0499999999999993E-002    -4.7631395355685058E-011
  -6.9399999999999989E-002    -8.2122836309039826E-011
  -6.8300000000000000E-002    -4.2912985664944614E-011
  -6.7199999999999996E-002     1.0642126763160675E-010
  -6.6099999999999992E-002     2.7077043385226318E-010
  -6.5000000000000002E-002     2.3818902405992048E-010
  -6.3899999999999985E-002    -1.0853706822189224E-010
  -6.2799999999999995E-002    -5.6691140670750428E-010
  -6.1699999999999991E-002    -6.9612854369793808E-010
  -6.0599999999999994E-002    -2.3547155891812110E-010
  -5.9499999999999990E-002     5.6993060271182117E-010
  -5.8399999999999994E-002     1.1564849078382622E-009
  -5.7299999999999990E-002     1.1538592303850237E-009
  -5.6199999999999986E-002     5.9637667026990471E-010
  -5.5099999999999996E-002    -3.5291433664319527E-010
  -5.3999999999999992E-002    -1.5913139694845313E-009
  -5.2899999999999989E-002    -2.7435684835097618E-009
  -5.1799999999999985E-002    -2.8901201432063317E-009
  -5.0699999999999995E-002    -1.2182085340484150E-009
  -4.9599999999999991E-002     1.8520298628033061E-009
  -4.8499999999999988E-002     4.6655825869379441E-009
  -4.7399999999999998E-002     5.8753264475797096E-009
  -4.6299999999999994E-002     5.5818847322086640E-009
  -4.5199999999999990E-002     4.2465519989320910E-009
  -4.4099999999999986E-002     8.5925205839387786E-010
  -4.2999999999999997E-002    -6.2497265140848413E-009
  -4.1899999999999993E-002    -1.5866804758957187E-008
  -4.0799999999999989E-002    -2.2329867732651110E-008
  -3.9699999999999985E-002    -1.9500069114997132E-008
  -3.8599999999999995E-002    -6.7064922504300739E-009
  -3.7499999999999992E-002     1.0531121752421768E-008
  -3.6399999999999988E-002     2.6116303786238859E-008
  -3.5299999999999984E-002     3.8088309395334363E-008
  -3.4199999999999994E-002     4.6523577879042932E-008
  -3.3099999999999991E-002     4.8439218858220556E-008
  -3.1999999999999987E-002     3.7617066794837228E-008
  -3.0899999999999997E-002     9.6447188013826235E-009
  -2.9799999999999993E-002    -3.4908207879880138E-008
  -2.8699999999999989E-002    -9.1594422713114909E-008
  -2.7599999999999986E-002    -1.5144112808229693E-007
  -2.6499999999999996E-002    -1.9639661275050457E-007
  -2.5399999999999992E-002    -2.0044299731125648E-007
  -2.4299999999999988E-002    -1.4339340737024031E-007
  -2.3199999999999985E-002    -2.4832690570519844E-008
  -2.2099999999999995E-002     1.4169286544074566E-007
  -2.0999999999999991E-002     3.5007099086215021E-007
  -1.9899999999999987E-002     6.0844297422590898E-007
  -1.8799999999999983E-002     9.1682056790887145E-007
  -1.7699999999999994E-002     1.2451953352865530E-006
  -1.6599999999999990E-002     1.5509538116020849E-006
  -1.5499999999999986E-002     1.8241516954731196E-006
  -1.4399999999999996E-002     2.1041585114289774E-006
  -1.3299999999999992E-002     2.4419387045782059E-006
  -1.2199999999999989E-002     2.8558154099300737E-006
  -1.1099999999999985E-002     3.3414066820114385E-006
  -9.9999999999999950E-003     3.9232400013133883E-006
  -8.8999999999999913E-003     4.6767972889938392E-006
  -7.7999999999999875E-003     5.6909043451014441E-006
  -6.6999999999999837E-003     7.0235755629255436E-006
  -5.5999999999999939E-003     8.7077796706580557E-006
  -4.4999999999999901E-003     1.0785234735521954E-005
  -3.3999999999999864E-003     1.3311216207512189E-005
  -2.2999999999999826E-003     1.6334090105374344E-005
  -1.1999999999999927E-003     1.9903905922546983E-005
  -9.9999999999988987E-005     2.4111635866574943E-005
   1.0000000000000148E-003     2.9093203920638189E-005
   2.1000000000000185E-003     3.4976132155861706E-005
   3.2000000000000084E-003     4.1857823816826567E-005
   4.3000000000000121E-003     4.9884627514984459E-005
   5.4000000000000159E-003     5.9334968682378531E-005
   6.5000000000000058E-003     7.0551781391259283E-005
   7.6000000000000234E-003     8.3760125562548637E-005
   8.7000000000000133E-003     9.9010045232716948E-005
   9.8000000000000032E-003     1.1638152500381693E-004
   1.0900000000000021E-002     1.3623012637253851E-004
   1.2000000000000011E-002     1.5913760580588132E-004
   1.3100000000000001E-002     1.8559908494353294E-004
   1.4200000000000018E-002     2.1583598572760820E-004
   1.5300000000000008E-002     2.4997213040478528E-004
   1.6400000000000026E-002     2.8834393015131354E-004
   1.7500000000000016E-002     3.3153514959849417E-004
   1.8600000000000005E-002     3.8013013545423746E-004
   1.9700000000000023E-002     4.3449251097626984E-004
   2.0800000000000013E-002     4.9482862232252955E-004
   2.1900000000000003E-002     5.6134985061362386E-004
   2.3000000000000020E-002     6.3431554008275270E-004
   2.4100000000000010E-002     7.1402173489332199E-004
   2.5200000000000000E-002     8.0086756497621536E-004
   2.6300000000000018E-002     8.9526589727029204E-004
   2.7400000000000008E-002     9.9729502107948065E-004
   2.8500000000000025E-002     1.1064605787396431E-003
   2.9600000000000015E-002     1.2219627387821674E-003
   3.0700000000000005E-002     1.3433712301775813E-003
   3.1800000000000023E-002     1.4708514790982008E-003
   3.2900000000000013E-002     1.6043719369918108E-003
   3.4000000000000002E-002     1.7427257262170315E-003
   3.5100000000000020E-002     1.8836987437680364E-003
   3.6200000000000010E-002     2.0250745583325624E-003
   3.7300000000000028E-002     2.1654882002621889E-003
   3.8400000000000017E-002     2.3040228988975286E-003
   3.9500000000000007E-002     2.4388474412262440E-003
   4.0600000000000025E-002     2.5665794964879751E-003
   4.1700000000000015E-002     2.6833666488528252E-003
   4.2800000000000005E-002     2.7860943228006363E-003
   4.3900000000000022E-002     2.8719948604702950E-003
   4.5000000000000012E-002     2.9379173647612333E-003
   4.6100000000000002E-002     2.9802296776324511E-003
   4.7200000000000020E-002     2.9952146578580141E-003
   4.8300000000000010E-002     2.9785328079015017E-003
   4.9400000000000027E-002     2.9247992206364870E-003
   5.0500000000000017E-002     2.8290890622884035E-003
   5.1600000000000007E-002     2.6888339780271053E-003
   5.2700000000000025E-002     2.5034251157194376E-003
   5.3800000000000014E-002     2.2706151939928532E-003
   5.4900000000000004E-002     1.9846691284328699E-003
   5.6000000000000022E-002     1.6400844324380159E-003
   5.7100000000000012E-002     1.2361283879727125E-003
   5.8200000000000002E-002     7.7529874397441745E-004
   5.9300000000000019E-002     2.6014217291958630E-004
   6.0400000000000009E-002    -3.0975620029494166E-004
   6.1500000000000027E-002    -9.3552703037858009E-004
   6.2600000000000017E-002    -1.6152366297319531E-003
   6.3700000000000007E-002    -2.3442392703145742E-003
   6.4800000000000024E-002    -3.1146334949880838E-003
   6.5900000000000014E-002    -3.9177960716187954E-003
   6.7000000000000004E-002    -4.7458396293222904E-003
   6.8100000000000022E-002    -5.5916165001690388E-003
   6.9200000000000012E-002    -6.4475596882402897E-003
   7.0300000000000029E-002    -7.3048067279160023E-003
   7.1400000000000019E-002    -8.1501668319106102E-003
   7.2500000000000009E-002    -8.9656403288245201E-003
   7.3600000000000027E-002    -9.7355740144848824E-003
   7.4700000000000016E-002    -1.0450487025082111E-002
   7.5800000000000006E-002    -1.1103410273790359E-002
   7.6900000000000024E-002    -1.1682400479912758E-002
   7.8000000000000014E-002    -1.2169394642114639E-002
   7.9100000000000004E-002    -1.2547041289508343E-002
   8.0200000000000021E-002    -1.2804042547941208E-002
   8.1300000000000011E-002    -1.2934489175677299E-002
   8.2400000000000029E-002    -1.2933518737554550E-002
   8.3500000000000019E-002    -1.2795074842870235E-002
   8.4600000000000009E-002    -1.2512053363025188E-002
   8.5700000000000026E-002    -1.2077700346708298E-002
   8.6800000000000016E-002    -1.1488690972328186E-002
   8.7900000000000006E-002    -1.0747730731964111E-002
   8.9000000000000024E-002    -9.8635740578174591E-003
   9.0100000000000013E-002    -8.8467514142394066E-003
   9.1200000000000003E-002    -7.7055371366441250E-003
   9.2300000000000021E-002    -6.4460197463631630E-003
   9.3400000000000011E-002    -5.0761681050062180E-003
   9.4500000000000028E-002    -3.6109366919845343E-003
   9.5600000000000018E-002    -2.0738041494041681E-003
   9.6700000000000008E-002    -4.9074052367359400E-004
   9.7800000000000026E-002     1.1186698684468865E-003
   9.8900000000000016E-002     2.7408031746745110E-003
  0.10000000000000001          4.3611121363937855E-003
  0.10110000000000002          5.9592938050627708E-003
  0.10220000000000001          7.5066778808832169E-003
  0.10330000000000003          8.9741200208663940E-003
  0.10440000000000002          1.0341901332139969E-002
  0.10550000000000001          1.1599655263125896E-002
  0.10660000000000003          1.2738178484141827E-002
  0.10770000000000002          1.3743539340794086E-002
  0.10880000000000001          1.4597032219171524E-002
  0.10990000000000003          1.5282336622476578E-002
  0.11100000000000002          1.5790779143571854E-002
  0.11210000000000001          1.6120461747050285E-002
  0.11320000000000002          1.6275620087981224E-002
  0.11430000000000001          1.6261937096714973E-002
  0.11540000000000003          1.6081972047686577E-002
  0.11650000000000002          1.5735292807221413E-002
  0.11760000000000001          1.5223550610244274E-002
  0.11870000000000003          1.4555936679244041E-002
  0.11980000000000002          1.3752825558185577E-002
  0.12090000000000001          1.2840423732995987E-002
  0.12200000000000003          1.1836001649498940E-002
  0.12310000000000001          1.0742698796093464E-002
  0.12420000000000003          9.5645301043987274E-003
  0.12530000000000002          8.3238966763019562E-003
  0.12640000000000001          7.0556043647229671E-003
  0.12750000000000003          5.7847383432090282E-003
  0.12860000000000002          4.5196679420769215E-003
  0.12970000000000001          3.2645561732351780E-003
  0.13080000000000003          2.0340797491371632E-003
  0.13190000000000002          8.4940396482124925E-004
  0.13300000000000001         -2.7481414144858718E-004
  0.13410000000000000         -1.3299962738528848E-003
  0.13520000000000004         -2.3048578295856714E-003
  0.13630000000000003         -3.1866561621427536E-003
  0.13740000000000002         -3.9733666926622391E-003
  0.13850000000000001         -4.6728360466659069E-003
  0.13960000000000000         -5.2862749435007572E-003
  0.14070000000000005         -5.8002546429634094E-003
  0.14180000000000004         -6.2015559524297714E-003
  0.14290000000000003         -6.4967637881636620E-003
  0.14400000000000002         -6.7078778520226479E-003
  0.14510000000000001         -6.8474258296191692E-003
  0.14620000000000000         -6.9082393310964108E-003
  0.14730000000000004         -6.8818530999124050E-003
  0.14840000000000003         -6.7782592959702015E-003
  0.14950000000000002         -6.6182594746351242E-003
  0.15060000000000001         -6.4119398593902588E-003
  0.15170000000000000         -6.1568142846226692E-003
  0.15280000000000005         -5.8565074577927589E-003
  0.15390000000000004         -5.5284108966588974E-003
  0.15500000000000003         -5.1866965368390083E-003
  0.15610000000000002         -4.8279985785484314E-003
  0.15720000000000001         -4.4445609673857689E-003
  0.15830000000000000         -4.0465742349624634E-003
  0.15940000000000004         -3.6586222704499960E-003
  0.16050000000000003         -3.2926071435213089E-003
  0.16160000000000002         -2.9365848749876022E-003
  0.16270000000000001         -2.5773502420634031E-003
  0.16380000000000000         -2.2236041259020567E-003
  0.16490000000000005         -1.8958754371851683E-003
  0.16600000000000004         -1.6001224284991622E-003
  0.16710000000000003         -1.3239760883152485E-003
  0.16820000000000002         -1.0595101630315185E-003
  0.16930000000000001         -8.1634981324896216E-004
  0.17040000000000000         -6.0437113279476762E-004
  0.17150000000000004         -4.1565785068087280E-004
  0.17260000000000003         -2.3671069357078522E-004
  0.17370000000000002         -7.1832793764770031E-005
  0.17480000000000001          6.1336511862464249E-005
  0.17590000000000000          1.6011155094020069E-004
  0.17700000000000005          2.4596831644885242E-004
  0.17810000000000004          3.3689336851239204E-004
  0.17920000000000003          4.2220455361530185E-004
  0.18030000000000002          4.7865023952908814E-004
  0.18140000000000001          5.0487072439864278E-004
  0.18250000000000000          5.2446237532421947E-004
  0.18360000000000004          5.5343908024951816E-004
  0.18470000000000003          5.8031291700899601E-004
  0.18580000000000002          5.8700609952211380E-004
  0.18690000000000001          5.7699036551639438E-004
  0.18800000000000000          5.6861893972381949E-004
  0.18910000000000005          5.6664220755919814E-004
  0.19020000000000004          5.5730936583131552E-004
  0.19130000000000003          5.3361622849479318E-004
  0.19240000000000002          5.0890952115878463E-004
  0.19350000000000001          4.9610092537477612E-004
  0.19460000000000005          4.8550576320849359E-004
  0.19570000000000004          4.5839534141123295E-004
  0.19680000000000003          4.1761843021959066E-004
  0.19790000000000002          3.8655177922919393E-004
  0.19900000000000001          3.7510457332246006E-004
  0.20010000000000000          3.6401406396180391E-004
  0.20120000000000005          3.3236949821002781E-004
  0.20230000000000004          2.8815559926442802E-004
  0.20340000000000003          2.5655701756477356E-004
  0.20450000000000002          2.4359842063859105E-004
  0.20560000000000000          2.2900219482835382E-004
  0.20670000000000005          1.9729840278159827E-004
  0.20780000000000004          1.5949220687616616E-004
  0.20890000000000003          1.3419431343208998E-004
