 -0.12000000000000000          0.0000000000000000     
 -0.11889999999999999          0.0000000000000000     
 -0.11780000000000000          1.0369223673478700E-005
 -0.11670000000000000         -5.7232368817494716E-006
 -0.11559999999999999         -4.2934650991810486E-005
 -0.11449999999999999         -3.8957938386374735E-007
 -0.11340000000000000          9.4690716650802642E-005
 -0.11230000000000000          3.1441515602637082E-005
 -0.11119999999999999         -1.4012589235790074E-004
 -0.11009999999999999         -9.9468052212614566E-006
 -0.10900000000000000          3.5118305822834373E-004
 -0.10790000000000000          7.0352543843910098E-005
 -0.10679999999999999         -1.0058366460725665E-003
 -0.10569999999999999         -1.1534411460161209E-003
 -0.10460000000000000          9.8876503761857748E-004
 -0.10349999999999999          3.2284287735819817E-003
 -0.10239999999999999          1.7115196678787470E-003
 -0.10130000000000000         -2.9275354463607073E-003
 -0.10020000000000000         -4.6732649207115173E-003
  -9.9099999999999994E-002    -3.8570066681131721E-004
  -9.7999999999999990E-002     4.0956600569188595E-003
  -9.6899999999999986E-002     1.4647960197180510E-003
  -9.5799999999999996E-002    -4.8546614125370979E-003
  -9.4699999999999993E-002    -3.7123102229088545E-003
  -9.3599999999999989E-002     6.4507951028645039E-003
  -9.2499999999999999E-002     1.1895688250660896E-002
  -9.1399999999999995E-002     2.4195110891014338E-003
  -9.0299999999999991E-002    -1.0690511204302311E-002
  -8.9200000000000002E-002    -7.6328716240823269E-003
  -8.8099999999999984E-002     1.0320361703634262E-002
  -8.6999999999999994E-002     1.8833961337804794E-002
  -8.5899999999999990E-002     4.0515675209462643E-003
  -8.4799999999999986E-002    -1.5296882949769497E-002
  -8.3699999999999997E-002    -1.2509953230619431E-002
  -8.2599999999999993E-002     8.8678849861025810E-003
  -8.1499999999999989E-002     1.9944028928875923E-002
  -8.0399999999999999E-002     8.7498230859637260E-003
  -7.9299999999999995E-002    -3.2655422110110521E-003
  -7.8199999999999992E-002     4.3238373473286629E-003
  -7.7100000000000002E-002     1.9254587590694427E-002
  -7.5999999999999984E-002     1.8021425232291222E-002
  -7.4899999999999994E-002     6.3531380146741867E-003
  -7.3799999999999991E-002     1.1513298377394676E-002
  -7.2699999999999987E-002     3.5368312150239944E-002
  -7.1599999999999997E-002     4.5219242572784424E-002
  -7.0499999999999993E-002     2.4614410474896431E-002
  -6.9399999999999989E-002     6.7411833442747593E-003
  -6.8300000000000000E-002     3.0035480856895447E-002
  -6.7199999999999996E-002     7.6329529285430908E-002
  -6.6099999999999992E-002     9.0160705149173737E-002
  -6.5000000000000002E-002     6.0223892331123352E-002
  -6.3899999999999985E-002     4.2098358273506165E-002
  -6.2799999999999995E-002     8.0369465053081512E-002
  -6.1699999999999991E-002    0.14100548624992371     
  -6.0599999999999994E-002    0.15796764194965363     
  -5.9499999999999990E-002    0.12972596287727356     
  -5.8399999999999994E-002    0.12231443077325821     
  -5.7299999999999990E-002    0.17255699634552002     
  -5.6199999999999986E-002    0.23567068576812744     
  -5.5099999999999996E-002    0.25513061881065369     
  -5.3999999999999992E-002    0.24713100492954254     
  -5.2899999999999989E-002    0.27071234583854675     
  -5.1799999999999985E-002    0.33317717909812927     
  -5.0699999999999995E-002    0.38103821873664856     
  -4.9599999999999991E-002    0.39012768864631653     
  -4.8499999999999988E-002    0.40861374139785767     
  -4.7399999999999998E-002    0.47830364108085632     
  -4.6299999999999994E-002    0.55759626626968384     
  -4.5199999999999990E-002    0.57788068056106567     
  -4.4099999999999986E-002    0.55546700954437256     
  -4.2999999999999997E-002    0.58027160167694092     
  -4.1899999999999993E-002    0.68320381641387939     
  -4.0799999999999989E-002    0.77865827083587646     
  -3.9699999999999985E-002    0.78005164861679077     
  -3.8599999999999995E-002    0.72470581531524658     
  -3.7499999999999992E-002    0.72227293252944946     
  -3.6399999999999988E-002    0.79707473516464233     
  -3.5299999999999984E-002    0.85608935356140137     
  -3.4199999999999994E-002    0.82521158456802368     
  -3.3099999999999991E-002    0.74981629848480225     
  -3.1999999999999987E-002    0.71373337507247925     
  -3.0899999999999997E-002    0.70765829086303711     
  -2.9799999999999993E-002    0.65076649188995361     
  -2.8699999999999989E-002    0.52599024772644043     
  -2.7599999999999986E-002    0.40637278556823730     
  -2.6499999999999996E-002    0.33219739794731140     
  -2.5399999999999992E-002    0.23282973468303680     
  -2.4299999999999988E-002     2.9486477375030518E-002
  -2.3199999999999985E-002   -0.23485136032104492     
  -2.2099999999999995E-002   -0.44910228252410889     
  -2.0999999999999991E-002   -0.59970861673355103     
  -1.9899999999999987E-002   -0.79752397537231445     
  -1.8799999999999983E-002    -1.1152526140213013     
  -1.7699999999999994E-002    -1.4778009653091431     
  -1.6599999999999990E-002    -1.7708071470260620     
  -1.5499999999999986E-002    -2.0074064731597900     
  -1.4399999999999996E-002    -2.2962908744812012     
  -1.3299999999999992E-002    -2.6665649414062500     
  -1.2199999999999989E-002    -3.0232853889465332     
  -1.1099999999999985E-002    -3.2913491725921631     
  -9.9999999999999950E-003    -3.5218343734741211     
  -8.8999999999999913E-003    -3.8060121536254883     
  -7.7999999999999875E-003    -4.1197342872619629     
  -6.6999999999999837E-003    -4.3515720367431641     
  -5.5999999999999939E-003    -4.4599866867065430     
  -4.4999999999999901E-003    -4.5345869064331055     
  -3.3999999999999864E-003    -4.6405715942382812     
  -2.2999999999999826E-003    -4.7237396240234375     
  -1.1999999999999927E-003    -4.6799616813659668     
  -9.9999999999988987E-005    -4.5098929405212402     
   1.0000000000000148E-003    -4.3122243881225586     
   2.1000000000000185E-003    -4.1122560501098633     
   3.2000000000000084E-003    -3.8293392658233643     
   4.3000000000000121E-003    -3.3999032974243164     
   5.4000000000000159E-003    -2.8836691379547119     
   6.5000000000000058E-003    -2.3705065250396729     
   7.6000000000000234E-003    -1.8493344783782959     
   8.7000000000000133E-003    -1.2242536544799805     
   9.8000000000000032E-003   -0.47015768289566040     
   1.0900000000000021E-002    0.31823903322219849     
   1.2000000000000011E-002     1.0617148876190186     
   1.3100000000000001E-002     1.7881232500076294     
   1.4200000000000018E-002     2.5773494243621826     
   1.5300000000000008E-002     3.4203357696533203     
   1.6400000000000026E-002     4.2237558364868164     
   1.7500000000000016E-002     4.9398155212402344     
   1.8600000000000005E-002     5.6161336898803711     
   1.9700000000000023E-002     6.2956337928771973     
   2.0800000000000013E-002     6.9292678833007812     
   2.1900000000000003E-002     7.4360208511352539     
   2.3000000000000020E-002     7.8121581077575684     
   2.4100000000000010E-002     8.1265802383422852     
   2.5200000000000000E-002     8.4024019241333008     
   2.6300000000000018E-002     8.5734329223632812     
   2.7400000000000008E-002     8.5770969390869141     
   2.8500000000000025E-002     8.4358873367309570     
   2.9600000000000015E-002     8.2163991928100586     
   3.0700000000000005E-002     7.9319620132446289     
   3.1800000000000023E-002     7.5346112251281738     
   3.2900000000000013E-002     7.0018110275268555     
   3.4000000000000002E-002     6.3753962516784668     
   3.5100000000000020E-002     5.6997208595275879     
   3.6200000000000010E-002     4.9701471328735352     
   3.7300000000000028E-002     4.1514792442321777     
   3.8400000000000017E-002     3.2600574493408203     
   3.9500000000000007E-002     2.3575549125671387     
   4.0600000000000025E-002     1.4821045398712158     
   4.1700000000000015E-002    0.60645592212677002     
   4.2800000000000005E-002   -0.28851363062858582     
   4.3900000000000022E-002    -1.1877998113632202     
   4.5000000000000012E-002    -2.0375611782073975     
   4.6100000000000002E-002    -2.8186316490173340     
   4.7200000000000020E-002    -3.5268838405609131     
   4.8300000000000010E-002    -4.1712312698364258     
   4.9400000000000027E-002    -4.7400822639465332     
   5.0500000000000017E-002    -5.2385005950927734     
   5.1600000000000007E-002    -5.6622200012207031     
   5.2700000000000025E-002    -5.9938015937805176     
   5.3800000000000014E-002    -6.2202877998352051     
   5.4900000000000004E-002    -6.3425436019897461     
   5.6000000000000022E-002    -6.3854184150695801     
   5.7100000000000012E-002    -6.3576102256774902     
   5.8200000000000002E-002    -6.2472047805786133     
   5.9300000000000019E-002    -6.0580325126647949     
   6.0400000000000009E-002    -5.8105106353759766     
   6.1500000000000027E-002    -5.5142054557800293     
   6.2600000000000017E-002    -5.1561489105224609     
   6.3700000000000007E-002    -4.7308812141418457     
   6.4800000000000024E-002    -4.2707986831665039     
   6.5900000000000014E-002    -3.8159866333007812     
   6.7000000000000004E-002    -3.3735125064849854     
   6.8100000000000022E-002    -2.9047172069549561     
   6.9200000000000012E-002    -2.3961055278778076     
   7.0300000000000029E-002    -1.8898779153823853     
   7.1400000000000019E-002    -1.4365565776824951     
   7.2500000000000009E-002    -1.0244625806808472     
   7.3600000000000027E-002   -0.60541760921478271     
   7.4700000000000016E-002   -0.18205991387367249     
   7.5800000000000006E-002    0.18575735390186310     
   7.6900000000000024E-002    0.46962010860443115     
   7.8000000000000014E-002    0.72316867113113403     
   7.9100000000000004E-002     1.0028086900711060     
   8.0200000000000021E-002     1.2747942209243774     
   8.1300000000000011E-002     1.4531900882720947     
   8.2400000000000029E-002     1.5318089723587036     
   8.3500000000000019E-002     1.6004165410995483     
   8.4600000000000009E-002     1.7137656211853027     
   8.5700000000000026E-002     1.8150708675384521     
   8.6800000000000016E-002     1.8233705759048462     
   8.7900000000000006E-002     1.7620600461959839     
   8.9000000000000024E-002     1.7235248088836670     
   9.0100000000000013E-002     1.7278184890747070     
   9.1200000000000003E-002     1.6909648180007935     
   9.2300000000000021E-002     1.5648043155670166     
   9.3400000000000011E-002     1.4260511398315430     
   9.4500000000000028E-002     1.3671462535858154     
   9.5600000000000018E-002     1.3494982719421387     
   9.6700000000000008E-002     1.2537168264389038     
   9.7800000000000026E-002     1.0641374588012695     
   9.8900000000000016E-002    0.90332466363906860     
  0.10000000000000001         0.85505688190460205     
  0.10110000000000002         0.84135830402374268     
  0.10220000000000001         0.73899799585342407     
  0.10330000000000003         0.56650000810623169     
  0.10440000000000002         0.45454370975494385     
  0.10550000000000001         0.44202661514282227     
  0.10660000000000003         0.41847711801528931     
  0.10770000000000002         0.30099955201148987     
  0.10880000000000001         0.17050926387310028     
  0.10990000000000003         0.14625228941440582     
  0.11100000000000002         0.19349531829357147     
  0.11210000000000001         0.16761566698551178     
  0.11320000000000002          3.4073304384946823E-002
  0.11430000000000001         -6.7651942372322083E-002
  0.11540000000000003         -3.1448822468519211E-002
  0.11650000000000002          5.2322376519441605E-002
  0.11760000000000001          2.8903417289257050E-002
  0.11870000000000003         -8.8842891156673431E-002
  0.11980000000000002        -0.14301380515098572     
  0.12090000000000001         -7.3374748229980469E-002
  0.12200000000000003         -6.9082789123058319E-003
  0.12310000000000001         -5.8050945401191711E-002
  0.12420000000000003        -0.15076319873332977     
  0.12530000000000002        -0.13848660886287689     
  0.12640000000000001         -3.7181876599788666E-002
  0.12750000000000003         -4.7308350913226604E-003
  0.12860000000000002         -9.5540262758731842E-002
  0.12970000000000001        -0.17092059552669525     
  0.13080000000000003        -0.10960830003023148     
  0.13190000000000002          4.1854204609990120E-003
  0.13300000000000001          5.2942652255296707E-003
  0.13410000000000000        -0.10098424553871155     
  0.13520000000000004        -0.14751112461090088     
  0.13630000000000003         -6.0555875301361084E-002
  0.13740000000000002          2.8229054063558578E-002
  0.13850000000000001         -1.2536073103547096E-002
  0.13960000000000000        -0.11142510920763016     
  0.14070000000000005        -0.10638925433158875     
  0.14180000000000004          2.7370885945856571E-003
  0.14290000000000003          5.2215941250324249E-002
  0.14400000000000002         -3.2627273350954056E-002
  0.14510000000000001        -0.12016491591930389     
  0.14620000000000000         -7.3452487587928772E-002
  0.14730000000000004          4.0294993668794632E-002
  0.14840000000000003          5.3015809506177902E-002
  0.14950000000000002         -4.8235487192869186E-002
  0.15060000000000001        -0.10427664965391159     
  0.15170000000000000         -2.9953671619296074E-002
  0.15280000000000005          5.8316726237535477E-002
  0.15390000000000004          2.6351971551775932E-002
  0.15500000000000003         -7.0472896099090576E-002
  0.15610000000000002         -7.6582990586757660E-002
  0.15720000000000001          2.0064104348421097E-002
  0.15830000000000000          6.9285266101360321E-002
  0.15940000000000004         -7.3578529991209507E-003
  0.16050000000000003         -9.3102037906646729E-002
  0.16160000000000002         -5.4532490670681000E-002
  0.16270000000000001          5.2876785397529602E-002
  0.16380000000000000          6.9344736635684967E-002
  0.16490000000000005         -2.6749277487397194E-002
  0.16600000000000004         -8.8642105460166931E-002
  0.16710000000000003         -2.6059325784444809E-002
  0.16820000000000002          6.1288431286811829E-002
  0.16930000000000001          4.1506793349981308E-002
  0.17040000000000000         -4.8617366701364517E-002
  0.17150000000000004         -6.6964589059352875E-002
  0.17260000000000003          1.2722577899694443E-002
  0.17370000000000002          6.4213275909423828E-002
  0.17480000000000001          7.5362827628850937E-003
  0.17590000000000000         -6.7877829074859619E-002
  0.17700000000000005         -4.4332347810268402E-002
  0.17810000000000004          4.2177148163318634E-002
  0.17920000000000003          5.9289187192916870E-002
  0.18030000000000002         -1.7539992928504944E-002
  0.18140000000000001         -6.9949544966220856E-002
  0.18250000000000000         -1.9904544577002525E-002
  0.18360000000000004          5.3405378013849258E-002
  0.18470000000000003          3.8863562047481537E-002
  0.18580000000000002         -3.7035010755062103E-002
  0.18690000000000001         -5.6156385689973831E-002
  0.18800000000000000          8.2489820197224617E-003
  0.18910000000000005          5.4398473352193832E-002
  0.19020000000000004          1.2218418531119823E-002
  0.19130000000000003         -5.0632633268833160E-002
  0.19240000000000002         -3.6760140210390091E-002
  0.19350000000000001          3.1267635524272919E-002
  0.19460000000000005          4.8776522278785706E-002
  0.19570000000000004         -9.3865683302283287E-003
  0.19680000000000003         -5.3672011941671371E-002
  0.19790000000000002         -1.9005605950951576E-002
  0.19900000000000001          3.8957308977842331E-002
  0.20010000000000000          3.3610340207815170E-002
  0.20120000000000005         -2.1750399842858315E-002
  0.20230000000000004         -4.0711827576160431E-002
  0.20340000000000003          1.5643303049728274E-003
  0.20450000000000002          3.5745479166507721E-002
  0.20560000000000000          1.0260476730763912E-002
  0.20670000000000005         -3.1215747818350792E-002
  0.20780000000000004         -2.2757178172469139E-002
  0.20890000000000003          2.0567722618579865E-002
