 -0.12000000000000000          0.0000000000000000
 -0.11889999999999999          0.0000000000000000
 -0.11780000000000000          0.0000000000000000
 -0.11670000000000000          0.0000000000000000
 -0.11559999999999999          0.0000000000000000
 -0.11449999999999999          0.0000000000000000
 -0.11340000000000000          0.0000000000000000
 -0.11230000000000000          4.5173367227286533E-021
 -0.11119999999999999         -2.1335585054060316E-021
 -0.11009999999999999         -5.0255093159369238E-020
 -0.10900000000000000          6.3249081147095817E-021
 -0.10790000000000000          3.2296879276220831E-019
 -0.10679999999999999          1.0674503433646278E-019
 -0.10569999999999999         -1.4623059134956105E-018
 -0.10460000000000000         -1.2596261906999581E-018
 -0.10349999999999999          4.7662514990678041E-018
 -0.10239999999999999          7.2483628505786299E-018
 -0.10130000000000000         -1.0592433209906969E-017
 -0.10020000000000000         -2.7792567132622285E-017
  -9.9099999999999994E-002     1.2570451183550935E-017
  -9.7999999999999990E-002     7.9820487274198914E-017
  -9.6899999999999986E-002     1.2145859375127466E-017
  -9.5799999999999996E-002    -1.8955670917265182E-016
  -9.4699999999999993E-002    -1.2844009241981205E-016
  -9.3599999999999989E-002     3.9215229942820152E-016
  -9.2499999999999999E-002     5.3949026600151845E-016
  -9.1399999999999995E-002    -6.0574322437205929E-016
  -9.0299999999999991E-002    -1.6980255617787777E-015
  -8.9200000000000002E-002     1.2997041625770455E-016
  -8.8099999999999984E-002     3.8443754981438896E-015
  -8.6999999999999994E-002     2.7951547275888037E-015
  -8.5899999999999990E-002    -5.4413002661295781E-015
  -8.4799999999999986E-002    -9.5917426494343365E-015
  -8.3699999999999997E-002     2.5228179649370219E-015
  -8.2599999999999993E-002     1.8417230495662226E-014
  -8.1499999999999989E-002     8.2132575141501650E-015
  -8.0399999999999999E-002    -2.5318190876059618E-014
  -7.9299999999999995E-002    -2.8646860952179568E-014
  -7.8199999999999992E-002     2.6885462714627828E-014
  -7.7100000000000002E-002     6.7104619929335418E-014
  -7.5999999999999984E-002    -4.8576907538231025E-015
  -7.4899999999999994E-002    -1.2584727639326776E-013
  -7.3799999999999991E-002    -8.8558900609905095E-014
  -7.2699999999999987E-002     1.4607455869897201E-013
  -7.1599999999999997E-002     2.6607229332113735E-013
  -7.0499999999999993E-002    -1.4646290636462916E-014
  -6.9399999999999989E-002    -4.1285120396146457E-013
  -6.8300000000000000E-002    -2.8991365514860479E-013
  -6.7199999999999996E-002     3.7689499416369843E-013
  -6.6099999999999992E-002     6.6022854501232575E-013
  -6.5000000000000002E-002    -1.0487738336204672E-013
  -6.3899999999999985E-002    -1.0222491256262067E-012
  -6.2799999999999995E-002    -5.2546834071465209E-013
  -6.1699999999999991E-002     1.1612621671555634E-012
  -6.0599999999999994E-002     1.6429056465955272E-012
  -5.9499999999999990E-002    -4.3080491431146672E-013
  -5.8399999999999994E-002    -2.6582687873838440E-012
  -5.7299999999999990E-002    -1.4798648417801985E-012
  -5.6199999999999986E-002     2.3741883025535371E-012
  -5.5099999999999996E-002     3.6569926774310257E-012
  -5.3999999999999992E-002    -3.4671514249039193E-013
  -5.2899999999999989E-002    -4.7691898173718439E-012
  -5.1799999999999985E-002    -2.8353621533971918E-012
  -5.0699999999999995E-002     3.9462998840944508E-012
  -4.9599999999999991E-002     6.1617963335869330E-012
  -4.8499999999999988E-002    -6.3214413087778198E-013
  -4.7399999999999998E-002    -7.9608594022451129E-012
  -4.6299999999999994E-002    -4.8448896804165198E-012
  -4.5199999999999990E-002     5.9953465803008754E-012
  -4.4099999999999986E-002     1.0003358384691463E-011
  -4.2999999999999997E-002     7.0874453224692435E-013
  -4.1899999999999993E-002    -9.9524017499463824E-012
  -4.0799999999999989E-002    -7.5308067074009166E-012
  -3.9699999999999985E-002     4.1724605541471060E-012
  -3.8599999999999995E-002     8.2181275673498533E-012
  -3.7499999999999992E-002    -6.3641670058900424E-013
  -3.6399999999999988E-002    -8.0516036546351977E-012
  -3.5299999999999984E-002    -1.8645905132397278E-012
  -3.4199999999999994E-002     9.1504139335119028E-012
  -3.3099999999999991E-002     8.9049496942994466E-012
  -3.1999999999999987E-002    -8.5712508054655578E-013
  -3.0899999999999997E-002    -4.3748980133040405E-012
  -2.9799999999999993E-002     6.2667395144683224E-013
  -2.8699999999999989E-002    -1.9753673523303927E-012
  -2.7599999999999986E-002    -1.6764046747996808E-011
  -2.6499999999999996E-002    -2.0917271387199676E-011
  -2.5399999999999992E-002     2.9942175041458574E-012
  -2.4299999999999988E-002     3.0768766007271964E-011
  -2.3199999999999985E-002     2.1648766113102624E-011
  -2.2099999999999995E-002    -1.9667056178063191E-011
  -2.0999999999999991E-002    -3.8431577364939074E-011
  -1.9899999999999987E-002    -5.0983444896401942E-012
  -1.8799999999999983E-002     3.2654840637080795E-011
  -1.7699999999999994E-002     9.2144503832658486E-012
  -1.6599999999999990E-002    -5.9762590709500074E-011
  -1.5499999999999986E-002    -8.4332964223055029E-011
  -1.4399999999999996E-002    -1.9595804146010920E-011
  -1.3299999999999992E-002     6.4436289637370692E-011
  -1.2199999999999989E-002     6.8664129937445750E-011
  -1.1099999999999985E-002    -7.3283167728588339E-012
  -9.9999999999999950E-003    -7.1437647464200893E-011
  -8.8999999999999913E-003    -6.8146689680137484E-011
  -7.7999999999999875E-003    -4.3199541166494271E-011
  -6.6999999999999837E-003    -6.1488959757216577E-011
  -5.5999999999999939E-003    -1.1013896045186655E-010
  -4.4999999999999901E-003    -1.2982837027664118E-010
  -3.3999999999999864E-003    -1.1040854341892725E-010
  -2.2999999999999826E-003    -9.1320548345485975E-011
  -1.1999999999999927E-003    -8.1284333430797773E-011
  -9.9999999999988987E-005    -4.9763981130324098E-011
   1.0000000000000148E-003    -2.1534015889890235E-011
   2.1000000000000185E-003    -9.5361912810787430E-011
   3.2000000000000084E-003    -3.0106811488295193E-010
   4.3000000000000121E-003    -5.0027587628065362E-010
   5.4000000000000159E-003    -5.2164289554568199E-010
   6.5000000000000058E-003    -3.9087880154831112E-010
   7.6000000000000234E-003    -3.3101685281700099E-010
   8.7000000000000133E-003    -4.5681342042414030E-010
   9.8000000000000032E-003    -6.1871197054585991E-010
   1.0900000000000021E-002    -6.0987942474000079E-010
   1.2000000000000011E-002    -4.5960193983951569E-010
   1.3100000000000001E-002    -4.4188319670013243E-010
   1.4200000000000018E-002    -7.3566780445233348E-010
   1.5300000000000008E-002    -1.1790055598481786E-009
   1.6400000000000026E-002    -1.4827737926381701E-009
   1.7500000000000016E-002    -1.5601377967300323E-009
   1.8600000000000005E-002    -1.5485190907327251E-009
   1.9700000000000023E-002    -1.5451203649874401E-009
   2.0800000000000013E-002    -1.5880683434943421E-009
   2.1900000000000003E-002    -1.6519619006061248E-009
   2.3000000000000020E-002    -1.7547600039691247E-009
   2.4100000000000010E-002    -1.9335633094641480E-009
   2.5200000000000000E-002    -2.0971746561571081E-009
   2.6300000000000018E-002    -2.2557737899830954E-009
   2.7400000000000008E-002    -2.4981332558127178E-009
   2.8500000000000025E-002    -2.9014768365698274E-009
   2.9600000000000015E-002    -3.3409368604964129E-009
   3.0700000000000005E-002    -3.4885936361916947E-009
   3.1800000000000023E-002    -3.3353579897976715E-009
   3.2900000000000013E-002    -3.0228268776966161E-009
   3.4000000000000002E-002    -2.8296938126004534E-009
   3.5100000000000020E-002    -2.8766238280297785E-009
   3.6200000000000010E-002    -3.1170006575820253E-009
   3.7300000000000028E-002    -2.8791784512094409E-009
   3.8400000000000017E-002    -2.6179733936260163E-009
   3.9500000000000007E-002    -2.5906341516446219E-009
   4.0600000000000025E-002    -2.7536992686094663E-009
   4.1700000000000015E-002    -2.7116275891359010E-009
   4.2800000000000005E-002    -2.1634647406898466E-009
   4.3900000000000022E-002    -1.6527401669463870E-009
   4.5000000000000012E-002    -1.0792639004719717E-009
   4.6100000000000002E-002    -5.0047632704774969E-010
   4.7200000000000020E-002     1.0910353176463161E-010
   4.8300000000000010E-002     1.0797426286401901E-009
   4.9400000000000027E-002     2.1085677648358114E-009
   5.0500000000000017E-002     3.0308560106107052E-009
   5.1600000000000007E-002     3.7203657932138867E-009
   5.2700000000000025E-002     3.9900704962292366E-009
   5.3800000000000014E-002     4.9701713855654361E-009
   5.4900000000000004E-002     5.4926019288359385E-009
   5.6000000000000022E-002     7.5696480195119875E-009
   5.7100000000000012E-002     8.7634193235430757E-009
   5.8200000000000002E-002     9.4453280752304636E-009
   5.9300000000000019E-002     9.4765573166455397E-009
   6.0400000000000009E-002     1.0274430195522655E-008
   6.1500000000000027E-002     1.1592443449615075E-008
   6.2600000000000017E-002     1.3409880317283296E-008
   6.3700000000000007E-002     1.5539084685656235E-008
   6.4800000000000024E-002     1.5968380395747772E-008
   6.5900000000000014E-002     1.3516029184756917E-008
   6.7000000000000004E-002     1.1709386349423312E-008
   6.8100000000000022E-002     1.1696665858096367E-008
   6.9200000000000012E-002     1.4970501283073645E-008
   7.0300000000000029E-002     1.7031826615721002E-008
   7.1400000000000019E-002     1.6941481106869105E-008
   7.2500000000000009E-002     1.3364227058332290E-008
   7.3600000000000027E-002     8.5161158125401926E-009
   7.4700000000000016E-002     6.4530327748002492E-009
   7.5800000000000006E-002     8.7199163445461636E-009
   7.6900000000000024E-002     1.2816930627934653E-008
   7.8000000000000014E-002     1.1751096096190849E-008
   7.9100000000000004E-002     4.3001344707249700E-009
   8.0200000000000021E-002    -3.5354710270496525E-009
   8.1300000000000011E-002    -4.9714321548322005E-009
   8.2400000000000029E-002    -4.1638228975848790E-010
   8.3500000000000019E-002     2.9800015788339351E-009
   8.4600000000000009E-002     8.0030412852316601E-011
   8.5700000000000026E-002    -7.8755357790782909E-009
   8.6800000000000016E-002    -1.4851615937061524E-008
   8.7900000000000006E-002    -1.6954970760707511E-008
   8.9000000000000024E-002    -1.5092883387524125E-008
   9.0100000000000013E-002    -1.2053566145198147E-008
   9.1200000000000003E-002    -1.1474428518454260E-008
   9.2300000000000021E-002    -1.5435849931577650E-008
   9.3400000000000011E-002    -2.2417218303871778E-008
   9.4500000000000028E-002    -2.7213078013232916E-008
   9.5600000000000018E-002    -2.5274200510239098E-008
   9.6700000000000008E-002    -1.7052505185688460E-008
   9.7800000000000026E-002    -1.0684704676577894E-008
   9.8900000000000016E-002    -1.5330860136941737E-008
  0.10000000000000001         -2.6120304141841189E-008
  0.10110000000000002         -3.0789241378670340E-008
  0.10220000000000001         -2.3898493850538216E-008
  0.10330000000000003         -1.0647471349045645E-008
  0.10440000000000002         -5.4223034950950932E-009
  0.10550000000000001         -1.1131347399384595E-008
  0.10660000000000003         -1.9462438771711277E-008
  0.10770000000000002         -2.1806135563906537E-008
  0.10880000000000001         -1.2438002627845890E-008
  0.10990000000000003          1.0014801488100744E-010
  0.11100000000000002          5.1347459617545610E-009
  0.11210000000000001          1.8268686563516212E-009
  0.11320000000000002         -2.2463506610392869E-009
  0.11430000000000001         -4.4248986696970860E-009
  0.11540000000000003         -2.2259163401372462E-009
  0.11650000000000002          2.2523423126585840E-009
  0.11760000000000001          1.0430856178800241E-008
  0.11870000000000003          1.8161228965141163E-008
  0.11980000000000002          1.6045801132236193E-008
  0.12090000000000001          4.4531445198003894E-009
  0.12200000000000003         -3.6802121350376638E-009
  0.12310000000000001          4.3143084660357545E-009
  0.12420000000000003          2.2048556758136328E-008
  0.12530000000000002          3.0014497554020636E-008
  0.12640000000000001          1.7934116414153323E-008
  0.12750000000000003          1.8623131925465941E-009
  0.12860000000000002         -1.3015747368783082E-009
  0.12970000000000001          9.2809697704865357E-009
  0.13080000000000003          1.8448805150228509E-008
  0.13190000000000002          1.8659685352417910E-008
  0.13300000000000001          1.4895862321395725E-008
  0.13410000000000000          1.1614184280972495E-008
  0.13520000000000004          6.3010494599780031E-009
  0.13630000000000003         -1.4942904691395142E-009
  0.13740000000000002         -3.2475777622664737E-009
  0.13850000000000001          6.9658945278661122E-009
  0.13960000000000000          1.8570389670458098E-008
  0.14070000000000005          1.4853212881860145E-008
  0.14180000000000004         -3.4798017800596881E-009
  0.14290000000000003         -1.5549096232803095E-008
  0.14400000000000002         -7.1624359776478741E-009
  0.14510000000000001          1.1165671942592326E-008
  0.14620000000000000          1.7315963773967269E-008
  0.14730000000000004          6.1507994253418019E-009
  0.14840000000000003         -7.6037283136543010E-009
  0.14950000000000002         -1.1225799845249185E-008
  0.15060000000000001         -8.3954407870123759E-009
  0.15170000000000000         -6.2590337357448789E-009
  0.15280000000000005         -2.5910666945350158E-009
  0.15390000000000004          5.0636552728633433E-009
  0.15500000000000003          9.3224121755497436E-009
  0.15610000000000002         -4.6928700508930277E-011
  0.15720000000000001         -1.5859486168778858E-008
  0.15830000000000000         -1.8351560271412382E-008
  0.15940000000000004         -8.1773715576716199E-010
  0.16050000000000003          1.6846732009412335E-008
  0.16160000000000002          1.2070558774723850E-008
  0.16270000000000001         -9.1640890431676780E-009
  0.16380000000000000         -2.1797687210778349E-008
  0.16490000000000005         -1.3207748672527941E-008
  0.16600000000000004          3.1972851033401639E-009
  0.16710000000000003          9.2695282560839587E-009
  0.16820000000000002          4.6418073829102013E-009
  0.16930000000000001          1.4743245513315628E-010
  0.17040000000000000         -1.4965606531802678E-009
  0.17150000000000004         -6.3743454958853363E-009
  0.17260000000000003         -1.2032383978066719E-008
  0.17370000000000002         -6.4364420460094607E-009
  0.17480000000000001          1.0023814667192710E-008
  0.17590000000000000          1.7888993397718878E-008
  0.17700000000000005          3.2938181071529016E-009
  0.17810000000000004         -1.8577884119963528E-008
  0.17920000000000003         -2.0202508110855888E-008
  0.18030000000000002          1.0443457210129736E-009
  0.18140000000000001          1.8526318257272578E-008
  0.18250000000000000          1.2328904119840445E-008
  0.18360000000000004         -5.5783417884924802E-009
  0.18470000000000003         -1.1323773918547886E-008
  0.18580000000000002         -2.2442168123859574E-009
  0.18690000000000001          4.4249808262009083E-009
  0.18800000000000000          7.3721007076699152E-010
  0.18910000000000005         -1.9528565431414791E-009
  0.19020000000000004          4.2279437728609537E-009
  0.19130000000000003          7.9644983941307146E-009
  0.19240000000000002         -2.1283488305101628E-009
  0.19350000000000001         -1.4670900938540399E-008
  0.19460000000000005         -9.2126413164805854E-009
  0.19570000000000004          1.1203933780734587E-008
  0.19680000000000003          1.9927615113601860E-008
  0.19790000000000002          3.8571097427109180E-009
  0.19900000000000001         -1.6309643413592312E-008
  0.20010000000000000         -1.4266130499152041E-008
  0.20120000000000005          4.9521609035707570E-009
  0.20230000000000004          1.3626738848415698E-008
  0.20340000000000003          2.3237394231045982E-009
  0.20450000000000002         -9.0787821704907401E-009
  0.20560000000000000         -3.7232277261267654E-009
  0.20670000000000005          7.1019927716520215E-009
  0.20780000000000004          4.2765062602256876E-009
  0.20890000000000003         -7.5707591307150324E-009
