 -0.12000000000000000          0.0000000000000000     
 -0.11889999999999999          0.0000000000000000     
 -0.11780000000000000          0.0000000000000000     
 -0.11670000000000000          0.0000000000000000     
 -0.11559999999999999          0.0000000000000000     
 -0.11449999999999999          0.0000000000000000     
 -0.11340000000000000          0.0000000000000000     
 -0.11230000000000000          0.0000000000000000     
 -0.11119999999999999          0.0000000000000000     
 -0.11009999999999999          0.0000000000000000     
 -0.10900000000000000          0.0000000000000000     
 -0.10790000000000000          0.0000000000000000     
 -0.10679999999999999          0.0000000000000000     
 -0.10569999999999999          0.0000000000000000     
 -0.10460000000000000          0.0000000000000000     
 -0.10349999999999999         -6.4156043435457458E-034
 -0.10239999999999999          1.0909981271120522E-032
 -0.10130000000000000         -6.1589374111969048E-032
 -0.10020000000000000         -5.6522286693946557E-033
  -9.9099999999999994E-002     1.3483520176248297E-030
  -9.7999999999999990E-002    -2.9510321122026083E-030
  -9.6899999999999986E-002    -1.4823407317993534E-029
  -9.5799999999999996E-002     5.3780558509668453E-029
  -9.4699999999999993E-002     1.2430693344103809E-028
  -9.3599999999999989E-002    -6.0503565870586250E-028
  -9.2499999999999999E-002    -9.7159881983780869E-028
  -9.1399999999999995E-002     5.2327751552454413E-027
  -9.0299999999999991E-002     7.8573519795846910E-027
  -8.9200000000000002E-002    -3.7141823985468191E-026
  -8.8099999999999984E-002    -6.4399399554815943E-026
  -8.6999999999999994E-002     2.1817018226489787E-025
  -8.5899999999999990E-002     4.9507894753255229E-025
  -8.4799999999999986E-002    -1.0212908823353307E-024
  -8.3699999999999997E-002    -3.3639620406697594E-024
  -8.2599999999999993E-002     3.3001341215369695E-024
  -8.1499999999999989E-002     1.9509374267284208E-023
  -8.0399999999999999E-002    -1.8189608000697193E-024
  -7.9299999999999995E-002    -9.3704274646826128E-023
  -7.8199999999999992E-002    -6.8391223878560158E-023
  -7.7100000000000002E-002     3.5390816990046607E-022
  -7.5999999999999984E-002     6.0399012777034279E-022
  -7.4899999999999994E-002    -9.0384638148218104E-022
  -7.3799999999999991E-002    -3.2578940594959311E-021
  -7.2699999999999987E-002     3.4501289860254704E-022
  -7.1599999999999997E-002     1.2560161644804493E-020
  -7.0499999999999993E-002     1.1439365842124952E-020
  -6.9399999999999989E-002    -3.2682736413756944E-020
  -6.8300000000000000E-002    -7.3697850545868068E-020
  -6.7199999999999996E-002     3.0913884990820454E-020
  -6.6099999999999992E-002     2.7400688663064063E-019
  -6.5000000000000002E-002     2.0275353574062575E-019
  -6.3899999999999985E-002    -6.2320893703814395E-019
  -6.2799999999999995E-002    -1.3145277189187511E-018
  -6.1699999999999991E-002     3.3705459291943240E-019
  -6.0599999999999994E-002     4.1635788716999376E-018
  -5.9499999999999990E-002     3.9011483777419766E-018
  -5.8399999999999994E-002    -6.7943176220839851E-018
  -5.7299999999999990E-002    -1.8458351735024826E-017
  -5.6199999999999986E-002    -4.4163731251119621E-018
  -5.5099999999999996E-002     4.1498284829413461E-017
  -5.3999999999999992E-002     6.1452663839773117E-017
  -5.2899999999999989E-002    -2.4668969357860767E-017
  -5.1799999999999985E-002    -1.7513684674837421E-016
  -5.0699999999999995E-002    -1.6240901204557588E-016
  -4.9599999999999991E-002     1.8630215712639458E-016
  -4.8499999999999988E-002     5.9130528308831373E-016
  -4.7399999999999998E-002     3.6843058587497320E-016
  -4.6299999999999994E-002    -7.3956987723614726E-016
  -4.5199999999999990E-002    -1.7256772699792496E-015
  -4.4099999999999986E-002    -8.8444311028185217E-016
  -4.2999999999999997E-002     2.0944189816436611E-015
  -4.1899999999999993E-002     4.6566568011547141E-015
  -4.0799999999999989E-002     2.9328666147028287E-015
  -3.9699999999999985E-002    -4.2332047020315552E-015
  -3.8599999999999995E-002    -1.2289966949945857E-014
  -3.7499999999999992E-002    -1.2122611874293247E-014
  -3.6399999999999988E-002     3.9374639955306635E-015
  -3.5299999999999984E-002     3.2112330237412876E-014
  -3.4199999999999994E-002     4.8273630779598412E-014
  -3.3099999999999991E-002     1.5179179392371331E-014
  -3.1999999999999987E-002    -7.8575702530930130E-014
  -3.0899999999999997E-002    -1.6672607576224269E-013
  -2.9799999999999993E-002    -1.1319708327151359E-013
  -2.8699999999999989E-002     1.5805144194282195E-013
  -2.7599999999999986E-002     4.8482826911153132E-013
  -2.6499999999999996E-002     4.6978832499502965E-013
  -2.5399999999999992E-002    -1.7398047249834320E-013
  -2.4299999999999988E-002    -1.1470587934353516E-012
  -2.3199999999999985E-002    -1.5081524354018661E-012
  -2.2099999999999995E-002    -3.8327270502312716E-013
  -2.0999999999999991E-002     1.9846953941415890E-012
  -1.9899999999999987E-002     3.8684342187900178E-012
  -1.8799999999999983E-002     3.0421578884470835E-012
  -1.7699999999999994E-002    -1.3467061667216118E-012
  -1.6599999999999990E-002    -7.3644935635885922E-012
  -1.5499999999999986E-002    -1.0544602517537083E-011
  -1.4399999999999996E-002    -6.1702626515114378E-012
  -1.3299999999999992E-002     7.0059457367432909E-012
  -1.2199999999999989E-002     2.3346852229266801E-011
  -1.1099999999999985E-002     3.0296438968679951E-011
  -9.9999999999999950E-003     1.4670122755466863E-011
  -8.8999999999999913E-003    -2.5646989740280013E-011
  -7.7999999999999875E-003    -7.2012805441001859E-011
  -6.6999999999999837E-003    -8.7935284054374563E-011
  -5.5999999999999939E-003    -3.9343979463257739E-011
  -4.4999999999999901E-003     7.5838571533815013E-011
  -3.3999999999999864E-003     2.0734872152594619E-010
  -2.2999999999999826E-003     2.6025523403028217E-010
  -1.1999999999999927E-003     1.3929667141976410E-010
  -9.9999999999988987E-005    -1.7896564785679914E-010
   1.0000000000000148E-003    -5.7873528191976220E-010
   2.1000000000000185E-003    -7.9780876349744290E-010
   3.2000000000000084E-003    -5.3397286592371529E-010
   4.3000000000000121E-003     3.3772029617296084E-010
   5.4000000000000159E-003     1.5419059362642429E-009
   6.5000000000000058E-003     2.3586617103887875E-009
   7.6000000000000234E-003     1.9071952905846956E-009
   8.7000000000000133E-003    -2.7548610614935853E-010
   9.8000000000000032E-003    -3.6396190505882942E-009
   1.0900000000000021E-002    -6.4416356693186572E-009
   1.2000000000000011E-002    -6.3226770485869110E-009
   1.3100000000000001E-002    -1.6353908227628722E-009
   1.4200000000000018E-002     7.0082522007908210E-009
   1.5300000000000008E-002     1.5912959838715324E-008
   1.6400000000000026E-002     1.9137084805720406E-008
   1.7500000000000016E-002     1.1280826051063286E-008
   1.8600000000000005E-002    -8.6317069047936457E-009
   1.9700000000000023E-002    -3.4157121575617566E-008
   2.0800000000000013E-002    -5.1684565960385953E-008
   2.1900000000000003E-002    -4.5399485060215738E-008
   2.3000000000000020E-002    -6.2479381668367751E-009
   2.4100000000000010E-002     5.8676189240713938E-008
   2.5200000000000000E-002     1.2202349353174213E-007
   2.6300000000000018E-002     1.4278754179031239E-007
   2.7400000000000008E-002     8.4989906667942705E-008
   2.8500000000000025E-002    -5.7209692982951310E-008
   2.9600000000000015E-002    -2.4058599024101568E-007
   3.0700000000000005E-002    -3.7471176028702757E-007
   3.1800000000000023E-002    -3.5302673495607451E-007
   3.2900000000000013E-002    -1.0784845727584980E-007
   3.4000000000000002E-002     3.3183746950271598E-007
   3.5100000000000020E-002     8.1097300608234946E-007
   3.6200000000000010E-002     1.0758601547422586E-006
   3.7300000000000028E-002     8.6781204799990519E-007
   3.8400000000000017E-002     6.1359202163657756E-008
   3.9500000000000007E-002    -1.2070798902641400E-006
   4.0600000000000025E-002    -2.4910773390729446E-006
   4.1700000000000015E-002    -3.1244360343407607E-006
   4.2800000000000005E-002    -2.4604796635685489E-006
   4.3900000000000022E-002    -2.0032975101003103E-007
   4.5000000000000012E-002     3.3144747249025386E-006
   4.6100000000000002E-002     6.9971492848708294E-006
   4.7200000000000020E-002     9.2147729446878657E-006
   4.8300000000000010E-002     8.3041713878628798E-006
   4.9400000000000027E-002     3.2810899028845597E-006
   5.0500000000000017E-002    -5.5008940762490965E-006
   5.1600000000000007E-002    -1.6025647710193880E-005
   5.2700000000000025E-002    -2.4841354388627224E-005
   5.3800000000000014E-002    -2.7893291189684533E-005
   5.4900000000000004E-002    -2.1798634406877682E-005
   5.6000000000000022E-002    -5.2168479669489898E-006
   5.7100000000000012E-002     2.0140287233516574E-005
   5.8200000000000002E-002     4.9242044042330235E-005
   5.9300000000000019E-002     7.4447605584282428E-005
   6.0400000000000009E-002     8.7076994532253593E-005
   6.1500000000000027E-002     7.9520767030771822E-005
   6.2600000000000017E-002     4.7320889279944822E-005
   6.3700000000000007E-002    -9.3056842160876840E-006
   6.4800000000000024E-002    -8.4912870079278946E-005
   6.5900000000000014E-002    -1.6944132221397012E-004
   6.7000000000000004E-002    -2.4996662978082895E-004
   6.8100000000000022E-002    -3.1325922464020550E-004
   6.9200000000000012E-002    -3.4884919296018779E-004
   7.0300000000000029E-002    -3.5187538014724851E-004
   7.1400000000000019E-002    -3.2515107886865735E-004
   7.2500000000000009E-002    -2.8006936190649867E-004
   7.3600000000000027E-002    -2.3530810722149909E-004
   7.4700000000000016E-002    -2.1392443159129471E-004
   7.5800000000000006E-002    -2.3879727814346552E-004
   7.6900000000000024E-002    -3.2764842035248876E-004
   7.8000000000000014E-002    -4.8849097220227122E-004
   7.9100000000000004E-002    -7.1792403468862176E-004
   8.0200000000000021E-002    -1.0025029769167304E-003
   8.1300000000000011E-002    -1.3232050696387887E-003
   8.2400000000000029E-002    -1.6626999713480473E-003
   8.3500000000000019E-002    -2.0138395484536886E-003
   8.4600000000000009E-002    -2.3829552810639143E-003
   8.5700000000000026E-002    -2.7928994968533516E-003
   8.6800000000000016E-002    -3.2764361239969730E-003
   8.7900000000000006E-002    -3.8699365686625242E-003
   8.9000000000000024E-002    -4.6063014306128025E-003
   9.0100000000000013E-002    -5.5035464465618134E-003
   9.1200000000000003E-002    -6.5689743496477604E-003
   9.2300000000000021E-002    -7.8002898953855038E-003
   9.3400000000000011E-002    -9.1935908421874046E-003
   9.4500000000000028E-002    -1.0756876319646835E-002
   9.5600000000000018E-002    -1.2512177228927612E-002
   9.6700000000000008E-002    -1.4494361355900764E-002
   9.7800000000000026E-002    -1.6752950847148895E-002
   9.8900000000000016E-002    -1.9337005913257599E-002
  0.10000000000000001         -2.2281017154455185E-002
  0.10110000000000002         -2.5613222271203995E-002
  0.10220000000000001         -2.9327984899282455E-002
  0.10330000000000003         -3.3418498933315277E-002
  0.10440000000000002         -3.7884358316659927E-002
  0.10550000000000001         -4.2719788849353790E-002
  0.10660000000000003         -4.7940436750650406E-002
  0.10770000000000002         -5.3551875054836273E-002
  0.10880000000000001         -5.9568502008914948E-002
  0.10990000000000003         -6.6007003188133240E-002
  0.11100000000000002         -7.2854869067668915E-002
  0.11210000000000001         -8.0029353499412537E-002
  0.11320000000000002         -8.7469562888145447E-002
  0.11430000000000001         -9.5108486711978912E-002
  0.11540000000000003        -0.10280996561050415     
  0.11650000000000002        -0.11050912737846375     
  0.11760000000000001        -0.11799871176481247     
  0.11870000000000003        -0.12513306736946106     
  0.11980000000000002        -0.13185483217239380     
  0.12090000000000001        -0.13785143196582794     
  0.12200000000000003        -0.14284095168113708     
  0.12310000000000001        -0.14675486087799072     
  0.12420000000000003        -0.14928209781646729     
  0.12530000000000002        -0.15008908510208130     
  0.12640000000000001        -0.14895847439765930     
  0.12750000000000003        -0.14554592967033386     
  0.12860000000000002        -0.13969191908836365     
  0.12970000000000001        -0.13104817271232605     
  0.13080000000000003        -0.11913224309682846     
  0.13190000000000002        -0.10362596809864044     
  0.13300000000000001         -8.4663778543472290E-002
  0.13410000000000000         -6.1622269451618195E-002
  0.13520000000000004         -3.4663297235965729E-002
  0.13630000000000003         -3.8172621279954910E-003
  0.13740000000000002          3.1448688358068466E-002
  0.13850000000000001          7.0671282708644867E-002
  0.13960000000000000         0.11389931291341782     
  0.14070000000000005         0.16125580668449402     
  0.14180000000000004         0.21189348399639130     
  0.14290000000000003         0.26557362079620361     
  0.14400000000000002         0.32222294807434082     
  0.14510000000000001         0.38049876689910889     
  0.14620000000000000         0.44030976295471191     
  0.14730000000000004         0.50075042247772217     
  0.14840000000000003         0.56023544073104858     
  0.14950000000000002         0.61817711591720581     
  0.15060000000000001         0.67356616258621216     
  0.15170000000000000         0.72493314743041992     
  0.15280000000000005         0.77198874950408936     
  0.15390000000000004         0.81302911043167114     
  0.15500000000000003         0.84601742029190063     
  0.15610000000000002         0.87060141563415527     
  0.15720000000000001         0.88514041900634766     
  0.15830000000000000         0.88890916109085083     
  0.15940000000000004         0.88166218996047974     
  0.16050000000000003         0.86173909902572632     
  0.16160000000000002         0.82799702882766724     
  0.16270000000000001         0.78138792514801025     
  0.16380000000000000         0.72008401155471802     
  0.16490000000000005         0.64552295207977295     
  0.16600000000000004         0.55839729309082031     
  0.16710000000000003         0.45809718966484070     
  0.16820000000000002         0.34462326765060425     
  0.16930000000000001         0.22010780870914459     
  0.17040000000000000          8.7474063038825989E-002
  0.17150000000000004         -5.3739957511425018E-002
  0.17260000000000003        -0.20167775452136993     
  0.17370000000000002        -0.35287153720855713     
  0.17480000000000001        -0.50669890642166138     
  0.17590000000000000        -0.65940469503402710     
  0.17700000000000005        -0.80968886613845825     
  0.17810000000000004        -0.95425206422805786     
  0.17920000000000003         -1.0919960737228394     
  0.18030000000000002         -1.2193341255187988     
  0.18140000000000001         -1.3336552381515503     
  0.18250000000000000         -1.4335113763809204     
  0.18360000000000004         -1.5157604217529297     
  0.18470000000000003         -1.5802779197692871     
  0.18580000000000002         -1.6259604692459106     
  0.18690000000000001         -1.6508364677429199     
  0.18800000000000000         -1.6542570590972900     
  0.18910000000000005         -1.6360634565353394     
  0.19020000000000004         -1.5951366424560547     
  0.19130000000000003         -1.5336872339248657     
  0.19240000000000002         -1.4515156745910645     
  0.19350000000000001         -1.3513284921646118     
  0.19460000000000005         -1.2331855297088623     
  0.19570000000000004         -1.0983973741531372     
  0.19680000000000003        -0.94961148500442505     
  0.19790000000000002        -0.79036247730255127     
  0.19900000000000001        -0.62307268381118774     
  0.20010000000000000        -0.44954502582550049     
  0.20120000000000005        -0.27216103672981262     
  0.20230000000000004         -9.4090469181537628E-002
  0.20340000000000003          8.1962712109088898E-002
  0.20450000000000002         0.25359082221984863     
  0.20560000000000000         0.41579812765121460     
  0.20670000000000005         0.56879591941833496     
  0.20780000000000004         0.71014171838760376     
  0.20890000000000003         0.83965688943862915     
