 -0.12000000000000000          0.0000000000000000
 -0.11889999999999999          0.0000000000000000
 -0.11780000000000000          0.0000000000000000
 -0.11670000000000000          1.2546758770826116E-011
 -0.11559999999999999          1.8168402546314688E-011
 -0.11449999999999999         -2.8160881612726563E-011
 -0.11340000000000000         -7.4961550855512371E-011
 -0.11230000000000000         -7.1864558574830095E-012
 -0.11119999999999999          9.8632872702619778E-011
 -0.11009999999999999          3.4899878126326556E-011
 -0.10900000000000000         -4.0868759765277929E-011
 -0.10790000000000000          3.0829411246102723E-010
 -0.10679999999999999          7.4258349469502605E-010
 -0.10569999999999999         -4.0189275518631717E-011
 -0.10460000000000000         -2.2186257275791377E-009
 -0.10349999999999999         -3.2006566286213456E-009
 -0.10239999999999999         -2.7628824228465021E-010
 -0.10130000000000000          4.7190176211131529E-009
 -0.10020000000000000          6.1720055732905621E-009
  -9.9099999999999994E-002     1.9703463305376090E-009
  -9.7999999999999990E-002    -2.6980122580511079E-009
  -9.6899999999999986E-002    -2.4106245888333433E-009
  -9.5799999999999996E-002    -3.5083735916430214E-010
  -9.4699999999999993E-002    -4.1651788684760049E-009
  -9.3599999999999989E-002    -1.2471414123638169E-008
  -9.2499999999999999E-002    -1.2972199314731370E-008
  -9.1399999999999995E-002     9.2079066593697689E-010
  -9.0299999999999991E-002     1.7741387026148914E-008
  -8.9200000000000002E-002     2.1626483714953793E-008
  -8.8099999999999984E-002     1.6275841119295364E-008
  -8.6999999999999994E-002     2.3412782823584166E-008
  -8.5899999999999990E-002     5.3338808925218473E-008
  -8.4799999999999986E-002     8.8167240619441145E-008
  -8.3699999999999997E-002     1.0448649589989145E-007
  -8.2599999999999993E-002     1.0566873243078589E-007
  -8.1499999999999989E-002     1.1758101692294076E-007
  -8.0399999999999999E-002     1.5362556382569892E-007
  -7.9299999999999995E-002     2.0025757407893252E-007
  -7.8199999999999992E-002     2.4293808564834762E-007
  -7.7100000000000002E-002     2.9085018127261719E-007
  -7.5999999999999984E-002     3.6206037634656241E-007
  -7.4899999999999994E-002     4.5507712798098510E-007
  -7.3799999999999991E-002     5.5578124147359631E-007
  -7.2699999999999987E-002     6.7041531792710884E-007
  -7.1599999999999997E-002     8.2784498545152019E-007
  -7.0499999999999993E-002     1.0399912753200624E-006
  -6.9399999999999989E-002     1.2819219818993588E-006
  -6.8300000000000000E-002     1.5320098327720189E-006
  -6.7199999999999996E-002     1.8184381360697444E-006
  -6.6099999999999992E-002     2.1972241484036203E-006
  -6.5000000000000002E-002     2.6851027996599441E-006
  -6.3899999999999985E-002     3.2458503937959904E-006
  -6.2799999999999995E-002     3.8575453800149262E-006
  -6.1699999999999991E-002     4.5664933168154676E-006
  -6.0599999999999994E-002     5.4460479077533819E-006
  -5.9499999999999990E-002     6.5167419052158948E-006
  -5.8399999999999994E-002     7.7444046837626956E-006
  -5.7299999999999990E-002     9.1200681708869524E-006
  -5.6199999999999986E-002     1.0704527085181326E-005
  -5.5099999999999996E-002     1.2574139873322565E-005
  -5.3999999999999992E-002     1.4752454262634274E-005
  -5.2899999999999989E-002     1.7229805962415412E-005
  -5.1799999999999985E-002     2.0034747649333440E-005
  -5.0699999999999995E-002     2.3242824681801721E-005
  -4.9599999999999991E-002     2.6911933673545718E-005
  -4.8499999999999988E-002     3.1053103157319129E-005
  -4.7399999999999998E-002     3.5688743082573637E-005
  -4.6299999999999994E-002     4.0903054468799382E-005
  -4.5199999999999990E-002     4.6792014472885057E-005
  -4.4099999999999986E-002     5.3380237659439445E-005
  -4.2999999999999997E-002     6.0640664742095396E-005
  -4.1899999999999993E-002     6.8603272666223347E-005
  -4.0799999999999989E-002     7.7392469393089414E-005
  -3.9699999999999985E-002     8.7123858975246549E-005
  -3.8599999999999995E-002     9.7799071227200329E-005
  -3.7499999999999992E-002     1.0935123282251880E-004
  -3.6399999999999988E-002     1.2177728785900399E-004
  -3.5299999999999984E-002     1.3516789476852864E-004
  -3.4199999999999994E-002     1.4959424152038991E-004
  -3.3099999999999991E-002     1.6501893696840852E-004
  -3.1999999999999987E-002     1.8135092977900058E-004
  -3.0899999999999997E-002     1.9854697166010737E-004
  -2.9799999999999993E-002     2.1659923368133605E-004
  -2.8699999999999989E-002     2.3543875431641936E-004
  -2.7599999999999986E-002     2.5491439737379551E-004
  -2.6499999999999996E-002     2.7488201158121228E-004
  -2.5399999999999992E-002     2.9525178251788020E-004
  -2.4299999999999988E-002     3.1590246362611651E-004
  -2.3199999999999985E-002     3.3658905886113644E-004
  -2.2099999999999995E-002     3.5699279396794736E-004
  -2.0999999999999991E-002     3.7685310235247016E-004
  -1.9899999999999987E-002     3.9598543662577868E-004
  -1.8799999999999983E-002     4.1415257146582007E-004
  -1.7699999999999994E-002     4.3097257730551064E-004
  -1.6599999999999990E-002     4.4600621913559735E-004
  -1.5499999999999986E-002     4.5889522880315781E-004
  -1.4399999999999996E-002     4.6935281716287136E-004
  -1.3299999999999992E-002     4.7703247400932014E-004
  -1.2199999999999989E-002     4.8148733912967145E-004
  -1.1099999999999985E-002     4.8228359082713723E-004
  -9.9999999999999950E-003     4.7909727436490357E-004
  -8.8999999999999913E-003     4.7165038995444775E-004
  -7.7999999999999875E-003     4.5959794078953564E-004
  -6.6999999999999837E-003     4.4255817192606628E-004
  -5.5999999999999939E-003     4.2025287984870374E-004
  -4.4999999999999901E-003     3.9255229057744145E-004
  -3.3999999999999864E-003     3.5936830681748688E-004
  -2.2999999999999826E-003     3.2056940835900605E-004
  -1.1999999999999927E-003     2.7605026843957603E-004
  -9.9999999999988987E-005     2.2586839622817934E-004
   1.0000000000000148E-003     1.7023064719978720E-004
   2.1000000000000185E-003     1.0937650222331285E-004
   3.2000000000000084E-003     4.3547857785597444E-005
   4.3000000000000121E-003    -2.6915509806713089E-005
   5.4000000000000159E-003    -1.0149413719773293E-004
   6.5000000000000058E-003    -1.7956357623916119E-004
   7.6000000000000234E-003    -2.6050177984870970E-004
   8.7000000000000133E-003    -3.4367703483439982E-004
   9.8000000000000032E-003    -4.2832808685488999E-004
   1.0900000000000021E-002    -5.1354744937270880E-004
   1.2000000000000011E-002    -5.9838400920853019E-004
   1.3100000000000001E-002    -6.8193953484296799E-004
   1.4200000000000018E-002    -7.6333346078172326E-004
   1.5300000000000008E-002    -8.4160739788785577E-004
   1.6400000000000026E-002    -9.1573712415993214E-004
   1.7500000000000016E-002    -9.8475487902760506E-004
   1.8600000000000005E-002    -1.0478007607161999E-003
   1.9700000000000023E-002    -1.1040560202673078E-003
   2.0800000000000013E-002    -1.1526930611580610E-003
   2.1900000000000003E-002    -1.1929410975426435E-003
   2.3000000000000020E-002    -1.2241877848282456E-003
   2.4100000000000010E-002    -1.2459809659048915E-003
   2.5200000000000000E-002    -1.2579432222992182E-003
   2.6300000000000018E-002    -1.2597398599609733E-003
   2.7400000000000008E-002    -1.2511644745245576E-003
   2.8500000000000025E-002    -1.2322117108851671E-003
   2.9600000000000015E-002    -1.2030522339046001E-003
   3.0700000000000005E-002    -1.1639462318271399E-003
   3.1800000000000023E-002    -1.1152392253279686E-003
   3.2900000000000013E-002    -1.0574196930974722E-003
   3.4000000000000002E-002    -9.9113746546208858E-004
   3.5100000000000020E-002    -9.1713917208835483E-004
   3.6200000000000010E-002    -8.3623366663232446E-004
   3.7300000000000028E-002    -7.4930663686245680E-004
   3.8400000000000017E-002    -6.5736420219764113E-004
   3.9500000000000007E-002    -5.6148832663893700E-004
   4.0600000000000025E-002    -4.6276143984869123E-004
   4.1700000000000015E-002    -3.6222796188667417E-004
   4.2800000000000005E-002    -2.6095387875102460E-004
   4.3900000000000022E-002    -1.6003526980057359E-004
   4.5000000000000012E-002    -6.0566853790078312E-005
   4.6100000000000002E-002     3.6433153582038358E-005
   4.7200000000000020E-002     1.3003854837734252E-004
   4.8300000000000010E-002     2.1938247664365917E-004
   4.9400000000000027E-002     3.0367466388270259E-004
   5.0500000000000017E-002     3.8222022703848779E-004
   5.1600000000000007E-002     4.5442464761435986E-004
   5.2700000000000025E-002     5.1978690316900611E-004
   5.3800000000000014E-002     5.7789956917986274E-004
   5.4900000000000004E-002     6.2847981462255120E-004
   5.6000000000000022E-002     6.7137915175408125E-004
   5.7100000000000012E-002     7.0656131720170379E-004
   5.8200000000000002E-002     7.3406111914664507E-004
   5.9300000000000019E-002     7.5399398338049650E-004
   6.0400000000000009E-002     7.6658185571432114E-004
   6.1500000000000027E-002     7.7213934855535626E-004
   6.2600000000000017E-002     7.7104091178625822E-004
   6.3700000000000007E-002     7.6371175236999989E-004
   6.4800000000000024E-002     7.5064523844048381E-004
   6.5900000000000014E-002     7.3239573976024985E-004
   6.7000000000000004E-002     7.0953241083770990E-004
   6.8100000000000022E-002     6.8260502303019166E-004
   6.9200000000000012E-002     6.5216992516070604E-004
   7.0300000000000029E-002     6.1882380396127701E-004
   7.1400000000000019E-002     5.8318016817793250E-004
   7.2500000000000009E-002     5.4580421419814229E-004
   7.3600000000000027E-002     5.0720013678073883E-004
   7.4700000000000016E-002     4.6786112943664193E-004
   7.5800000000000006E-002     4.2828803998418152E-004
   7.6900000000000024E-002     3.8893404416739941E-004
   7.8000000000000014E-002     3.5015866160392761E-004
   7.9100000000000004E-002     3.1227013096213341E-004
   8.0200000000000021E-002     2.7559348382055759E-004
   8.1300000000000011E-002     2.4044905148912221E-004
   8.2400000000000029E-002     2.0706142822746187E-004
   8.3500000000000019E-002     1.7553377256263047E-004
   8.4600000000000009E-002     1.4594376261811703E-004
   8.5700000000000026E-002     1.1842259846162051E-004
   8.6800000000000016E-002     9.3095484771765769E-005
   8.7900000000000006E-002     6.9980909756850451E-005
   8.9000000000000024E-002     4.9002359446603805E-005
   9.0100000000000013E-002     3.0101611628197134E-005
   9.1200000000000003E-002     1.3279893209983129E-005
   9.2300000000000021E-002    -1.4933655165805249E-006
   9.3400000000000011E-002    -1.4355878192873206E-005
   9.4500000000000028E-002    -2.5481385819148272E-005
   9.5600000000000018E-002    -3.4961929486598819E-005
   9.6700000000000008E-002    -4.2827716242754832E-005
   9.7800000000000026E-002    -4.9182959628524259E-005
   9.8900000000000016E-002    -5.4239633755059913E-005
  0.10000000000000001         -5.8191599237034097E-005
  0.10110000000000002         -6.1107850342523307E-005
  0.10220000000000001         -6.3012448663357645E-005
  0.10330000000000003         -6.4027393818832934E-005
  0.10440000000000002         -6.4358275267295539E-005
  0.10550000000000001         -6.4140287577174604E-005
  0.10660000000000003         -6.3386454712599516E-005
  0.10770000000000002         -6.2119856011122465E-005
  0.10880000000000001         -6.0481292166514322E-005
  0.10990000000000003         -5.8637055190047249E-005
  0.11100000000000002         -5.6627417507115752E-005
  0.11210000000000001         -5.4393225582316518E-005
  0.11320000000000002         -5.1953185902675614E-005
  0.11430000000000001         -4.9460966693004593E-005
  0.11540000000000003         -4.7043911763466895E-005
  0.11650000000000002         -4.4668253394775093E-005
  0.11760000000000001         -4.2236664739903063E-005
  0.11870000000000003         -3.9772869058651850E-005
  0.11980000000000002         -3.7414589314721525E-005
  0.12090000000000001         -3.5226792533649132E-005
  0.12200000000000003         -3.3127074857475236E-005
  0.12310000000000001         -3.1034935091156512E-005
  0.12420000000000003         -2.9011611331952736E-005
  0.12530000000000002         -2.7171954570803791E-005
  0.12640000000000001         -2.5503917640889995E-005
  0.12750000000000003         -2.3883561880211346E-005
  0.12860000000000002         -2.2266751329880208E-005
  0.12970000000000001         -2.0760953702847473E-005
  0.13080000000000003         -1.9459304894553497E-005
  0.13190000000000002         -1.8290831576450728E-005
  0.13300000000000001         -1.7120128177339211E-005
  0.13410000000000000         -1.5946337953209877E-005
  0.13520000000000004         -1.4896803804731462E-005
  0.13630000000000003         -1.4024955817149021E-005
  0.13740000000000002         -1.3222797861089930E-005
  0.13850000000000001         -1.2382643035380170E-005
  0.13960000000000000         -1.1557141078810673E-005
  0.14070000000000005         -1.0869575817196164E-005
  0.14180000000000004         -1.0314131941413507E-005
  0.14290000000000003         -9.7563070085016079E-006
  0.14400000000000002         -9.1340343715273775E-006
  0.14510000000000001         -8.5495148596237414E-006
  0.14620000000000000         -8.1088428487419151E-006
  0.14730000000000004         -7.7555905590998009E-006
  0.14840000000000003         -7.3541600613680203E-006
  0.14950000000000002         -6.8923641265428159E-006
  0.15060000000000001         -6.4928053689072840E-006
  0.15170000000000000         -6.2180774875741918E-006
  0.15280000000000005         -5.9731864894274622E-006
  0.15390000000000004         -5.6530989240854979E-006
  0.15500000000000003         -5.3037615543871652E-006
  0.15610000000000002         -5.0466551329009235E-006
  0.15720000000000001         -4.8859924390853848E-006
  0.15830000000000000         -4.6988538997538853E-006
  0.15940000000000004         -4.4237544898351189E-006
  0.16050000000000003         -4.1551747926860116E-006
  0.16160000000000002         -3.9981650843401439E-006
  0.16270000000000001         -3.9065421333361883E-006
  0.16380000000000000         -3.7530160170717863E-006
  0.16490000000000005         -3.5212640341342194E-006
  0.16600000000000004         -3.3258620533160865E-006
  0.16710000000000003         -3.2337793527403846E-006
  0.16820000000000002         -3.1641304758522892E-006
  0.16930000000000001         -3.0165472253429471E-006
  0.17040000000000000         -2.8254282824491384E-006
  0.17150000000000004         -2.7025421331927646E-006
  0.17260000000000003         -2.6617976800480392E-006
  0.17370000000000002         -2.5981528324336978E-006
  0.17480000000000001         -2.4507535272277892E-006
  0.17590000000000000         -2.2956510292715393E-006
  0.17700000000000005         -2.2273204649536638E-006
  0.17810000000000004         -2.2136437110020779E-006
  0.17920000000000003         -2.1470907540788176E-006
  0.18030000000000002         -2.0089605641260277E-006
  0.18140000000000001         -1.8941741473099682E-006
  0.18250000000000000         -1.8635575997905107E-006
  0.18360000000000004         -1.8534443597673089E-006
  0.18470000000000003         -1.7775582819012925E-006
  0.18580000000000002         -1.6586310493948986E-006
  0.18690000000000001         -1.5884255617493181E-006
  0.18800000000000000         -1.5840662399568828E-006
  0.18910000000000005         -1.5641585378034506E-006
  0.19020000000000004         -1.4770745337955304E-006
  0.19130000000000003         -1.3793260222882964E-006
  0.19240000000000002         -1.3456735814543208E-006
  0.19350000000000001         -1.3539461178879719E-006
  0.19460000000000005         -1.3216504157753661E-006
  0.19570000000000004         -1.2332873211562401E-006
  0.19680000000000003         -1.1615140920184786E-006
  0.19790000000000002         -1.1536260444700019E-006
  0.19900000000000001         -1.1610620731516974E-006
  0.20010000000000000         -1.1166270041940152E-006
  0.20120000000000005         -1.0364949503127718E-006
  0.20230000000000004         -9.9154726740380283E-007
  0.20340000000000003         -9.9816065812774468E-007
  0.20450000000000002         -9.9710382528428454E-007
  0.20560000000000000         -9.4683775841986062E-007
  0.20670000000000005         -8.8419432131559006E-007
  0.20780000000000004         -8.6313423253159272E-007
  0.20890000000000003         -8.7236037416005274E-007
