 -0.12000000000000000          0.0000000000000000     
 -0.11889999999999999          0.0000000000000000     
 -0.11780000000000000          0.0000000000000000     
 -0.11670000000000000          0.0000000000000000     
 -0.11559999999999999          0.0000000000000000     
 -0.11449999999999999          0.0000000000000000     
 -0.11340000000000000          0.0000000000000000     
 -0.11230000000000000          0.0000000000000000     
 -0.11119999999999999          0.0000000000000000     
 -0.11009999999999999         -1.6971579707572092E-026
 -0.10900000000000000          7.0057481286354318E-027
 -0.10790000000000000          2.3090843699147060E-025
 -0.10679999999999999         -2.2890241301330015E-026
 -0.10569999999999999         -1.2469672240248263E-024
 -0.10460000000000000          1.0913051472944769E-024
 -0.10349999999999999          3.6575646311098943E-024
 -0.10239999999999999         -2.3563349391876713E-023
 -0.10130000000000000         -3.6152510787869255E-023
 -0.10020000000000000          1.8533455193229207E-022
  -9.9099999999999994E-002     4.6807739600578501E-022
  -9.7999999999999990E-002    -4.9207603411199725E-022
  -9.6899999999999986E-002    -2.9717131955144167E-021
  -9.5799999999999996E-002    -1.8880835709532925E-021
  -9.4699999999999993E-002     8.4873714934248698E-021
  -9.3599999999999989E-002     1.7632370960875003E-020
  -9.2499999999999999E-002     4.9068925450594216E-022
  -9.1399999999999995E-002    -4.0863759467059526E-020
  -9.0299999999999991E-002    -6.1078467131290040E-020
  -8.9200000000000002E-002    -3.9369338137034574E-020
  -8.8099999999999984E-002     1.4612567188991180E-020
  -8.6999999999999994E-002     2.3015426834765986E-019
  -8.5899999999999990E-002     7.4741739554212918E-019
  -8.4799999999999986E-002     8.4795339248091872E-019
  -8.3699999999999997E-002    -1.2255036462636503E-018
  -8.2599999999999993E-002    -5.3728581974289728E-018
  -8.1499999999999989E-002    -5.9504374737344306E-018
  -8.0399999999999999E-002     4.4514435151326791E-018
  -7.9299999999999995E-002     2.2165485727273102E-017
  -7.8199999999999992E-002     2.7035220416103434E-017
  -7.7100000000000002E-002     4.8059136720663795E-019
  -7.5999999999999984E-002    -5.0279759943729511E-017
  -7.4899999999999994E-002    -9.5803701203867042E-017
  -7.3799999999999991E-002    -1.0239777990634787E-016
  -7.2699999999999987E-002    -1.6503905927296783E-017
  -7.1599999999999997E-002     2.3861807508748258E-016
  -7.0499999999999993E-002     6.1177944585198945E-016
  -6.9399999999999989E-002     6.8888316097465391E-016
  -6.8300000000000000E-002    -1.5377654193808268E-016
  -6.7199999999999996E-002    -1.9150394262718289E-015
  -6.6099999999999992E-002    -3.2125289417989393E-015
  -6.5000000000000002E-002    -1.9665030305646321E-015
  -6.3899999999999985E-002     2.4894764187924877E-015
  -6.2799999999999995E-002     8.0146723337322888E-015
  -6.1699999999999991E-002     1.0679600616120190E-014
  -6.0599999999999994E-002     6.8103253139423399E-015
  -5.9499999999999990E-002    -5.9611955366271115E-015
  -5.8399999999999994E-002    -2.6649655518375809E-014
  -5.7299999999999990E-002    -4.4980420890782316E-014
  -5.6199999999999986E-002    -3.8077214179008806E-014
  -5.5099999999999996E-002     1.5542087270490647E-014
  -5.3999999999999992E-002     1.0472041121626155E-013
  -5.2899999999999989E-002     1.6861981103934165E-013
  -5.1799999999999985E-002     1.2895014103817687E-013
  -5.0699999999999995E-002    -4.2265524440769989E-014
  -4.9599999999999991E-002    -2.8252053474453476E-013
  -4.8499999999999988E-002    -4.6462936579769187E-013
  -4.7399999999999998E-002    -4.5176126836805885E-013
  -4.6299999999999994E-002    -1.3603201410358062E-013
  -4.5199999999999990E-002     5.0255481200134344E-013
  -4.4099999999999986E-002     1.2658835568321591E-012
  -4.2999999999999997E-002     1.6522933195262102E-012
  -4.1899999999999993E-002     1.0676330696249292E-012
  -4.0799999999999989E-002    -6.4501968219735084E-013
  -3.9699999999999985E-002    -2.8077880732252369E-012
  -3.8599999999999995E-002    -4.1683518615942550E-012
  -3.7499999999999992E-002    -3.7067454140837786E-012
  -3.6399999999999988E-002    -1.2279799573022832E-012
  -3.5299999999999984E-002     2.7278934319752146E-012
  -3.4199999999999994E-002     7.1779145127681687E-012
  -3.3099999999999991E-002     1.0543267647822319E-011
  -3.1999999999999987E-002     1.0502391491196139E-011
  -3.0899999999999997E-002     5.0063954717960435E-012
  -2.9799999999999993E-002    -5.6982096992286291E-012
  -2.8699999999999989E-002    -1.8144263869146471E-011
  -2.7599999999999986E-002    -2.7340631494898737E-011
  -2.6499999999999996E-002    -2.9416157010242472E-011
  -2.5399999999999992E-002    -2.2096803553584010E-011
  -2.4299999999999988E-002    -3.2184732309814557E-012
  -2.3199999999999985E-002     2.8498222878758916E-011
  -2.2099999999999995E-002     6.8256768293029069E-011
  -2.0999999999999991E-002     1.0067716105233160E-010
  -1.9899999999999987E-002     1.0367692121482364E-010
  -1.8799999999999983E-002     6.0665597545472849E-011
  -1.7699999999999994E-002    -2.8611514199528010E-011
  -1.6599999999999990E-002    -1.4657622338098975E-010
  -1.5499999999999986E-002    -2.6235097427829146E-010
  -1.4399999999999996E-002    -3.3443967040192035E-010
  -1.3299999999999992E-002    -3.1365904318292337E-010
  -1.2199999999999989E-002    -1.5785273088653184E-010
  -1.1099999999999985E-002     1.3951313715399039E-010
  -9.9999999999999950E-003     5.2520832127811445E-010
  -8.8999999999999913E-003     8.8853724378168408E-010
  -7.7999999999999875E-003     1.0903890013125306E-009
  -6.6999999999999837E-003     9.9944852394173722E-010
  -5.5999999999999939E-003     5.2417226115153426E-010
  -4.4999999999999901E-003    -3.4973313134400996E-010
  -3.3999999999999864E-003    -1.5106540462994644E-009
  -2.2999999999999826E-003    -2.6881150638757845E-009
  -1.1999999999999927E-003    -3.4795757386518744E-009
  -9.9999999999988987E-005    -3.4512093183280967E-009
   1.0000000000000148E-003    -2.2790178633158575E-009
   2.1000000000000185E-003     1.1753083228871475E-010
   3.2000000000000084E-003     3.4762126510656799E-009
   4.3000000000000121E-003     7.1451982108783341E-009
   5.4000000000000159E-003     1.0127566341111560E-008
   6.5000000000000058E-003     1.1259889021175695E-008
   7.6000000000000234E-003     9.5144310208183924E-009
   8.7000000000000133E-003     4.3435313124007280E-009
   9.8000000000000032E-003    -4.0328931305566584E-009
   1.0900000000000021E-002    -1.4460048269882009E-008
   1.2000000000000011E-002    -2.4846263713129702E-008
   1.3100000000000001E-002    -3.2394645188560389E-008
   1.4200000000000018E-002    -3.4123832648447205E-008
   1.5300000000000008E-002    -2.7623647369523496E-008
   1.6400000000000026E-002    -1.1853005688067242E-008
   1.7500000000000016E-002     1.2250362502186363E-008
   1.8600000000000005E-002     4.1506361014853610E-008
   1.9700000000000023E-002     7.0672079743872018E-008
   2.0800000000000013E-002     9.3167578540942486E-008
   2.1900000000000003E-002     1.0240459857868700E-007
   2.3000000000000020E-002     9.3554653801675158E-008
   2.4100000000000010E-002     6.5310985064570559E-008
   2.5200000000000000E-002     2.1096610680615413E-008
   2.6300000000000018E-002    -3.0675700202209555E-008
   2.7400000000000008E-002    -7.7452646962683502E-008
   2.8500000000000025E-002    -1.0453025112155956E-007
   2.9600000000000015E-002    -9.8108323243195628E-008
   3.0700000000000005E-002    -4.9040782101883451E-008
   3.1800000000000023E-002     4.3498324941992905E-008
   3.2900000000000013E-002     1.6942230729455332E-007
   3.4000000000000002E-002     3.0704381970281247E-007
   3.5100000000000020E-002     4.2468769834158593E-007
   3.6200000000000010E-002     4.8456672629981767E-007
   3.7300000000000028E-002     4.4849107894151530E-007
   3.8400000000000017E-002     2.8448076250242593E-007
   3.9500000000000007E-002    -2.7162267102198712E-008
   4.0600000000000025E-002    -4.8985907596943434E-007
   4.1700000000000015E-002    -1.0897940683207707E-006
   4.2800000000000005E-002    -1.7984859823627630E-006
   4.3900000000000022E-002    -2.5787330741877668E-006
   4.5000000000000012E-002    -3.3933640679606469E-006
   4.6100000000000002E-002    -4.2158030737482477E-006
   4.7200000000000020E-002    -5.0404651119606569E-006
   4.8300000000000010E-002    -5.8910245570586994E-006
   4.9400000000000027E-002    -6.8251233642513398E-006
   5.0500000000000017E-002    -7.9348619692609645E-006
   5.1600000000000007E-002    -9.3429534899769351E-006
   5.2700000000000025E-002    -1.1194828402949497E-005
   5.3800000000000014E-002    -1.3648094864038285E-005
   5.4900000000000004E-002    -1.6863185010151938E-005
   5.6000000000000022E-002    -2.0996909370296635E-005
   5.7100000000000012E-002    -2.6198933483101428E-005
   5.8200000000000002E-002    -3.2613497751299292E-005
   5.9300000000000019E-002    -4.0387312765233219E-005
   6.0400000000000009E-002    -4.9683247198117897E-005
   6.1500000000000027E-002    -6.0698108427459374E-005
   6.2600000000000017E-002    -7.3680472269188613E-005
   6.3700000000000007E-002    -8.8942855654750019E-005
   6.4800000000000024E-002    -1.0686628957046196E-004
   6.5900000000000014E-002    -1.2790432083420455E-004
   6.7000000000000004E-002    -1.5258420899044722E-004
   6.8100000000000022E-002    -1.8149139941670001E-004
   6.9200000000000012E-002    -2.1525121701415628E-004
   7.0300000000000029E-002    -2.5452644331380725E-004
   7.1400000000000019E-002    -3.0001916456967592E-004
   7.2500000000000009E-002    -3.5246199695393443E-004
   7.3600000000000027E-002    -4.1261658770963550E-004
   7.4700000000000016E-002    -4.8129237256944180E-004
   7.5800000000000006E-002    -5.5934803094714880E-004
   7.6900000000000024E-002    -6.4770149765536189E-004
   7.8000000000000014E-002    -7.4733025394380093E-004
   7.9100000000000004E-002    -8.5921707795932889E-004
   8.0200000000000021E-002    -9.8432926461100578E-004
   8.1300000000000011E-002    -1.1236425489187241E-003
   8.2400000000000029E-002    -1.2780681718140841E-003
   8.3500000000000019E-002    -1.4484182465821505E-003
   8.4600000000000009E-002    -1.6353433020412922E-003
   8.5700000000000026E-002    -1.8393091158941388E-003
   8.6800000000000016E-002    -2.0606617908924818E-003
   8.7900000000000006E-002    -2.2995441686362028E-003
   8.9000000000000024E-002    -2.5557561311870813E-003
   9.0100000000000013E-002    -2.8287773020565510E-003
   9.1200000000000003E-002    -3.1177483033388853E-003
   9.2300000000000021E-002    -3.4214702900499105E-003
   9.3400000000000011E-002    -3.7383344024419785E-003
   9.4500000000000028E-002    -4.0661231614649296E-003
   9.5600000000000018E-002    -4.4018961489200592E-003
   9.6700000000000008E-002    -4.7422461211681366E-003
   9.7800000000000026E-002    -5.0833388231694698E-003
   9.8900000000000016E-002    -5.4204706102609634E-003
  0.10000000000000001         -5.7481504045426846E-003
  0.10110000000000002         -6.0601541772484779E-003
  0.10220000000000001         -6.3496381044387817E-003
  0.10330000000000003         -6.6093383356928825E-003
  0.10440000000000002         -6.8311537615954876E-003
  0.10550000000000001         -7.0065376348793507E-003
  0.10660000000000003         -7.1262805722653866E-003
  0.10770000000000002         -7.1807908825576305E-003
  0.10880000000000001         -7.1607269346714020E-003
  0.10990000000000003         -7.0565999485552311E-003
  0.11100000000000002         -6.8590836599469185E-003
  0.11210000000000001         -6.5587963908910751E-003
  0.11320000000000002         -6.1465729959309101E-003
  0.11430000000000001         -5.6144543923437595E-003
  0.11540000000000003         -4.9556996673345566E-003
  0.11650000000000002         -4.1647907346487045E-003
  0.11760000000000001         -3.2369361724704504E-003
  0.11870000000000003         -2.1686567924916744E-003
  0.11980000000000002         -9.5922051696106791E-004
  0.12090000000000001          3.8945153937675059E-004
  0.12200000000000003          1.8728325376287103E-003
  0.12310000000000001          3.4841448068618774E-003
  0.12420000000000003          5.2142813801765442E-003
  0.12530000000000002          7.0512765087187290E-003
  0.12640000000000001          8.9804874733090401E-003
  0.12750000000000003          1.0983664542436600E-002
  0.12860000000000002          1.3039638288319111E-002
  0.12970000000000001          1.5125495381653309E-002
  0.13080000000000003          1.7216211184859276E-002
  0.13190000000000002          1.9283797591924667E-002
  0.13300000000000001          2.1297885105013847E-002
  0.13410000000000000          2.3226775228977203E-002
  0.13520000000000004          2.5038424879312515E-002
  0.13630000000000003          2.6700146496295929E-002
  0.13740000000000002          2.8178725391626358E-002
  0.13850000000000001          2.9442606493830681E-002
  0.13960000000000000          3.0461877584457397E-002
  0.14070000000000005          3.1207526102662086E-002
  0.14180000000000004          3.1652361154556274E-002
  0.14290000000000003          3.1774025410413742E-002
  0.14400000000000002          3.1554814428091049E-002
  0.14510000000000001          3.0980339273810387E-002
  0.14620000000000000          3.0040305107831955E-002
  0.14730000000000004          2.8729643672704697E-002
  0.14840000000000003          2.7050113305449486E-002
  0.14950000000000002          2.5009784847497940E-002
  0.15060000000000001          2.2621873766183853E-002
  0.15170000000000000          1.9904661923646927E-002
  0.15280000000000005          1.6882697120308876E-002
  0.15390000000000004          1.3587249442934990E-002
  0.15500000000000003          1.0054509155452251E-002
  0.15610000000000002          6.3244989141821861E-003
  0.15720000000000001          2.4413950741291046E-003
  0.15830000000000000         -1.5468490310013294E-003
  0.15940000000000004         -5.5892178788781166E-003
  0.16050000000000003         -9.6326982602477074E-003
  0.16160000000000002         -1.3625029474496841E-002
  0.16270000000000001         -1.7514202743768692E-002
  0.16380000000000000         -2.1248027682304382E-002
  0.16490000000000005         -2.4775257334113121E-002
  0.16600000000000004         -2.8048001229763031E-002
  0.16710000000000003         -3.1024478375911713E-002
  0.16820000000000002         -3.3666908740997314E-002
  0.16930000000000001         -3.5940971225500107E-002
  0.17040000000000000         -3.7817504256963730E-002
  0.17150000000000004         -3.9275407791137695E-002
  0.17260000000000003         -4.0300048887729645E-002
  0.17370000000000002         -4.0882132947444916E-002
  0.17480000000000001         -4.1021522134542465E-002
  0.17590000000000000         -4.0724948048591614E-002
  0.17700000000000005         -4.0004156529903412E-002
  0.17810000000000004         -3.8876958191394806E-002
  0.17920000000000003         -3.7366241216659546E-002
  0.18030000000000002         -3.5501684993505478E-002
  0.18140000000000001         -3.3319119364023209E-002
  0.18250000000000000         -3.0857069417834282E-002
  0.18360000000000004         -2.8154917061328888E-002
  0.18470000000000003         -2.5253564119338989E-002
  0.18580000000000002         -2.2197719663381577E-002
  0.18690000000000001         -1.9034530967473984E-002
  0.18800000000000000         -1.5810729935765266E-002
  0.18910000000000005         -1.2569729238748550E-002
  0.19020000000000004         -9.3524139374494553E-003
  0.19130000000000003         -6.1977896839380264E-003
  0.19240000000000002         -3.1429175287485123E-003
  0.19350000000000001         -2.2176695347297937E-004
  0.19460000000000005          2.5355042889714241E-003
  0.19570000000000004          5.1025510765612125E-003
  0.19680000000000003          7.4584782123565674E-003
  0.19790000000000002          9.5878615975379944E-003
  0.19900000000000001          1.1479814536869526E-002
  0.20010000000000000          1.3126085512340069E-002
  0.20120000000000005          1.4520903117954731E-002
  0.20230000000000004          1.5662631019949913E-002
  0.20340000000000003          1.6555722802877426E-002
  0.20450000000000002          1.7210492864251137E-002
  0.20560000000000000          1.7639439553022385E-002
  0.20670000000000005          1.7854269593954086E-002
  0.20780000000000004          1.7866967245936394E-002
  0.20890000000000003          1.7692884430289268E-002
