 -0.12000000000000000          0.0000000000000000     
 -0.11889999999999999          0.0000000000000000     
 -0.11780000000000000          0.0000000000000000     
 -0.11670000000000000          0.0000000000000000     
 -0.11559999999999999          0.0000000000000000     
 -0.11449999999999999          0.0000000000000000     
 -0.11340000000000000          0.0000000000000000     
 -0.11230000000000000          0.0000000000000000     
 -0.11119999999999999          0.0000000000000000     
 -0.11009999999999999         -1.6971579707572092E-026
 -0.10900000000000000          7.0057481286354318E-027
 -0.10790000000000000          2.3090853559908376E-025
 -0.10679999999999999         -2.2890232056866282E-026
 -0.10569999999999999         -1.2469660407334684E-024
 -0.10460000000000000          1.0913093874218425E-024
 -0.10349999999999999          3.6575535870572212E-024
 -0.10239999999999999         -2.3563401456696458E-023
 -0.10130000000000000         -3.6152510787869255E-023
 -0.10020000000000000          1.8533456455406656E-022
  -9.9099999999999994E-002     4.6807759795417675E-022
  -9.7999999999999990E-002    -4.9207532729262617E-022
  -9.6899999999999986E-002    -2.9717142052563754E-021
  -9.5799999999999996E-002    -1.8880878118695190E-021
  -9.4699999999999993E-002     8.4873739168055707E-021
  -9.3599999999999989E-002     1.7632383885572074E-020
  -9.2499999999999999E-002     4.9067814734439665E-022
  -9.1399999999999995E-002    -4.0863785316453668E-020
  -9.0299999999999991E-002    -6.1078473593638576E-020
  -8.9200000000000002E-002    -3.9369286438246289E-020
  -8.8099999999999984E-002     1.4612683511264820E-020
  -8.6999999999999994E-002     2.3015434589584229E-019
  -8.5899999999999990E-002     7.4741718874697604E-019
  -8.4799999999999986E-002     8.4795308228818901E-019
  -8.3699999999999997E-002    -1.2255032326733440E-018
  -8.2599999999999993E-002    -5.3728586110192790E-018
  -8.1499999999999989E-002    -5.9504428504084122E-018
  -8.0399999999999999E-002     4.4514459966745167E-018
  -7.9299999999999995E-002     2.2165503925246578E-017
  -7.8199999999999992E-002     2.7035238614076910E-017
  -7.7100000000000002E-002     4.8058123424413417E-019
  -7.5999999999999984E-002    -5.0279816192011164E-017
  -7.4899999999999994E-002    -9.5803780613205847E-017
  -7.3799999999999991E-002    -1.0239777990634787E-016
  -7.2699999999999987E-002    -1.6503783504566125E-017
  -7.1599999999999997E-002     2.3861831331549899E-016
  -7.0499999999999993E-002     6.1177971054978547E-016
  -6.9399999999999989E-002     6.8888289627685789E-016
  -6.8300000000000000E-002    -1.5377700515922571E-016
  -6.7199999999999996E-002    -1.9150400615465394E-015
  -6.6099999999999992E-002    -3.2125302123483601E-015
  -6.5000000000000002E-002    -1.9665019717734480E-015
  -6.3899999999999985E-002     2.4894787481330926E-015
  -6.2799999999999995E-002     8.0146723337322888E-015
  -6.1699999999999991E-002     1.0679599769087243E-014
  -6.0599999999999994E-002     6.8103265844917608E-015
  -5.9499999999999990E-002    -5.9611896073964808E-015
  -5.8399999999999994E-002    -2.6649653824309914E-014
  -5.7299999999999990E-002    -4.4980444607704839E-014
  -5.6199999999999986E-002    -3.8077261612853852E-014
  -5.5099999999999996E-002     1.5542104211149592E-014
  -5.3999999999999992E-002     1.0472051286021522E-013
  -5.2899999999999989E-002     1.6861990590703174E-013
  -5.1799999999999985E-002     1.2895011393312256E-013
  -5.0699999999999995E-002    -4.2265582039010402E-014
  -4.9599999999999991E-002    -2.8252050763948044E-013
  -4.8499999999999988E-002    -4.6462952842801775E-013
  -4.7399999999999998E-002    -4.5176170204892785E-013
  -4.6299999999999994E-002    -1.3603208186621640E-013
  -4.5199999999999990E-002     5.0255546252264693E-013
  -4.4099999999999986E-002     1.2658846410343316E-012
  -4.2999999999999997E-002     1.6522940784677309E-012
  -4.1899999999999993E-002     1.0676324191036257E-012
  -4.0799999999999989E-002    -6.4502157955115269E-013
  -3.9699999999999985E-002    -2.8077893742678439E-012
  -3.8599999999999995E-002    -4.1683518615942550E-012
  -3.7499999999999992E-002    -3.7067445467220406E-012
  -3.6399999999999988E-002    -1.2279790899405452E-012
  -3.5299999999999984E-002     2.7278929982943456E-012
  -3.4199999999999994E-002     7.1779149464490377E-012
  -3.3099999999999991E-002     1.0543268515184057E-011
  -3.1999999999999987E-002     1.0502390623834401E-011
  -3.0899999999999997E-002     5.0063963391577815E-012
  -2.9799999999999993E-002    -5.6982001582495112E-012
  -2.8699999999999989E-002    -1.8144256930252567E-011
  -2.7599999999999986E-002    -2.7340638433792641E-011
  -2.6499999999999996E-002    -2.9416167418583328E-011
  -2.5399999999999992E-002    -2.2096819166095294E-011
  -2.4299999999999988E-002    -3.2184803867157941E-012
  -2.3199999999999985E-002     2.8498214205141537E-011
  -2.2099999999999995E-002     6.8256761354135165E-011
  -2.0999999999999991E-002     1.0067718880790721E-010
  -1.9899999999999987E-002     1.0367701142044439E-010
  -1.8799999999999983E-002     6.0665687751093600E-011
  -1.7699999999999994E-002    -2.8611536750933197E-011
  -1.6599999999999990E-002    -1.4657632052550440E-010
  -1.5499999999999986E-002    -2.6235100203386708E-010
  -1.4399999999999996E-002    -3.3443967040192035E-010
  -1.3299999999999992E-002    -3.1365918196080145E-010
  -1.2199999999999989E-002    -1.5785289741998554E-010
  -1.1099999999999985E-002     1.3951323429850504E-010
  -9.9999999999999950E-003     5.2520893190077800E-010
  -8.8999999999999913E-003     8.8853802093780132E-010
  -7.7999999999999875E-003     1.0903892233571355E-009
  -6.6999999999999837E-003     9.9944752474101506E-010
  -5.5999999999999939E-003     5.2417109541735840E-010
  -4.4999999999999901E-003    -3.4973218765443903E-010
  -3.3999999999999864E-003    -1.5106524919872300E-009
  -2.2999999999999826E-003    -2.6881159520542042E-009
  -1.1999999999999927E-003    -3.4795784031871335E-009
  -9.9999999999988987E-005    -3.4512106505957263E-009
   1.0000000000000148E-003    -2.2790176412712526E-009
   2.1000000000000185E-003     1.1752987472135601E-010
   3.2000000000000084E-003     3.4762128731102848E-009
   4.3000000000000121E-003     7.1452066485733212E-009
   5.4000000000000159E-003     1.0127575222895757E-008
   6.5000000000000058E-003     1.1259879251213079E-008
   7.6000000000000234E-003     9.5143999345737029E-009
   8.7000000000000133E-003     4.3434975616207794E-009
   9.8000000000000032E-003    -4.0328909101106092E-009
   1.0900000000000021E-002    -1.4459970110181075E-008
   1.2000000000000011E-002    -2.4846167789860374E-008
   1.3100000000000001E-002    -3.2394595450568886E-008
   1.4200000000000018E-002    -3.4123878833725030E-008
   1.5300000000000008E-002    -2.7623821452493758E-008
   1.6400000000000026E-002    -1.1853216186352711E-008
   1.7500000000000016E-002     1.2250248815348641E-008
   1.8600000000000005E-002     4.1506375225708325E-008
   1.9700000000000023E-002     7.0672250274128601E-008
   2.0800000000000013E-002     9.3168011972011300E-008
   2.1900000000000003E-002     1.0240501779890110E-007
   2.3000000000000020E-002     9.3554632485393086E-008
   2.4100000000000010E-002     6.5310501895510242E-008
   2.5200000000000000E-002     2.1096054680924681E-008
   2.6300000000000018E-002    -3.0675540330094009E-008
   2.7400000000000008E-002    -7.7451062452382757E-008
   2.8500000000000025E-002    -1.0452858134613052E-007
   2.9600000000000015E-002    -9.8109957491487876E-008
   3.0700000000000005E-002    -4.9046544603470466E-008
   3.1800000000000023E-002     4.3492345724871484E-008
   3.2900000000000013E-002     1.6942355784976826E-007
   3.4000000000000002E-002     3.0705371045769425E-007
   3.5100000000000020E-002     4.2469756067475828E-007
   3.6200000000000010E-002     4.8456740842084400E-007
   3.7300000000000028E-002     4.4848394509244827E-007
   3.8400000000000017E-002     2.8448008038139960E-007
   3.9500000000000007E-002    -2.7156842108411183E-008
   4.0600000000000025E-002    -4.8987556056090398E-007
   4.1700000000000015E-002    -1.0898273785642232E-006
   4.2800000000000005E-002    -1.7985082649829565E-006
   4.3900000000000022E-002    -2.5787412596400827E-006
   4.5000000000000012E-002    -3.3933745271497173E-006
   4.6100000000000002E-002    -4.2157921598118264E-006
   4.7200000000000020E-002    -5.0403982641000766E-006
   4.8300000000000010E-002    -5.8908931350742932E-006
   4.9400000000000027E-002    -6.8249869400460739E-006
   5.0500000000000017E-002    -7.9349592851940542E-006
   5.1600000000000007E-002    -9.3432263383874670E-006
   5.2700000000000025E-002    -1.1194812032044865E-005
   5.3800000000000014E-002    -1.3647709238284733E-005
   5.4900000000000004E-002    -1.6863017663126811E-005
   5.6000000000000022E-002    -2.0997493265895173E-005
   5.7100000000000012E-002    -2.6199872081633657E-005
   5.8200000000000002E-002    -3.2613756047794595E-005
   5.9300000000000019E-002    -4.0386436012340710E-005
   6.0400000000000009E-002    -4.9682173994369805E-005
   6.1500000000000027E-002    -6.0698195738950744E-005
   6.2600000000000017E-002    -7.3681600042618811E-005
   6.3700000000000007E-002    -8.8943219452630728E-005
   6.4800000000000024E-002    -1.0686527093639597E-004
   6.5900000000000014E-002    -1.2790443724952638E-004
   6.7000000000000004E-002    -1.5258540224749595E-004
   6.8100000000000022E-002    -1.8149094830732793E-004
   6.9200000000000012E-002    -2.1524995099753141E-004
   7.0300000000000029E-002    -2.5452810223214328E-004
   7.1400000000000019E-002    -3.0002245330251753E-004
   7.2500000000000009E-002    -3.5245943581685424E-004
   7.3600000000000027E-002    -4.1261239675804973E-004
   7.4700000000000016E-002    -4.8129298374988139E-004
   7.5800000000000006E-002    -5.5935332784429193E-004
   7.6900000000000024E-002    -6.4770650351420045E-004
   7.8000000000000014E-002    -7.4732751818373799E-004
   7.9100000000000004E-002    -8.5920933634042740E-004
   8.0200000000000021E-002    -9.8433531820774078E-004
   8.1300000000000011E-002    -1.1236576829105616E-003
   8.2400000000000029E-002    -1.2780748074874282E-003
   8.3500000000000019E-002    -1.4484015991911292E-003
   8.4600000000000009E-002    -1.6353114042431116E-003
   8.5700000000000026E-002    -1.8392923520877957E-003
   8.6800000000000016E-002    -2.0606725011020899E-003
   8.7900000000000006E-002    -2.2995674517005682E-003
   8.9000000000000024E-002    -2.5557698681950569E-003
   9.0100000000000013E-002    -2.8287747409194708E-003
   9.1200000000000003E-002    -3.1177599448710680E-003
   9.2300000000000021E-002    -3.4215133637189865E-003
   9.3400000000000011E-002    -3.7383590824902058E-003
   9.4500000000000028E-002    -4.0660919621586800E-003
   9.5600000000000018E-002    -4.4018905609846115E-003
   9.6700000000000008E-002    -4.7423457726836205E-003
   9.7800000000000026E-002    -5.0834272988140583E-003
   9.8900000000000016E-002    -5.4203798063099384E-003
  0.10000000000000001         -5.7479068636894226E-003
  0.10110000000000002         -6.0599599964916706E-003
  0.10220000000000001         -6.3497144728899002E-003
  0.10330000000000003         -6.6095115616917610E-003
  0.10440000000000002         -6.8312264047563076E-003
  0.10550000000000001         -7.0064221508800983E-003
  0.10660000000000003         -7.1261101402342319E-003
  0.10770000000000002         -7.1808379143476486E-003
  0.10880000000000001         -7.1608363650739193E-003
  0.10990000000000003         -7.0565687492489815E-003
  0.11100000000000002         -6.8588438443839550E-003
  0.11210000000000001         -6.5585128031671047E-003
  0.11320000000000002         -6.1466055922210217E-003
  0.11430000000000001         -5.6147747673094273E-003
  0.11540000000000003         -4.9559636972844601E-003
  0.11650000000000002         -4.1646193712949753E-003
  0.11760000000000001         -3.2364716753363609E-003
  0.11870000000000003         -2.1682984661310911E-003
  0.11980000000000002         -9.5924769993871450E-004
  0.12090000000000001          3.8890383439138532E-004
  0.12200000000000003          1.8721260130405426E-003
  0.12310000000000001          3.4837238490581512E-003
  0.12420000000000003          5.2143326029181480E-003
  0.12530000000000002          7.0514637045562267E-003
  0.12640000000000001          8.9806960895657539E-003
  0.12750000000000003          1.0984036140143871E-002
  0.12860000000000002          1.3039795681834221E-002
  0.12970000000000001          1.5125406906008720E-002
  0.13080000000000003          1.7215941101312637E-002
  0.13190000000000002          1.9283426925539970E-002
  0.13300000000000001          2.1298009902238846E-002
  0.13410000000000000          2.3227570578455925E-002
  0.13520000000000004          2.5038760155439377E-002
  0.13630000000000003          2.6699237525463104E-002
  0.13740000000000002          2.8177732601761818E-002
  0.13850000000000001          2.9442371800541878E-002
  0.13960000000000000          3.0462082475423813E-002
  0.14070000000000005          3.1207561492919922E-002
  0.14180000000000004          3.1652100384235382E-002
  0.14290000000000003          3.1773801892995834E-002
  0.14400000000000002          3.1554773449897766E-002
  0.14510000000000001          3.0980411916971207E-002
  0.14620000000000000          3.0040577054023743E-002
  0.14730000000000004          2.8730465099215508E-002
  0.14840000000000003          2.7051046490669250E-002
  0.14950000000000002          2.5009775534272194E-002
  0.15060000000000001          2.2620696574449539E-002
  0.15170000000000000          1.9903473556041718E-002
  0.15280000000000005          1.6882760450243950E-002
  0.15390000000000004          1.3588226400315762E-002
  0.15500000000000003          1.0055077262222767E-002
  0.15610000000000002          6.3240951858460903E-003
  0.15720000000000001          2.4405519943684340E-003
  0.15830000000000000         -1.5470329672098160E-003
  0.15940000000000004         -5.5885124020278454E-003
  0.16050000000000003         -9.6324607729911804E-003
  0.16160000000000002         -1.3625368475914001E-002
  0.16270000000000001         -1.7514346167445183E-002
  0.16380000000000000         -2.1247779950499535E-002
  0.16490000000000005         -2.4775255471467972E-002
  0.16600000000000004         -2.8048899024724960E-002
  0.16710000000000003         -3.1025148928165436E-002
  0.16820000000000002         -3.3666457980871201E-002
  0.16930000000000001         -3.5939890891313553E-002
  0.17040000000000000         -3.7817459553480148E-002
  0.17150000000000004         -3.9276096969842911E-002
  0.17260000000000003         -4.0299493819475174E-002
  0.17370000000000002         -4.0881443768739700E-002
  0.17480000000000001         -4.1022084653377533E-002
  0.17590000000000000         -4.0726311504840851E-002
  0.17700000000000005         -4.0005266666412354E-002
  0.17810000000000004         -3.8876418024301529E-002
  0.17920000000000003         -3.7365019321441650E-002
  0.18030000000000002         -3.5501226782798767E-002
  0.18140000000000001         -3.3319000154733658E-002
  0.18250000000000000         -3.0856704339385033E-002
  0.18360000000000004         -2.8154009953141212E-002
  0.18470000000000003         -2.5252794846892357E-002
  0.18580000000000002         -2.2197859361767769E-002
  0.18690000000000001         -1.9035512581467628E-002
  0.18800000000000000         -1.5811817720532417E-002
  0.18910000000000005         -1.2570238672196865E-002
  0.19020000000000004         -9.3526188284158707E-003
  0.19130000000000003         -6.1982204206287861E-003
  0.19240000000000002         -3.1430146191269159E-003
  0.19350000000000001         -2.2127116972114891E-004
  0.19460000000000005          2.5360563304275274E-003
  0.19570000000000004          5.1028481684625149E-003
  0.19680000000000003          7.4584581889212132E-003
  0.19790000000000002          9.5881093293428421E-003
  0.19900000000000001          1.1480489745736122E-002
  0.20010000000000000          1.3126434758305550E-002
  0.20120000000000005          1.4520123600959778E-002
  0.20230000000000004          1.5661200508475304E-002
  0.20340000000000003          1.6555098816752434E-002
  0.20450000000000002          1.7211114987730980E-002
  0.20560000000000000          1.7640084028244019E-002
  0.20670000000000005          1.7853818833827972E-002
  0.20780000000000004          1.7866028472781181E-002
  0.20890000000000003          1.7693029716610909E-002
