 -0.12000000000000000          0.0000000000000000     
 -0.11889999999999999          0.0000000000000000     
 -0.11780000000000000          0.0000000000000000     
 -0.11670000000000000          0.0000000000000000     
 -0.11559999999999999          0.0000000000000000     
 -0.11449999999999999          0.0000000000000000     
 -0.11340000000000000          0.0000000000000000     
 -0.11230000000000000          0.0000000000000000     
 -0.11119999999999999          1.9834912209620766E-018
 -0.11009999999999999         -1.5591446302311988E-017
 -0.10900000000000000          8.5724631171361508E-018
 -0.10790000000000000          2.1681371325459297E-016
 -0.10679999999999999         -2.8792656286467477E-016
 -0.10569999999999999         -1.9376590176117814E-015
 -0.10460000000000000          2.4443094456713362E-015
 -0.10349999999999999          1.4178519232440571E-014
 -0.10239999999999999         -1.0537720903389201E-014
 -0.10130000000000000         -8.6801781582802884E-014
 -0.10020000000000000          3.5276063516944626E-015
  -9.9099999999999994E-002     4.2599401111655111E-013
  -9.7999999999999990E-002     3.1031362375533167E-013
  -9.6899999999999986E-002    -1.5523706452247321E-012
  -9.5799999999999996E-002    -2.6095466933162559E-012
  -9.4699999999999993E-002     3.4200697829334104E-012
  -9.3599999999999989E-002     1.2604285670736459E-011
  -9.2499999999999999E-002     1.0918902500905991E-012
  -9.1399999999999995E-002    -3.9291157133414245E-011
  -9.0299999999999991E-002    -4.4909326257780435E-011
  -8.9200000000000002E-002     6.5584912500860071E-011
  -8.8099999999999984E-002     1.9646992366340044E-010
  -8.6999999999999994E-002     4.6735858238999839E-011
  -8.5899999999999990E-002    -4.4051742809081418E-010
  -8.4799999999999986E-002    -6.1716171062542458E-010
  -8.3699999999999997E-002     2.8456903500284625E-010
  -8.2599999999999993E-002     1.6617270892638203E-009
  -8.1499999999999989E-002     1.3878339588657695E-009
  -8.0399999999999999E-002    -1.5139879350201113E-009
  -7.9299999999999995E-002    -4.3085477408055795E-009
  -7.8199999999999992E-002    -2.8239042215716381E-009
  -7.7100000000000002E-002     2.9114093358373339E-009
  -7.5999999999999984E-002     7.8174453577162240E-009
  -7.4899999999999994E-002     7.9957462872926044E-009
  -7.3799999999999991E-002     3.6650735779630850E-009
  -7.2699999999999987E-002    -7.2499433123596191E-009
  -7.1599999999999997E-002    -2.8946079311253925E-008
  -7.0499999999999993E-002    -4.6726231772709070E-008
  -6.9399999999999989E-002    -1.5985454737688087E-008
  -6.8300000000000000E-002     8.7276006865977251E-008
  -6.7199999999999996E-002     1.8424070447053964E-007
  -6.6099999999999992E-002     1.1457598247943679E-007
  -6.5000000000000002E-002    -1.7381459826992796E-007
  -6.3899999999999985E-002    -4.5659623992833076E-007
  -6.2799999999999995E-002    -3.7681215303564386E-007
  -6.1699999999999991E-002     1.4187185115588363E-007
  -6.0599999999999994E-002     6.9568704930134118E-007
  -5.9499999999999990E-002     7.6868053611178766E-007
  -5.8399999999999994E-002     2.9778107091260608E-007
  -5.7299999999999990E-002    -3.0255554861469136E-007
  -5.6199999999999986E-002    -7.1104904009189340E-007
  -5.5099999999999996E-002    -1.0149335594178410E-006
  -5.3999999999999992E-002    -1.2366998589641298E-006
  -5.2899999999999989E-002    -8.5830839680056670E-007
  -5.1799999999999985E-002     5.9184696965530748E-007
  -5.0699999999999995E-002     2.4479809326294344E-006
  -4.9599999999999991E-002     3.1342649435828207E-006
  -4.8499999999999988E-002     1.9813048766081920E-006
  -4.7399999999999998E-002     2.1824931195624231E-007
  -4.6299999999999994E-002    -7.5177820235694526E-007
  -4.5199999999999990E-002    -1.6761150618549436E-006
  -4.4099999999999986E-002    -4.4826465455116704E-006
  -4.2999999999999997E-002    -8.4428102127276361E-006
  -4.1899999999999993E-002    -9.0427565737627447E-006
  -4.0799999999999989E-002    -2.7081866846856428E-006
  -3.9699999999999985E-002     7.8533021223847754E-006
  -3.8599999999999995E-002     1.5407618775498122E-005
  -3.7499999999999992E-002     1.5933339454932138E-005
  -3.6399999999999988E-002     1.2403453183651436E-005
  -3.5299999999999984E-002     9.3643075160798617E-006
  -3.4199999999999994E-002     5.9729122767748777E-006
  -3.3099999999999991E-002    -2.4903085886762710E-006
  -3.1999999999999987E-002    -1.7187327102874406E-005
  -3.0899999999999997E-002    -3.3672371500870213E-005
  -2.9799999999999993E-002    -4.7332760004792362E-005
  -2.8699999999999989E-002    -5.5731285101501271E-005
  -2.7599999999999986E-002    -5.3078169003129005E-005
  -2.6499999999999996E-002    -2.8658139854087494E-005
  -2.5399999999999992E-002     2.1299601939972490E-005
  -2.4299999999999988E-002     8.2422106061130762E-005
  -2.3199999999999985E-002     1.3313743693288416E-004
  -2.2099999999999995E-002     1.6963676898740232E-004
  -2.0999999999999991E-002     2.0923696865793318E-004
  -1.9899999999999987E-002     2.6054045883938670E-004
  -1.8799999999999983E-002     3.0015880474820733E-004
  -1.7699999999999994E-002     2.9687900678254664E-004
  -1.6599999999999990E-002     2.5902350898832083E-004
  -1.5499999999999986E-002     2.3767612583469599E-004
  -1.4399999999999996E-002     2.7142488397657871E-004
  -1.3299999999999992E-002     3.4277074155397713E-004
  -1.2199999999999989E-002     4.0980716585181653E-004
  -1.1099999999999985E-002     4.7306431224569678E-004
  -9.9999999999999950E-003     5.8464379981160164E-004
  -8.8999999999999913E-003     7.8529410529881716E-004
  -7.7999999999999875E-003     1.0586926946416497E-003
  -6.6999999999999837E-003     1.3648100430145860E-003
  -5.5999999999999939E-003     1.6975252656266093E-003
  -4.4999999999999901E-003     2.0792114082723856E-003
  -3.3999999999999864E-003     2.5129416026175022E-003
  -2.2999999999999826E-003     2.9834276065230370E-003
  -1.1999999999999927E-003     3.5078292712569237E-003
  -9.9999999999988987E-005     4.1426713578402996E-003
   1.0000000000000148E-003     4.9141724593937397E-003
   2.1000000000000185E-003     5.7821040973067284E-003
   3.2000000000000084E-003     6.7299138754606247E-003
   4.3000000000000121E-003     7.8641036525368690E-003
   5.4000000000000159E-003     9.3201315030455589E-003
   6.5000000000000058E-003     1.1075617745518684E-002
   7.6000000000000234E-003     1.2937658466398716E-002
   8.7000000000000133E-003     1.4783816412091255E-002
   9.8000000000000032E-003     1.6798578202724457E-002
   1.0900000000000021E-002     1.9295906648039818E-002
   1.2000000000000011E-002     2.2361189126968384E-002
   1.3100000000000001E-002     2.5753574445843697E-002
   1.4200000000000018E-002     2.9218595474958420E-002
   1.5300000000000008E-002     3.2837923616170883E-002
   1.6400000000000026E-002     3.6920059472322464E-002
   1.7500000000000016E-002     4.1621949523687363E-002
   1.8600000000000005E-002     4.6747040003538132E-002
   1.9700000000000023E-002     5.2080348134040833E-002
   2.0800000000000013E-002     5.7605598121881485E-002
   2.1900000000000003E-002     6.3341706991195679E-002
   2.3000000000000020E-002     6.9323003292083740E-002
   2.4100000000000010E-002     7.5622215867042542E-002
   2.5200000000000000E-002     8.2308009266853333E-002
   2.6300000000000018E-002     8.9324213564395905E-002
   2.7400000000000008E-002     9.6166528761386871E-002
   2.8500000000000025E-002    0.10227869451045990     
   2.9600000000000015E-002    0.10771476477384567     
   3.0700000000000005E-002    0.11305276304483414     
   3.1800000000000023E-002    0.11871425062417984     
   3.2900000000000013E-002    0.12401384115219116     
   3.4000000000000002E-002    0.12760214507579803     
   3.5100000000000020E-002    0.12883052229881287     
   3.6200000000000010E-002    0.12822592258453369     
   3.7300000000000028E-002    0.12697818875312805     
   3.8400000000000017E-002    0.12475898861885071     
   3.9500000000000007E-002    0.12022970616817474     
   4.0600000000000025E-002    0.11219289898872375     
   4.1700000000000015E-002    0.10059399902820587     
   4.2800000000000005E-002     8.6034327745437622E-002
   4.3900000000000022E-002     6.9364123046398163E-002
   4.5000000000000012E-002     5.0160396844148636E-002
   4.6100000000000002E-002     2.7742728590965271E-002
   4.7200000000000020E-002     4.4931023148819804E-004
   4.8300000000000010E-002    -3.1521867960691452E-002
   4.9400000000000027E-002    -6.7645318806171417E-002
   5.0500000000000017E-002   -0.10624922811985016     
   5.1600000000000007E-002   -0.14697763323783875     
   5.2700000000000025E-002   -0.18963174521923065     
   5.3800000000000014E-002   -0.23514197766780853     
   5.4900000000000004E-002   -0.28545871376991272     
   5.6000000000000022E-002   -0.33998700976371765     
   5.7100000000000012E-002   -0.39377316832542419     
   5.8200000000000002E-002   -0.44494876265525818     
   5.9300000000000019E-002   -0.49323171377182007     
   6.0400000000000009E-002   -0.54206901788711548     
   6.1500000000000027E-002   -0.59333521127700806     
   6.2600000000000017E-002   -0.64314800500869751     
   6.3700000000000007E-002   -0.68499541282653809     
   6.4800000000000024E-002   -0.71680468320846558     
   6.5900000000000014E-002   -0.74114125967025757     
   6.7000000000000004E-002   -0.76115232706069946     
   6.8100000000000022E-002   -0.77673441171646118     
   6.9200000000000012E-002   -0.78343409299850464     
   7.0300000000000029E-002   -0.77668362855911255     
   7.1400000000000019E-002   -0.75751388072967529     
   7.2500000000000009E-002   -0.72351706027984619     
   7.3600000000000027E-002   -0.67833709716796875     
   7.4700000000000016E-002   -0.62438678741455078     
   7.5800000000000006E-002   -0.56089353561401367     
   7.6900000000000024E-002   -0.48701128363609314     
   7.8000000000000014E-002   -0.39907914400100708     
   7.9100000000000004E-002   -0.29353150725364685     
   8.0200000000000021E-002   -0.17587867379188538     
   8.1300000000000011E-002    -5.5906988680362701E-002
   8.2400000000000029E-002     6.3264608383178711E-002
   8.3500000000000019E-002    0.18576449155807495     
   8.4600000000000009E-002    0.32126840949058533     
   8.5700000000000026E-002    0.46675261855125427     
   8.6800000000000016E-002    0.61011832952499390     
   8.7900000000000006E-002    0.74217456579208374     
   8.9000000000000024E-002    0.86342442035675049     
   9.0100000000000013E-002    0.98013859987258911     
   9.1200000000000003E-002     1.0943468809127808     
   9.2300000000000021E-002     1.1999734640121460     
   9.3400000000000011E-002     1.2922405004501343     
   9.4500000000000028E-002     1.3677625656127930     
   9.5600000000000018E-002     1.4239356517791748     
   9.6700000000000008E-002     1.4578058719635010     
   9.7800000000000026E-002     1.4721968173980713     
   9.8900000000000016E-002     1.4748889207839966     
  0.10000000000000001          1.4673163890838623     
  0.10110000000000002          1.4389293193817139     
  0.10220000000000001          1.3786860704421997     
  0.10330000000000003          1.2910870313644409     
  0.10440000000000002          1.1922940015792847     
  0.10550000000000001          1.0911734104156494     
  0.10660000000000003         0.98128688335418701     
  0.10770000000000002         0.85107767581939697     
  0.10880000000000001         0.69967943429946899     
  0.10990000000000003         0.53999030590057373     
  0.11100000000000002         0.38243469595909119     
  0.11210000000000001         0.22271746397018433     
  0.11320000000000002          6.3905358314514160E-002
  0.11430000000000001         -9.1082431375980377E-002
  0.11540000000000003        -0.23819880187511444     
  0.11650000000000002        -0.38903304934501648     
  0.11760000000000001        -0.54206424951553345     
  0.11870000000000003        -0.67738896608352661     
  0.11980000000000002        -0.78348052501678467     
  0.12090000000000001        -0.86988991498947144     
  0.12200000000000003        -0.95402288436889648     
  0.12310000000000001         -1.0393331050872803     
  0.12420000000000003         -1.1081545352935791     
  0.12530000000000002         -1.1426995992660522     
  0.12640000000000001         -1.1535053253173828     
  0.12750000000000003         -1.1560637950897217     
  0.12860000000000002         -1.1542421579360962     
  0.12970000000000001         -1.1360894441604614     
  0.13080000000000003         -1.0956388711929321     
  0.13190000000000002         -1.0466045141220093     
  0.13300000000000001        -0.99584311246871948     
  0.13410000000000000        -0.93201303482055664     
  0.13520000000000004        -0.84717953205108643     
  0.13630000000000003        -0.75312304496765137     
  0.13740000000000002        -0.67165535688400269     
  0.13850000000000001        -0.60043394565582275     
  0.13960000000000000        -0.51842588186264038     
  0.14070000000000005        -0.41439655423164368     
  0.14180000000000004        -0.30947747826576233     
  0.14290000000000003        -0.22781497240066528     
  0.14400000000000002        -0.16411757469177246     
  0.14510000000000001         -9.3303635716438293E-002
  0.14620000000000000         -9.8478859290480614E-003
  0.14730000000000004          6.5476849675178528E-002
  0.14840000000000003         0.11840318143367767     
  0.14950000000000002         0.16179706156253815     
  0.15060000000000001         0.21199972927570343     
  0.15170000000000000         0.26189598441123962     
  0.15280000000000005         0.29091766476631165     
  0.15390000000000004         0.30000886321067810     
  0.15500000000000003         0.31275072693824768     
  0.15610000000000002         0.34138447046279907     
  0.15720000000000001         0.36486366391181946     
  0.15830000000000000         0.35978826880455017     
  0.15940000000000004         0.33598160743713379     
  0.16050000000000003         0.32406517863273621     
  0.16160000000000002         0.33046633005142212     
  0.16270000000000001         0.33187252283096313     
  0.16380000000000000         0.30914697051048279     
  0.16490000000000005         0.27673697471618652     
  0.16600000000000004         0.25795155763626099     
  0.16710000000000003         0.25203263759613037     
  0.16820000000000002         0.23615252971649170     
  0.16930000000000001         0.20279096066951752     
  0.17040000000000000         0.17524613440036774     
  0.17150000000000004         0.16747285425662994     
  0.17260000000000003         0.16217887401580811     
  0.17370000000000002         0.13658246397972107     
  0.17480000000000001          9.9956147372722626E-002
  0.17590000000000000          8.0948740243911743E-002
  0.17700000000000005          8.5317827761173248E-002
  0.17810000000000004          8.4904007613658905E-002
  0.17920000000000003          6.0221355408430099E-002
  0.18030000000000002          2.9044426977634430E-002
  0.18140000000000001          2.0335096865892410E-002
  0.18250000000000000          3.1067082658410072E-002
  0.18360000000000004          3.1236646696925163E-002
  0.18470000000000003          9.2979269102215767E-003
  0.18580000000000002         -1.1509076692163944E-002
  0.18690000000000001         -8.9187836274504662E-003
  0.18800000000000000          4.0241247043013573E-003
  0.18910000000000005          1.1766936950152740E-004
  0.19020000000000004         -1.9813710823655128E-002
  0.19130000000000003         -2.9302239418029785E-002
  0.19240000000000002         -1.7468370497226715E-002
  0.19350000000000001         -5.9107406996190548E-003
  0.19460000000000005         -1.5118807554244995E-002
  0.19570000000000004         -3.2690815627574921E-002
  0.19680000000000003         -3.2735340297222137E-002
  0.19790000000000002         -1.6720499843358994E-002
  0.19900000000000001         -1.0780581273138523E-002
  0.20010000000000000         -2.5352656841278076E-002
  0.20120000000000005         -3.8334809243679047E-002
  0.20230000000000004         -2.9367554932832718E-002
  0.20340000000000003         -1.1274971067905426E-002
  0.20450000000000002         -1.1490478180348873E-002
  0.20560000000000000         -2.9862700030207634E-002
  0.20670000000000005         -3.8951624184846878E-002
  0.20780000000000004         -2.5305230170488358E-002
  0.20890000000000003         -9.3270996585488319E-003
