 -0.12000000000000000          0.0000000000000000     
 -0.11889999999999999          0.0000000000000000     
 -0.11780000000000000          0.0000000000000000     
 -0.11670000000000000          0.0000000000000000     
 -0.11559999999999999          0.0000000000000000     
 -0.11449999999999999          0.0000000000000000     
 -0.11340000000000000         -5.0400041778919658E-011
 -0.11230000000000000          6.1749230728658233E-011
 -0.11119999999999999          4.5327128161964936E-010
 -0.11009999999999999         -3.4988217878506589E-010
 -0.10900000000000000         -1.9119192895544757E-009
 -0.10790000000000000          1.7202750335343353E-009
 -0.10679999999999999          4.5018269112517828E-009
 -0.10569999999999999         -1.5300422262498614E-008
 -0.10460000000000000         -2.0413299495203319E-008
 -0.10349999999999999          8.7564664852379792E-008
 -0.10239999999999999          1.8019845526850986E-007
 -0.10130000000000000         -1.8741263829724630E-007
 -0.10020000000000000         -8.7553388539163279E-007
  -9.9099999999999994E-002    -4.2462670535314828E-007
  -9.7999999999999990E-002     1.9266897197667276E-006
  -9.6899999999999986E-002     3.2367904623242794E-006
  -9.5799999999999996E-002    -3.3880974115163554E-007
  -9.4699999999999993E-002    -5.8439982240088284E-006
  -9.3599999999999989E-002    -5.2812638386967592E-006
  -9.2499999999999999E-002    -1.9170643383858987E-007
  -9.1399999999999995E-002    -1.8451584082868067E-006
  -9.0299999999999991E-002    -2.6707300548878266E-006
  -8.9200000000000002E-002     2.8631595341721550E-005
  -8.8099999999999984E-002     7.8958364611025900E-005
  -8.6999999999999994E-002     4.2796586058102548E-005
  -8.5899999999999990E-002    -1.4914677012711763E-004
  -8.4799999999999986E-002    -3.2458433997817338E-004
  -8.3699999999999997E-002    -1.6476234304718673E-004
  -8.2599999999999993E-002     3.3557356800884008E-004
  -8.1499999999999989E-002     6.7431660136207938E-004
  -8.0399999999999999E-002     4.2978354031220078E-004
  -7.9299999999999995E-002    -8.2553939137142152E-005
  -7.8199999999999992E-002    -2.9874112806282938E-004
  -7.7100000000000002E-002    -5.4656784050166607E-004
  -7.5999999999999984E-002    -1.6551497392356396E-003
  -7.4899999999999994E-002    -2.7830703184008598E-003
  -7.3799999999999991E-002    -1.0521232616156340E-003
  -7.2699999999999987E-002     4.4935764744877815E-003
  -7.1599999999999997E-002     9.1465143486857414E-003
  -7.0499999999999993E-002     6.3053136691451073E-003
  -6.9399999999999989E-002    -3.4620615188032389E-003
  -6.8300000000000000E-002    -1.0884708724915981E-002
  -6.7199999999999996E-002    -9.4780456274747849E-003
  -6.6099999999999992E-002    -5.2102589979767799E-003
  -6.5000000000000002E-002    -7.1801538579165936E-003
  -6.3899999999999985E-002    -9.6179414540529251E-003
  -6.2799999999999995E-002     4.5374687761068344E-003
  -6.1699999999999991E-002     3.5034582018852234E-002
  -6.0599999999999994E-002     5.1643263548612595E-002
  -5.9499999999999990E-002     2.7876717969775200E-002
  -5.8399999999999994E-002    -1.7235552892088890E-002
  -5.7299999999999990E-002    -3.6459300667047501E-002
  -5.6199999999999986E-002    -2.1838732063770294E-002
  -5.5099999999999996E-002    -2.5898382067680359E-002
  -5.3999999999999992E-002    -8.5925176739692688E-002
  -5.2899999999999989E-002   -0.14581152796745300     
  -5.1799999999999985E-002   -0.10320702940225601     
  -5.0699999999999995E-002     5.5662408471107483E-002
  -4.9599999999999991E-002    0.21879301965236664     
  -4.8499999999999988E-002    0.28160616755485535     
  -4.7399999999999998E-002    0.27288851141929626     
  -4.6299999999999994E-002    0.27942353487014771     
  -4.5199999999999990E-002    0.26516053080558777     
  -4.4099999999999986E-002     6.9870159029960632E-002
  -4.2999999999999997E-002   -0.36275497078895569     
  -4.1899999999999993E-002   -0.83790081739425659     
  -4.0799999999999989E-002    -1.0858994722366333     
  -3.9699999999999985E-002    -1.0451478958129883     
  -3.8599999999999995E-002   -0.84874618053436279     
  -3.7499999999999992E-002   -0.52859455347061157     
  -3.6399999999999988E-002    0.10935301333665848     
  -3.5299999999999984E-002     1.2088272571563721     
  -3.4199999999999994E-002     2.5600707530975342     
  -3.3099999999999991E-002     3.7126283645629883     
  -3.1999999999999987E-002     4.3307948112487793     
  -3.0899999999999997E-002     4.2512545585632324     
  -2.9799999999999993E-002     3.1980795860290527     
  -2.8699999999999989E-002    0.71899855136871338     
  -2.7599999999999986E-002    -3.4012012481689453     
  -2.6499999999999996E-002    -8.8298702239990234     
  -2.5399999999999992E-002    -15.053014755249023     
  -2.4299999999999988E-002    -21.975732803344727     
  -2.3199999999999985E-002    -29.821880340576172     
  -2.2099999999999995E-002    -38.386455535888672     
  -2.0999999999999991E-002    -46.829486846923828     
  -1.9899999999999987E-002    -54.606479644775391     
  -1.8799999999999983E-002    -62.441333770751953     
  -1.7699999999999994E-002    -71.946266174316406     
  -1.6599999999999990E-002    -84.317489624023438     
  -1.5499999999999986E-002    -99.914268493652344     
  -1.4399999999999996E-002    -119.32896423339844     
  -1.3299999999999992E-002    -144.33210754394531     
  -1.2199999999999989E-002    -177.18046569824219     
  -1.1099999999999985E-002    -219.21055603027344     
  -9.9999999999999950E-003    -270.78652954101562     
  -8.8999999999999913E-003    -332.75125122070312     
  -7.7999999999999875E-003    -407.32574462890625     
  -6.6999999999999837E-003    -497.22079467773438     
  -5.5999999999999939E-003    -604.44964599609375     
  -4.4999999999999901E-003    -730.78479003906250     
  -3.3999999999999864E-003    -879.16369628906250     
  -2.2999999999999826E-003    -1053.8824462890625     
  -1.1999999999999927E-003    -1259.2817382812500     
  -9.9999999999988987E-005    -1499.2481689453125     
   1.0000000000000148E-003    -1778.5793457031250     
   2.1000000000000185E-003    -2104.0065917968750     
   3.2000000000000084E-003    -2482.9167480468750     
   4.3000000000000121E-003    -2921.6052246093750     
   5.4000000000000159E-003    -3425.7736816406250     
   6.5000000000000058E-003    -4003.3908691406250     
   7.6000000000000234E-003    -4665.0795898437500     
   8.7000000000000133E-003    -5421.6801757812500     
   9.8000000000000032E-003    -6280.9809570312500     
   1.0900000000000021E-002    -7249.2231445312500     
   1.2000000000000011E-002    -8335.0332031250000     
   1.3100000000000001E-002    -9550.0068359375000     
   1.4200000000000018E-002    -10906.498046875000     
   1.5300000000000008E-002    -12413.480468750000     
   1.6400000000000026E-002    -14077.960937500000     
   1.7500000000000016E-002    -15907.014648437500     
   1.8600000000000005E-002    -17907.755859375000     
   1.9700000000000023E-002    -20085.429687500000     
   2.0800000000000013E-002    -22442.271484375000     
   2.1900000000000003E-002    -24976.945312500000     
   2.3000000000000020E-002    -27685.488281250000     
   2.4100000000000010E-002    -30563.009765625000     
   2.5200000000000000E-002    -33598.191406250000     
   2.6300000000000018E-002    -36772.570312500000     
   2.7400000000000008E-002    -40066.203125000000     
   2.8500000000000025E-002    -43456.195312500000     
   2.9600000000000015E-002    -46913.468750000000     
   3.0700000000000005E-002    -50396.425781250000     
   3.1800000000000023E-002    -53858.398437500000     
   3.2900000000000013E-002    -57243.929687500000     
   3.4000000000000002E-002    -60495.046875000000     
   3.5100000000000020E-002    -63545.796875000000     
   3.6200000000000010E-002    -66317.656250000000     
   3.7300000000000028E-002    -68731.039062500000     
   3.8400000000000017E-002    -70696.898437500000     
   3.9500000000000007E-002    -72132.101562500000     
   4.0600000000000025E-002    -72936.359375000000     
   4.1700000000000015E-002    -73004.476562500000     
   4.2800000000000005E-002    -72244.609375000000     
   4.3900000000000022E-002    -70551.914062500000     
   4.5000000000000012E-002    -67831.203125000000     
   4.6100000000000002E-002    -63991.460937500000     
   4.7200000000000020E-002    -58938.039062500000     
   4.8300000000000010E-002    -52586.273437500000     
   4.9400000000000027E-002    -44879.125000000000     
   5.0500000000000017E-002    -35756.515625000000     
   5.1600000000000007E-002    -25197.166015625000     
   5.2700000000000025E-002    -13182.296875000000     
   5.3800000000000014E-002     302.46511840820312     
   5.4900000000000004E-002     15206.425781250000     
   5.6000000000000022E-002     31462.031250000000     
   5.7100000000000012E-002     49003.312500000000     
   5.8200000000000002E-002     67709.304687500000     
   5.9300000000000019E-002     87415.929687500000     
   6.0400000000000009E-002     107949.72656250000     
   6.1500000000000027E-002     129123.07812500000     
   6.2600000000000017E-002     150711.67187500000     
   6.3700000000000007E-002     172451.62500000000     
   6.4800000000000024E-002     194013.50000000000     
   6.5900000000000014E-002     215095.71875000000     
   6.7000000000000004E-002     235382.51562500000     
   6.8100000000000022E-002     254592.37500000000     
   6.9200000000000012E-002     272363.50000000000     
   7.0300000000000029E-002     288316.18750000000     
   7.1400000000000019E-002     302081.59375000000     
   7.2500000000000009E-002     313354.06250000000     
   7.3600000000000027E-002     321864.00000000000     
   7.4700000000000016E-002     327339.53125000000     
   7.5800000000000006E-002     329496.09375000000     
   7.6900000000000024E-002     328113.62500000000     
   7.8000000000000014E-002     323028.40625000000     
   7.9100000000000004E-002     314141.84375000000     
   8.0200000000000021E-002     301372.28125000000     
   8.1300000000000011E-002     284710.56250000000     
   8.2400000000000029E-002     264246.34375000000     
   8.3500000000000019E-002     240134.00000000000     
   8.4600000000000009E-002     212503.64062500000     
   8.5700000000000026E-002     181553.31250000000     
   8.6800000000000016E-002     147612.03125000000     
   8.7900000000000006E-002     111097.37500000000     
   8.9000000000000024E-002     72465.125000000000     
   9.0100000000000013E-002     32127.613281250000     
   9.1200000000000003E-002    -9477.2402343750000     
   9.2300000000000021E-002    -51835.710937500000     
   9.3400000000000011E-002    -94339.023437500000     
   9.4500000000000028E-002    -136396.26562500000     
   9.5600000000000018E-002    -177471.78125000000     
   9.6700000000000008E-002    -217038.25000000000     
   9.7800000000000026E-002    -254542.56250000000     
   9.8900000000000016E-002    -289486.40625000000     
  0.10000000000000001         -321428.65625000000     
  0.10110000000000002         -349953.40625000000     
  0.10220000000000001         -374649.62500000000     
  0.10330000000000003         -395140.87500000000     
  0.10440000000000002         -411225.28125000000     
  0.10550000000000001         -422817.06250000000     
  0.10660000000000003         -429845.68750000000     
  0.10770000000000002         -432224.43750000000     
  0.10880000000000001         -429879.90625000000     
  0.10990000000000003         -422938.75000000000     
  0.11100000000000002         -411682.12500000000     
  0.11210000000000001         -396396.37500000000     
  0.11320000000000002         -377351.75000000000     
  0.11430000000000001         -354839.46875000000     
  0.11540000000000003         -329235.81250000000     
  0.11650000000000002         -300969.87500000000     
  0.11760000000000001         -270521.68750000000     
  0.11870000000000003         -238377.59375000000     
  0.11980000000000002         -205045.43750000000     
  0.12090000000000001         -171026.32812500000     
  0.12200000000000003         -136725.54687500000     
  0.12310000000000001         -102496.18750000000     
  0.12420000000000003         -68787.335937500000     
  0.12530000000000002         -36110.011718750000     
  0.12640000000000001         -4905.7514648437500     
  0.12750000000000003          24555.914062500000     
  0.12860000000000002          52105.925781250000     
  0.12970000000000001          77540.156250000000     
  0.13080000000000003          100637.71875000000     
  0.13190000000000002          121181.58593750000     
  0.13300000000000001          139053.84375000000     
  0.13410000000000000          154217.39062500000     
  0.13520000000000004          166693.03125000000     
  0.13630000000000003          176563.93750000000     
  0.13740000000000002          183942.01562500000     
  0.13850000000000001          188924.04687500000     
  0.13960000000000000          191562.04687500000     
  0.14070000000000005          191923.34375000000     
  0.14180000000000004          190197.04687500000     
  0.14290000000000003          186703.70312500000     
  0.14400000000000002          181745.25000000000     
  0.14510000000000001          175474.92187500000     
  0.14620000000000000          167958.50000000000     
  0.14730000000000004          159334.73437500000     
  0.14840000000000003          149877.87500000000     
  0.14950000000000002          139887.76562500000     
  0.15060000000000001          129556.06250000000     
  0.15170000000000000          119007.69531250000     
  0.15280000000000005          108376.14843750000     
  0.15390000000000004          97819.718750000000     
  0.15500000000000003          87413.031250000000     
  0.15610000000000002          77205.000000000000     
  0.15720000000000001          67325.945312500000     
  0.15830000000000000          57999.011718750000     
  0.15940000000000004          49346.710937500000     
  0.16050000000000003          41298.316406250000     
  0.16160000000000002          33690.265625000000     
  0.16270000000000001          26537.099609375000     
  0.16380000000000000          20022.246093750000     
  0.16490000000000005          14293.464843750000     
  0.16600000000000004          9272.2519531250000     
  0.16710000000000003          4790.7851562500000     
  0.16820000000000002          786.31878662109375     
  0.16930000000000001         -2693.0485839843750     
  0.17040000000000000         -5650.0043945312500     
  0.17150000000000004         -8166.4736328125000     
  0.17260000000000003         -10266.614257812500     
  0.17370000000000002         -11885.886718750000     
  0.17480000000000001         -13028.560546875000     
  0.17590000000000000         -13876.308593750000     
  0.17700000000000005         -14629.657226562500     
  0.17810000000000004         -15265.875000000000     
  0.17920000000000003         -15576.119140625000     
  0.18030000000000002         -15476.768554687500     
  0.18140000000000001         -15165.958007812500     
  0.18250000000000000         -14897.340820312500     
  0.18360000000000004         -14683.504882812500     
  0.18470000000000003         -14348.621093750000     
  0.18580000000000002         -13815.078125000000     
  0.18690000000000001         -13207.785156250000     
  0.18800000000000000         -12638.640625000000     
  0.18910000000000005         -12054.459960937500     
  0.19020000000000004         -11377.117187500000     
  0.19130000000000003         -10694.752929687500     
  0.19240000000000002         -10156.754882812500     
  0.19350000000000001         -9718.9345703125000     
  0.19460000000000005         -9171.7841796875000     
  0.19570000000000004         -8445.9472656250000     
  0.19680000000000003         -7753.5615234375000     
  0.19790000000000002         -7305.3164062500000     
  0.19900000000000001         -7014.4497070312500     
  0.20010000000000000         -6619.6425781250000     
  0.20120000000000005         -6057.3491210937500     
  0.20230000000000004         -5536.4633789062500     
  0.20340000000000003         -5212.9584960937500     
  0.20450000000000002         -4967.7324218750000     
  0.20560000000000000         -4613.9829101562500     
  0.20670000000000005         -4198.6201171875000     
  0.20780000000000004         -3916.5336914062500     
  0.20890000000000003         -3785.4816894531250     
