 -0.12000000000000000          0.0000000000000000     
 -0.11889999999999999          0.0000000000000000     
 -0.11780000000000000         -9.9066985445202375E-037
 -0.11670000000000000         -7.4527736412810519E-012
 -0.11559999999999999          9.8540776233280170E-012
 -0.11449999999999999          6.4045990733063718E-011
 -0.11340000000000000         -7.7472264714550931E-011
 -0.11230000000000000         -4.0007441803879829E-010
 -0.11119999999999999          1.5578210943445470E-010
 -0.11009999999999999          1.7873329483109046E-009
 -0.10900000000000000          8.3040285758784194E-010
 -0.10790000000000000         -5.3122692911244940E-009
 -0.10679999999999999         -7.5298256518863127E-009
 -0.10569999999999999          7.6709465446356262E-009
 -0.10460000000000000          2.7691777759741854E-008
 -0.10349999999999999          1.0631942437555608E-008
 -0.10239999999999999         -5.1289749336547175E-008
 -0.10130000000000000         -7.8835348915617942E-008
 -0.10020000000000000          1.2862127363177933E-008
  -9.9099999999999994E-002     1.5656003427011456E-007
  -9.7999999999999990E-002     1.4992551200521120E-007
  -9.6899999999999986E-002    -7.7726234337660571E-008
  -9.5799999999999996E-002    -2.8944452878931770E-007
  -9.4699999999999993E-002    -1.9414125063121901E-007
  -9.3599999999999989E-002     1.3308007851264847E-007
  -9.2499999999999999E-002     2.9348265684348007E-007
  -9.1399999999999995E-002     1.1179556480556130E-007
  -9.0299999999999991E-002    -8.9194607255649316E-008
  -8.9200000000000002E-002     2.4515832919291825E-008
  -8.8099999999999984E-002     2.3214749944600044E-007
  -8.6999999999999994E-002     5.0550152508321844E-008
  -8.5899999999999990E-002    -4.6149037302711804E-007
  -8.4799999999999986E-002    -6.6096299633500166E-007
  -8.3699999999999997E-002    -2.3164518836438219E-007
  -8.2599999999999993E-002     3.4001820381490688E-007
  -8.1499999999999989E-002     5.3870911642661667E-007
  -8.0399999999999999E-002     5.7867572422765079E-007
  -7.9299999999999995E-002     7.3470425832056208E-007
  -7.8199999999999992E-002     2.7107674327453424E-007
  -7.7100000000000002E-002    -1.8896405435953056E-006
  -7.5999999999999984E-002    -5.2562272685463540E-006
  -7.4899999999999994E-002    -7.6994429036858492E-006
  -7.3799999999999991E-002    -8.0821419032872654E-006
  -7.2699999999999987E-002    -8.0002018876257353E-006
  -7.1599999999999997E-002    -9.5752247943892144E-006
  -7.0499999999999993E-002    -1.2097008948330767E-005
  -6.9399999999999989E-002    -1.2811403394152876E-005
  -6.8300000000000000E-002    -1.1398417882446665E-005
  -6.7199999999999996E-002    -1.1584566891542636E-005
  -6.6099999999999992E-002    -1.6781286831246689E-005
  -6.5000000000000002E-002    -2.5558891138643958E-005
  -6.3899999999999985E-002    -3.3659071050351486E-005
  -6.2799999999999995E-002    -3.9839149394538254E-005
  -6.1699999999999991E-002    -4.7044050006661564E-005
  -6.0599999999999994E-002    -5.7539375120541081E-005
  -5.9499999999999990E-002    -6.9986999733373523E-005
  -5.8399999999999994E-002    -8.3068829553667456E-005
  -5.7299999999999990E-002    -9.9179305834695697E-005
  -5.6199999999999986E-002    -1.2119378516217694E-004
  -5.5099999999999996E-002    -1.4727922098245472E-004
  -5.3999999999999992E-002    -1.7355119052808732E-004
  -5.2899999999999989E-002    -2.0208026398904622E-004
  -5.1799999999999985E-002    -2.4094454420264810E-004
  -5.0699999999999995E-002    -2.9340537730604410E-004
  -4.9599999999999991E-002    -3.5164220025762916E-004
  -4.8499999999999988E-002    -4.0696351788938046E-004
  -4.7399999999999998E-002    -4.6417088015004992E-004
  -4.6299999999999994E-002    -5.3862662753090262E-004
  -4.5199999999999990E-002    -6.3774327281862497E-004
  -4.4099999999999986E-002    -7.5228145578876138E-004
  -4.2999999999999997E-002    -8.7039318168535829E-004
  -4.1899999999999993E-002    -9.9477195180952549E-004
  -4.0799999999999989E-002    -1.1388264829292893E-003
  -3.9699999999999985E-002    -1.3088984414935112E-003
  -3.8599999999999995E-002    -1.4994455268606544E-003
  -3.7499999999999992E-002    -1.7064480343833566E-003
  -3.6399999999999988E-002    -1.9354048417881131E-003
  -3.5299999999999984E-002    -2.1908127237111330E-003
  -3.4199999999999994E-002    -2.4665151722729206E-003
  -3.3099999999999991E-002    -2.7567562647163868E-003
  -3.1999999999999987E-002    -3.0720201320946217E-003
  -3.0899999999999997E-002    -3.4296854864805937E-003
  -2.9799999999999993E-002    -3.8271229714155197E-003
  -2.8699999999999989E-002    -4.2383749969303608E-003
  -2.7599999999999986E-002    -4.6462868340313435E-003
  -2.6499999999999996E-002    -5.0671533681452274E-003
  -2.5399999999999992E-002    -5.5291349999606609E-003
  -2.4299999999999988E-002    -6.0308240354061127E-003
  -2.3199999999999985E-002    -6.5387543290853500E-003
  -2.2099999999999995E-002    -7.0279520004987717E-003
  -2.0999999999999991E-002    -7.5074578635394573E-003
  -1.9899999999999987E-002    -7.9953409731388092E-003
  -1.8799999999999983E-002    -8.4829656407237053E-003
  -1.7699999999999994E-002    -8.9423283934593201E-003
  -1.6599999999999990E-002    -9.3605974689126015E-003
  -1.5499999999999986E-002    -9.7438078373670578E-003
  -1.4399999999999996E-002    -1.0083629749715328E-002
  -1.3299999999999992E-002    -1.0345655493438244E-002
  -1.2199999999999989E-002    -1.0504094883799553E-002
  -1.1099999999999985E-002    -1.0570341721177101E-002
  -9.9999999999999950E-003    -1.0563754476606846E-002
  -8.8999999999999913E-003    -1.0460137389600277E-002
  -7.7999999999999875E-003    -1.0199574753642082E-002
  -6.6999999999999837E-003    -9.7512090578675270E-003
  -5.5999999999999939E-003    -9.1405166313052177E-003
  -4.4999999999999901E-003    -8.3976788446307182E-003
  -3.3999999999999864E-003    -7.4989181011915207E-003
  -2.2999999999999826E-003    -6.3894926570355892E-003
  -1.1999999999999927E-003    -5.0544873811304569E-003
  -9.9999999999988987E-005    -3.5278755240142345E-003
   1.0000000000000148E-003    -1.8308536382392049E-003
   2.1000000000000185E-003     6.2806546338833869E-005
   3.2000000000000084E-003     2.1779125090688467E-003
   4.3000000000000121E-003     4.4851507991552353E-003
   5.4000000000000159E-003     6.9264923222362995E-003
   6.5000000000000058E-003     9.4877993687987328E-003
   7.6000000000000234E-003     1.2204680591821671E-002
   8.7000000000000133E-003     1.5077508985996246E-002
   9.8000000000000032E-003     1.8028754740953445E-002
   1.0900000000000021E-002     2.0969830453395844E-002
   1.2000000000000011E-002     2.3883206769824028E-002
   1.3100000000000001E-002     2.6797519996762276E-002
   1.4200000000000018E-002     2.9685312882065773E-002
   1.5300000000000008E-002     3.2444760203361511E-002
   1.6400000000000026E-002     3.4994263201951981E-002
   1.7500000000000016E-002     3.7329044193029404E-002
   1.8600000000000005E-002     3.9452966302633286E-002
   1.9700000000000023E-002     4.1295431554317474E-002
   2.0800000000000013E-002     4.2751442641019821E-002
   2.1900000000000003E-002     4.3786574155092239E-002
   2.3000000000000020E-002     4.4440019875764847E-002
   2.4100000000000010E-002     4.4713679701089859E-002
   2.5200000000000000E-002     4.4513739645481110E-002
   2.6300000000000018E-002     4.3744578957557678E-002
   2.7400000000000008E-002     4.2424943298101425E-002
   2.8500000000000025E-002     4.0646966546773911E-002
   2.9600000000000015E-002     3.8434956222772598E-002
   3.0700000000000005E-002     3.5715289413928986E-002
   3.1800000000000023E-002     3.2442551106214523E-002
   3.2900000000000013E-002     2.8692632913589478E-002
   3.4000000000000002E-002     2.4582108482718468E-002
   3.5100000000000020E-002     2.0140578970313072E-002
   3.6200000000000010E-002     1.5334454365074635E-002
   3.7300000000000028E-002     1.0202748700976372E-002
   3.8400000000000017E-002     4.8869019374251366E-003
   3.9500000000000007E-002    -4.9839424900710583E-004
   4.0600000000000025E-002    -5.9538059867918491E-003
   4.1700000000000015E-002    -1.1493807658553123E-002
   4.2800000000000005E-002    -1.7010742798447609E-002
   4.3900000000000022E-002    -2.2321594879031181E-002
   4.5000000000000012E-002    -2.7334982529282570E-002
   4.6100000000000002E-002    -3.2089270651340485E-002
   4.7200000000000020E-002    -3.6595631390810013E-002
   4.8300000000000010E-002    -4.0728259831666946E-002
   4.9400000000000027E-002    -4.4331844896078110E-002
   5.0500000000000017E-002    -4.7377634793519974E-002
   5.1600000000000007E-002    -4.9937706440687180E-002
   5.2700000000000025E-002    -5.2016999572515488E-002
   5.3800000000000014E-002    -5.3499266505241394E-002
   5.4900000000000004E-002    -5.4299704730510712E-002
   5.6000000000000022E-002    -5.4486107081174850E-002
   5.7100000000000012E-002    -5.4176997393369675E-002
   5.8200000000000002E-002    -5.3368456661701202E-002
   5.9300000000000019E-002    -5.1959197968244553E-002
   6.0400000000000009E-002    -4.9942512065172195E-002
   6.1500000000000027E-002    -4.7467563301324844E-002
   6.2600000000000017E-002    -4.4675398617982864E-002
   6.3700000000000007E-002    -4.1553396731615067E-002
   6.4800000000000024E-002    -3.8032278418540955E-002
   6.5900000000000014E-002    -3.4175172448158264E-002
   6.7000000000000004E-002    -3.0165540054440498E-002
   6.8100000000000022E-002    -2.6111671701073647E-002
   6.9200000000000012E-002    -2.1965581923723221E-002
   7.0300000000000029E-002    -1.7691601067781448E-002
   7.1400000000000019E-002    -1.3415592722594738E-002
   7.2500000000000009E-002    -9.3197114765644073E-003
   7.3600000000000027E-002    -5.4404963739216328E-003
   7.4700000000000016E-002    -1.6770520014688373E-003
   7.5800000000000006E-002     1.9929481204599142E-003
   7.6900000000000024E-002     5.4191891103982925E-003
   7.8000000000000014E-002     8.4532061591744423E-003
   7.9100000000000004E-002     1.1130493134260178E-002
   8.0200000000000021E-002     1.3581831008195877E-002
   8.1300000000000011E-002     1.5810783952474594E-002
   8.2400000000000029E-002     1.7678830772638321E-002
   8.3500000000000019E-002     1.9116653129458427E-002
   8.4600000000000009E-002     2.0231451839208603E-002
   8.5700000000000026E-002     2.1143695339560509E-002
   8.6800000000000016E-002     2.1809432655572891E-002
   8.7900000000000006E-002     2.2107692435383797E-002
   8.9000000000000024E-002     2.2059395909309387E-002
   9.0100000000000013E-002     2.1833879873156548E-002
   9.1200000000000003E-002     2.1523274481296539E-002
   9.2300000000000021E-002     2.1030107513070107E-002
   9.3400000000000011E-002     2.0246470347046852E-002
   9.4500000000000028E-002     1.9254308193922043E-002
   9.5600000000000018E-002     1.8239861354231834E-002
   9.6700000000000008E-002     1.7250930890440941E-002
   9.7800000000000026E-002     1.6165390610694885E-002
   9.8900000000000016E-002     1.4914970844984055E-002
  0.10000000000000001          1.3618717901408672E-002
  0.10110000000000002          1.2423103675246239E-002
  0.10220000000000001          1.1300064623355865E-002
  0.10330000000000003          1.0117631405591965E-002
  0.10440000000000002          8.8713960722088814E-003
  0.10550000000000001          7.7147013507783413E-003
  0.10660000000000003          6.7372019402682781E-003
  0.10770000000000002          5.8344374410808086E-003
  0.10880000000000001          4.8746191896498203E-003
  0.10990000000000003          3.9081401191651821E-003
  0.11100000000000002          3.0982894822955132E-003
  0.11210000000000001          2.4779518134891987E-003
  0.11320000000000002          1.9032944692298770E-003
  0.11430000000000001          1.2729903683066368E-003
  0.11540000000000003          6.7621673224493861E-004
  0.11650000000000002          2.4706346448510885E-004
  0.11760000000000001         -4.6380318963201717E-005
  0.11870000000000003         -3.5350368125364184E-004
  0.11980000000000002         -7.1142998058348894E-004
  0.12090000000000001         -9.9243281874805689E-004
  0.12200000000000003         -1.1105102021247149E-003
  0.12310000000000001         -1.1648640502244234E-003
  0.12420000000000003         -1.2958623701706529E-003
  0.12530000000000002         -1.4752210117876530E-003
  0.12640000000000001         -1.5535658458247781E-003
  0.12750000000000003         -1.4930940233170986E-003
  0.12860000000000002         -1.4291403349488974E-003
  0.12970000000000001         -1.4680356252938509E-003
  0.13080000000000003         -1.5328114386647940E-003
  0.13190000000000002         -1.4898183289915323E-003
  0.13300000000000001         -1.3575351331382990E-003
  0.13410000000000000         -1.2771904002875090E-003
  0.13520000000000004         -1.2952301185578108E-003
  0.13630000000000003         -1.2957853032276034E-003
  0.13740000000000002         -1.1845369590446353E-003
  0.13850000000000001         -1.0376464342698455E-003
  0.13960000000000000         -9.8600506316870451E-004
  0.14070000000000005         -1.0153073817491531E-003
  0.14180000000000004         -9.8938203882426023E-004
  0.14290000000000003         -8.5868476890027523E-004
  0.14400000000000002         -7.3382572736591101E-004
  0.14510000000000001         -7.1520428173243999E-004
  0.14620000000000000         -7.4333947850391269E-004
  0.14730000000000004         -6.9602299481630325E-004
  0.14840000000000003         -5.7681108592078090E-004
  0.14950000000000002         -5.0439639016985893E-004
  0.15060000000000001         -5.2530475659295917E-004
  0.15170000000000000         -5.4271263070404530E-004
  0.15280000000000005         -4.6893785474821925E-004
  0.15390000000000004         -3.6267001996748149E-004
  0.15500000000000003         -3.3880033879540861E-004
  0.15610000000000002         -3.9109631325118244E-004
  0.15720000000000001         -4.0069801616482437E-004
  0.15830000000000000         -3.1604812829755247E-004
  0.15940000000000004         -2.2883979545440525E-004
  0.16050000000000003         -2.3393100127577782E-004
  0.16160000000000002         -2.8931873384863138E-004
  0.16270000000000001         -2.8509981348179281E-004
  0.16380000000000000         -2.0947573648300022E-004
  0.16490000000000005         -1.5891164366621524E-004
  0.16600000000000004         -1.8586408987175673E-004
  0.16710000000000003         -2.2238917881622910E-004
  0.16820000000000002         -1.9130518194288015E-004
  0.16930000000000001         -1.2611334386747330E-004
  0.17040000000000000         -1.1505866859806702E-004
  0.17150000000000004         -1.6169698210433125E-004
  0.17260000000000003         -1.7971434863284230E-004
  0.17370000000000002         -1.2724766565952450E-004
  0.17480000000000001         -7.1458453021477908E-005
  0.17590000000000000         -8.5475920059252530E-005
  0.17700000000000005         -1.3771324302069843E-004
  0.17810000000000004         -1.4156778343021870E-004
  0.17920000000000003         -8.5961401055101305E-005
  0.18030000000000002         -4.8139860155060887E-005
  0.18140000000000001         -7.4685194704215974E-005
  0.18250000000000000         -1.1449751764303073E-004
  0.18360000000000004         -1.0089643183164299E-004
  0.18470000000000003         -5.1754366722889245E-005
  0.18580000000000002         -3.7171565054450184E-005
  0.18690000000000001         -7.1265283622778952E-005
  0.18800000000000000         -9.4639086455572397E-005
  0.18910000000000005         -6.8269961047917604E-005
  0.19020000000000004         -3.0977484129834920E-005
  0.19130000000000003         -3.6090965295443311E-005
  0.19240000000000002         -6.9895679189357907E-005
  0.19350000000000001         -7.6002470450475812E-005
  0.19460000000000005         -4.2866762669291347E-005
  0.19570000000000004         -1.8832011846825480E-005
  0.19680000000000003         -3.6196131986798719E-005
  0.19790000000000002         -6.3711122493259609E-005
  0.19900000000000001         -5.7133212976623327E-005
  0.20010000000000000         -2.6108944439329207E-005
  0.20120000000000005         -1.6196236174437217E-005
  0.20230000000000004         -3.8479560316773131E-005
  0.20340000000000003         -5.5415457609342411E-005
  0.20450000000000002         -4.0168306441046298E-005
  0.20560000000000000         -1.5753113984828815E-005
  0.20670000000000005         -1.7096659576054662E-005
  0.20780000000000004         -3.8198173569981009E-005
  0.20890000000000003         -4.4094242184655741E-005
