 -0.12000000000000000          0.0000000000000000
 -0.11889999999999999          0.0000000000000000
 -0.11780000000000000          0.0000000000000000
 -0.11670000000000000          0.0000000000000000
 -0.11559999999999999          0.0000000000000000
 -0.11449999999999999          0.0000000000000000
 -0.11340000000000000          0.0000000000000000
 -0.11230000000000000          0.0000000000000000
 -0.11119999999999999          0.0000000000000000
 -0.11009999999999999          0.0000000000000000
 -0.10900000000000000         -3.7337474201100635E-029
 -0.10790000000000000          1.5412641070580501E-029
 -0.10679999999999999          4.7066107092528596E-028
 -0.10569999999999999         -3.4945884488815947E-029
 -0.10460000000000000         -2.2726668604479307E-027
 -0.10349999999999999          2.3659253957730161E-027
 -0.10239999999999999          5.7739757214998431E-027
 -0.10130000000000000         -4.9473445567302777E-026
 -0.10020000000000000         -7.3761551474172335E-026
  -9.9099999999999994E-002     3.5826253596080336E-025
  -9.7999999999999990E-002     9.5600869812376589E-025
  -9.6899999999999986E-002    -7.2430471956128319E-025
  -9.5799999999999996E-002    -5.5817600675817755E-024
  -9.4699999999999993E-002    -4.8780882515155807E-024
  -9.3599999999999989E-002     1.3090455679989717E-023
  -9.2499999999999999E-002     3.3913127160007677E-023
  -9.1399999999999995E-002     1.4169975541183032E-023
  -9.0299999999999991E-002    -5.5987137139541518E-023
  -8.9200000000000002E-002    -1.2020264887861547E-022
  -8.8099999999999984E-002    -1.4259967215528834E-022
  -8.6999999999999994E-002    -8.8054995579936034E-023
  -8.5899999999999990E-002     3.6373972442957381E-022
  -8.4799999999999986E-002     1.5562632792070741E-021
  -8.3699999999999997E-002     2.2292372105462046E-021
  -8.2599999999999993E-002    -1.1398450896010729E-021
  -8.1499999999999989E-002    -9.5910501504208181E-021
  -8.0399999999999999E-002    -1.4230807180426619E-020
  -7.9299999999999995E-002     2.0212521017531888E-022
  -7.8199999999999992E-002     3.4533258997485975E-020
  -7.7100000000000002E-002     5.9679614242583372E-020
  -7.5999999999999984E-002     3.5590560610216402E-020
  -7.4899999999999994E-002    -5.0935862803500380E-020
  -7.3799999999999991E-002    -1.7517758301539819E-019
  -7.2699999999999987E-002    -2.7621096107157646E-019
  -7.1599999999999997E-002    -2.1148618486492464E-019
  -7.0499999999999993E-002     2.4874877152996908E-019
  -6.9399999999999989E-002     1.1344285792797243E-018
  -6.8300000000000000E-002     1.7642916673579745E-018
  -6.7199999999999996E-002     7.9612013564802634E-019
  -6.6099999999999992E-002    -2.4487949979790275E-018
  -6.5000000000000002E-002    -6.2714435219994155E-018
  -6.3899999999999985E-002    -6.7751022164543783E-018
  -6.2799999999999995E-002    -7.9459636556212709E-019
  -6.1699999999999991E-002     1.0857175673677016E-017
  -6.0599999999999994E-002     2.2700524345445877E-017
  -5.9499999999999990E-002     2.5839891491405106E-017
  -5.8399999999999994E-002     9.5858950251340684E-018
  -5.7299999999999990E-002    -3.2789350146095861E-017
  -5.6199999999999986E-002    -8.9371028599952466E-017
  -5.5099999999999996E-002    -1.1655921125492921E-016
  -5.3999999999999992E-002    -5.5178432719109398E-017
  -5.2899999999999989E-002     1.1382569035035177E-016
  -5.1799999999999985E-002     3.1578515886251349E-016
  -5.0699999999999995E-002     3.9751600321779137E-016
  -4.9599999999999991E-002     2.2280105828648860E-016
  -4.8499999999999988E-002    -2.2402912371110933E-016
  -4.7399999999999998E-002    -7.9938347938342410E-016
  -4.6299999999999994E-002    -1.2179038879898724E-015
  -4.5199999999999990E-002    -1.0986539309942021E-015
  -4.4099999999999986E-002    -1.1228345511163850E-016
  -4.2999999999999997E-002     1.6862897085363326E-015
  -4.1899999999999993E-002     3.5227619585108784E-015
  -4.0799999999999989E-002     4.0350824251193535E-015
  -3.9699999999999985E-002     2.1037181328550925E-015
  -3.8599999999999995E-002    -2.1420520911907435E-015
  -3.7499999999999992E-002    -7.0666561185063308E-015
  -3.6399999999999988E-002    -1.0296892495825858E-014
  -3.5299999999999984E-002    -9.7682117995994029E-015
  -3.4199999999999994E-002    -4.2955268451916849E-015
  -3.3099999999999991E-002     6.0231991953990736E-015
  -3.1999999999999987E-002     1.8899661498902702E-014
  -3.0899999999999997E-002     2.9128463557197629E-014
  -2.9799999999999993E-002     2.9913734250069934E-014
  -2.8699999999999989E-002     1.6592403042888296E-014
  -2.7599999999999986E-002    -1.0003645454321683E-014
  -2.6499999999999996E-002    -4.3556982022921464E-014
  -2.5399999999999992E-002    -7.4719188627135613E-014
  -2.4299999999999988E-002    -9.2169951141848894E-014
  -2.3199999999999985E-002    -8.1799828412568165E-014
  -2.2099999999999995E-002    -2.9473859876165409E-014
  -2.0999999999999991E-002     6.8365065941222020E-014
  -1.9899999999999987E-002     1.9201590458709644E-013
  -1.8799999999999983E-002     2.9645429448950378E-013
  -1.7699999999999994E-002     3.2548020268557964E-013
  -1.6599999999999990E-002     2.3350895869689303E-013
  -1.5499999999999986E-002     3.0125525097651979E-015
  -1.4399999999999996E-002    -3.4366311337484523E-013
  -1.3299999999999992E-002    -7.3275467724759347E-013
  -1.2199999999999989E-002    -1.0337129372969822E-012
  -1.1099999999999985E-002    -1.0800305962066492E-012
  -9.9999999999999950E-003    -7.2678403009382442E-013
  -8.8999999999999913E-003     7.5427619879164798E-014
  -7.7999999999999875E-003     1.2279978466381292E-012
  -6.6999999999999837E-003     2.4742833650004403E-012
  -5.5999999999999939E-003     3.4267844638280476E-012
  -4.4999999999999901E-003     3.6274620460186036E-012
  -3.3999999999999864E-003     2.6573712848254605E-012
  -2.2999999999999826E-003     3.0402254064948453E-013
  -1.1999999999999927E-003    -3.2564816728614110E-012
  -9.9999999999988987E-005    -7.3510442524793440E-012
   1.0000000000000148E-003    -1.0849142764723929E-011
   2.1000000000000185E-003    -1.2364882555349066E-011
   3.2000000000000084E-003    -1.0590573557012206E-011
   4.3000000000000121E-003    -4.7172109968185438E-012
   5.4000000000000159E-003     5.1288595766252332E-012
   6.5000000000000058E-003     1.7563426407685157E-011
   7.6000000000000234E-003     2.9900609765931563E-011
   8.7000000000000133E-003     3.8495179266462287E-011
   9.8000000000000032E-003     3.9456406891735796E-011
   1.0900000000000021E-002     2.9622814617935589E-011
   1.2000000000000011E-002     7.6442628269002277E-012
   1.3100000000000001E-002    -2.5039000386972710E-011
   1.4200000000000018E-002    -6.3623911694676849E-011
   1.5300000000000008E-002    -1.0011133588783139E-010
   1.6400000000000026E-002    -1.2439596575042344E-010
   1.7500000000000016E-002    -1.2618814326792460E-010
   1.8600000000000005E-002    -9.7445183866451401E-011
   1.9700000000000023E-002    -3.4873815640823480E-011
   2.0800000000000013E-002     5.8033626515463510E-011
   2.1900000000000003E-002     1.7009454955640990E-010
   2.3000000000000020E-002     2.8332308721346067E-010
   2.4100000000000010E-002     3.7591438295514479E-010
   2.5200000000000000E-002     4.2700804003814596E-010
   2.6300000000000018E-002     4.2232844998935093E-010
   2.7400000000000008E-002     3.5952116284043711E-010
   2.8500000000000025E-002     2.5193133690315506E-010
   2.9600000000000015E-002     1.2955517214585655E-010
   3.0700000000000005E-002     3.6094932598373930E-011
   3.1800000000000023E-002     2.1665037819307287E-011
   3.2900000000000013E-002     1.3178476365727221E-010
   3.4000000000000002E-002     3.9439254639894727E-010
   3.5100000000000020E-002     8.0729406493063038E-010
   3.6200000000000010E-002     1.3287067002210051E-009
   3.7300000000000028E-002     1.8733128381853703E-009
   3.8400000000000017E-002     2.3153721162572083E-009
   3.9500000000000007E-002     2.4991955172026792E-009
   4.0600000000000025E-002     2.2556325696143631E-009
   4.1700000000000015E-002     1.4215084664925826E-009
   4.2800000000000005E-002    -1.4192234887300259E-010
   4.3900000000000022E-002    -2.5351558630148929E-009
   4.5000000000000012E-002    -5.8151581328047541E-009
   4.6100000000000002E-002    -1.0000689165678978E-008
   4.7200000000000020E-002    -1.5090042992937924E-008
   4.8300000000000010E-002    -2.1089626045522891E-008
   4.9400000000000027E-002    -2.8050072486962563E-008
   5.0500000000000017E-002    -3.6104523815083667E-008
   5.1600000000000007E-002    -4.5506592272204216E-008
   5.2700000000000025E-002    -5.6659484215515477E-008
   5.3800000000000014E-002    -7.0135833141193871E-008
   5.4900000000000004E-002    -8.6685176370338013E-008
   5.6000000000000022E-002    -1.0723416465907576E-007
   5.7100000000000012E-002    -1.3287848332765861E-007
   5.8200000000000002E-002    -1.6487312848312285E-007
   5.9300000000000019E-002    -2.0462893246531166E-007
   6.0400000000000009E-002    -2.5372392542521993E-007
   6.1500000000000027E-002    -3.1392991672873904E-007
   6.2600000000000017E-002    -3.8726074080841499E-007
   6.3700000000000007E-002    -4.7603117536709760E-007
   6.4800000000000024E-002    -5.8293613847126835E-007
   6.5900000000000014E-002    -7.1113419153334689E-007
   6.7000000000000004E-002    -8.6432430634886259E-007
   6.8100000000000022E-002    -1.0468208984093508E-006
   6.9200000000000012E-002    -1.2636019164347090E-006
   7.0300000000000029E-002    -1.5203684142761631E-006
   7.1400000000000019E-002    -1.8235630250273971E-006
   7.2500000000000009E-002    -2.1804194147989620E-006
   7.3600000000000027E-002    -2.5989859295805218E-006
   7.4700000000000016E-002    -3.0881765269441530E-006
   7.5800000000000006E-002    -3.6578219351213193E-006
   7.6900000000000024E-002    -4.3187264964217320E-006
   7.8000000000000014E-002    -5.0827702580136247E-006
   7.9100000000000004E-002    -5.9628664530464448E-006
   8.0200000000000021E-002    -6.9730544964841101E-006
   8.1300000000000011E-002    -8.1284033512929454E-006
   8.2400000000000029E-002    -9.4450806500390172E-006
   8.3500000000000019E-002    -1.0940166248474270E-005
   8.4600000000000009E-002    -1.2631549907382578E-005
   8.5700000000000026E-002    -1.4537855349772144E-005
   8.6800000000000016E-002    -1.6678064639563672E-005
   8.7900000000000006E-002    -1.9071409042226151E-005
   8.9000000000000024E-002    -2.1737107090302743E-005
   9.0100000000000013E-002    -2.4694036255823448E-005
   9.1200000000000003E-002    -2.7960328225162812E-005
   9.2300000000000021E-002    -3.1553012377116829E-005
   9.3400000000000011E-002    -3.5487719287630171E-005
   9.4500000000000028E-002    -3.9777605707058683E-005
   9.5600000000000018E-002    -4.4433170842239633E-005
   9.6700000000000008E-002    -4.9461603339295834E-005
   9.7800000000000026E-002    -5.4866050049895421E-005
   9.8900000000000016E-002    -6.0645099438261241E-005
  0.10000000000000001         -6.6791290009859949E-005
  0.10110000000000002         -7.3290902946610004E-005
  0.10220000000000001         -8.0123310908675194E-005
  0.10330000000000003         -8.7259868450928479E-005
  0.10440000000000002         -9.4663759227842093E-005
  0.10550000000000001         -1.0228864266537130E-004
  0.10660000000000003         -1.1007843568222597E-004
  0.10770000000000002         -1.1796629405580461E-004
  0.10880000000000001         -1.2587579840328544E-004
  0.10990000000000003         -1.3371977547649294E-004
  0.11100000000000002         -1.4140018902253360E-004
  0.11210000000000001         -1.4880947128403932E-004
  0.11320000000000002         -1.5582931519020349E-004
  0.11430000000000001         -1.6233214410021901E-004
  0.11540000000000003         -1.6818195581436157E-004
  0.11650000000000002         -1.7323526844847947E-004
  0.11760000000000001         -1.7734381253831089E-004
  0.11870000000000003         -1.8035549146588892E-004
  0.11980000000000002         -1.8211446877103299E-004
  0.12090000000000001         -1.8246602849103510E-004
  0.12200000000000003         -1.8125762289855629E-004
  0.12310000000000001         -1.7834571190178394E-004
  0.12420000000000003         -1.7359277990180999E-004
  0.12530000000000002         -1.6687468450982124E-004
  0.12640000000000001         -1.5808072930667549E-004
  0.12750000000000003         -1.4711773837916553E-004
  0.12860000000000002         -1.3391624088399112E-004
  0.12970000000000001         -1.1842983803944662E-004
  0.13080000000000003         -1.0063913941849023E-004
  0.13190000000000002         -8.0553603766020387E-005
  0.13300000000000001         -5.8215086028212681E-005
  0.13410000000000000         -3.3699561754474416E-005
  0.13520000000000004         -7.1171716626849957E-006
  0.13630000000000003          2.1386027583503164E-005
  0.13740000000000002          5.1624025218188763E-005
  0.13850000000000001          8.3378399722278118E-005
  0.13960000000000000          1.1639647709671408E-004
  0.14070000000000005          1.5039290883578360E-004
  0.14180000000000004          1.8505207845009863E-004
  0.14290000000000003          2.2002907644491643E-004
  0.14400000000000002          2.5495715090073645E-004
  0.14510000000000001          2.8945083613507450E-004
  0.14620000000000000          3.2311267568729818E-004
  0.14730000000000004          3.5553780617192388E-004
  0.14840000000000003          3.8631795905530453E-004
  0.14950000000000002          4.1505016270093620E-004
  0.15060000000000001          4.4134104973636568E-004
  0.15170000000000000          4.6481683966703713E-004
  0.15280000000000005          4.8512901412323117E-004
  0.15390000000000004          5.0195853691548109E-004
  0.15500000000000003          5.1502225687727332E-004
  0.15610000000000002          5.2407925250008702E-004
  0.15720000000000001          5.2893604151904583E-004
  0.15830000000000000          5.2944943308830261E-004
  0.15940000000000004          5.2553240675479174E-004
  0.16050000000000003          5.1715463632717729E-004
  0.16160000000000002          5.0434219883754849E-004
  0.16270000000000001          4.8717900062911212E-004
  0.16380000000000000          4.6580861089751124E-004
  0.16490000000000005          4.4043210800737143E-004
  0.16600000000000004          4.1130319004878402E-004
  0.16710000000000003          3.7872715620324016E-004
  0.16820000000000002          3.4305010922253132E-004
  0.16930000000000001          3.0466026510111988E-004
  0.17040000000000000          2.6398102636449039E-004
  0.17150000000000004          2.2146143601275980E-004
  0.17260000000000003          1.7757371824700385E-004
  0.17370000000000002          1.3280288840178400E-004
  0.17480000000000001          8.7635969975963235E-005
  0.17590000000000000          4.2555413529044017E-005
  0.17700000000000005         -1.9624540072982199E-006
  0.17810000000000004         -4.5457847591023892E-005
  0.17920000000000003         -8.7493135652039200E-005
  0.18030000000000002         -1.2766112922690809E-004
  0.18140000000000001         -1.6559431969653815E-004
  0.18250000000000000         -2.0096301159355789E-004
  0.18360000000000004         -2.3347946989815682E-004
  0.18470000000000003         -2.6290243840776384E-004
  0.18580000000000002         -2.8903601923957467E-004
  0.18690000000000001         -3.1173659954220057E-004
  0.18800000000000000         -3.3091244404204190E-004
  0.18910000000000005         -3.4652042086236179E-004
  0.19020000000000004         -3.5856620525009930E-004
  0.19130000000000003         -3.6709712003357708E-004
  0.19240000000000002         -3.7220315425656736E-004
  0.19350000000000001         -3.7401189911179245E-004
  0.19460000000000005         -3.7268974119797349E-004
  0.19570000000000004         -3.6843289854004979E-004
  0.19680000000000003         -3.6146389902569354E-004
  0.19790000000000002         -3.5202415892854333E-004
  0.19900000000000001         -3.4036973374895751E-004
  0.20010000000000000         -3.2676703995093703E-004
  0.20120000000000005         -3.1149154528975487E-004
  0.20230000000000004         -2.9482270474545658E-004
  0.20340000000000003         -2.7703706291504204E-004
  0.20450000000000002         -2.5840182206593454E-004
  0.20560000000000000         -2.3917242651805282E-004
  0.20670000000000005         -2.1959254809189588E-004
  0.20780000000000004         -1.9989280554000288E-004
  0.20890000000000003         -1.8028737395070493E-004
