 -0.12000000000000000          0.0000000000000000     
 -0.11889999999999999          0.0000000000000000     
 -0.11780000000000000          0.0000000000000000     
 -0.11670000000000000          0.0000000000000000     
 -0.11559999999999999          0.0000000000000000     
 -0.11449999999999999          0.0000000000000000     
 -0.11340000000000000          0.0000000000000000     
 -0.11230000000000000          0.0000000000000000     
 -0.11119999999999999         -2.6777132282871687E-014
 -0.11009999999999999          1.9617274926893302E-013
 -0.10900000000000000         -3.7010101743267104E-014
 -0.10790000000000000         -2.7932777618699944E-012
 -0.10679999999999999          2.5751963495662666E-012
 -0.10569999999999999          2.5121280056161766E-011
 -0.10460000000000000         -2.0349966503574457E-011
 -0.10349999999999999         -1.7970853971593925E-010
 -0.10239999999999999          5.5530847281604068E-011
 -0.10130000000000000          1.0452201326671684E-009
 -0.10020000000000000          3.7640363048652148E-010
  -9.9099999999999994E-002    -4.7305737105318713E-009
  -9.7999999999999990E-002    -5.4335278498740536E-009
  -9.6899999999999986E-002     1.5033746691983652E-008
  -9.5799999999999996E-002     3.4846202368044032E-008
  -9.4699999999999993E-002    -2.2175223435283442E-008
  -9.3599999999999989E-002    -1.4292481864686124E-007
  -9.2499999999999999E-002    -7.2909770665319229E-008
  -9.1399999999999995E-002     3.6878489595437713E-007
  -9.0299999999999991E-002     6.1070051060596597E-007
  -8.9200000000000002E-002    -3.6724483720718126E-007
  -8.8099999999999984E-002    -2.0336228772066534E-006
  -8.6999999999999994E-002    -1.3627984571940033E-006
  -8.5899999999999990E-002     3.3085957511502784E-006
  -8.4799999999999986E-002     6.8887234192516189E-006
  -8.3699999999999997E-002     9.8713110219250666E-007
  -8.2599999999999993E-002    -1.2522362339950632E-005
  -8.1499999999999989E-002    -1.6696918464731425E-005
  -8.0399999999999999E-002     9.5408358902204782E-007
  -7.9299999999999995E-002     2.6504261768423021E-005
  -7.8199999999999992E-002     3.3414966310374439E-005
  -7.7100000000000002E-002     1.7693566405796446E-005
  -7.5999999999999984E-002    -9.5660934675834142E-006
  -7.4899999999999994E-002    -6.6803382651414722E-005
  -7.3799999999999991E-002    -1.6743692685849965E-004
  -7.2699999999999987E-002    -1.8568105588201433E-004
  -7.1599999999999997E-002     1.2195168528705835E-004
  -7.0499999999999993E-002     7.2555214865133166E-004
  -6.9399999999999989E-002     9.5996685558930039E-004
  -6.8300000000000000E-002    -6.9765551415912341E-006
  -6.7199999999999996E-002    -1.9248619209975004E-003
  -6.6099999999999992E-002    -2.9522846452891827E-003
  -6.5000000000000002E-002    -1.2258933857083321E-003
  -6.3899999999999985E-002     2.7227979153394699E-003
  -6.2799999999999995E-002     5.7906322181224823E-003
  -6.1699999999999991E-002     5.2134380675852299E-003
  -6.0599999999999994E-002     1.1773228179663420E-003
  -5.9499999999999990E-002    -4.2292806319892406E-003
  -5.8399999999999994E-002    -9.6834572032094002E-003
  -5.7299999999999990E-002    -1.3988070189952850E-002
  -5.6199999999999986E-002    -1.2867419980466366E-002
  -5.5099999999999996E-002    -5.7604565517976880E-004
  -5.3999999999999992E-002     2.1435404196381569E-002
  -5.2899999999999989E-002     3.9649017155170441E-002
  -5.1799999999999985E-002     3.8514245301485062E-002
  -5.0699999999999995E-002     1.6838710755109787E-002
  -4.9599999999999991E-002    -1.1875648982822895E-002
  -4.8499999999999988E-002    -3.8985572755336761E-002
  -4.7399999999999998E-002    -7.2033062577247620E-002
  -4.6299999999999994E-002   -0.11400295048952103     
  -4.5199999999999990E-002   -0.13360400497913361     
  -4.4099999999999986E-002    -7.6242022216320038E-002
  -4.2999999999999997E-002     7.9044245183467865E-002
  -4.1899999999999993E-002    0.27841028571128845     
  -4.0799999999999989E-002    0.42238000035285950     
  -3.9699999999999985E-002    0.43517360091209412     
  -3.8599999999999995E-002    0.29540371894836426     
  -3.7499999999999992E-002     1.0495319031178951E-002
  -3.6399999999999988E-002   -0.39940160512924194     
  -3.5299999999999984E-002   -0.86623799800872803     
  -3.4199999999999994E-002    -1.2450413703918457     
  -3.3099999999999991E-002    -1.3610725402832031     
  -3.1999999999999987E-002    -1.0934400558471680     
  -3.0899999999999997E-002   -0.39615598320960999     
  -2.9799999999999993E-002    0.73437631130218506     
  -2.8699999999999989E-002     2.2233622074127197     
  -2.7599999999999986E-002     3.7906997203826904     
  -2.6499999999999996E-002     4.9136805534362793     
  -2.5399999999999992E-002     5.0254130363464355     
  -2.4299999999999988E-002     3.7887623310089111     
  -2.3199999999999985E-002     1.1366716623306274     
  -2.2099999999999995E-002    -2.9356698989868164     
  -2.0999999999999991E-002    -8.4751071929931641     
  -1.9899999999999987E-002    -15.363302230834961     
  -1.8799999999999983E-002    -23.105678558349609     
  -1.7699999999999994E-002    -31.038028717041016     
  -1.6599999999999990E-002    -38.810138702392578     
  -1.5499999999999986E-002    -46.548229217529297     
  -1.4399999999999996E-002    -54.508922576904297     
  -1.3299999999999992E-002    -62.811058044433594     
  -1.2199999999999989E-002    -71.779350280761719     
  -1.1099999999999985E-002    -82.496543884277344     
  -9.9999999999999950E-003    -96.711265563964844     
  -8.8999999999999913E-003    -116.06114959716797     
  -7.7999999999999875E-003    -141.59133911132812     
  -6.6999999999999837E-003    -174.18035888671875     
  -5.5999999999999939E-003    -215.20529174804688     
  -4.4999999999999901E-003    -266.44204711914062     
  -3.3999999999999864E-003    -329.40853881835938     
  -2.2999999999999826E-003    -405.20767211914062     
  -1.1999999999999927E-003    -495.14288330078125     
  -9.9999999999988987E-005    -601.13122558593750     
   1.0000000000000148E-003    -725.44049072265625     
   2.1000000000000185E-003    -870.56237792968750     
   3.2000000000000084E-003    -1040.1593017578125     
   4.3000000000000121E-003    -1239.8250732421875     
   5.4000000000000159E-003    -1476.0441894531250     
   6.5000000000000058E-003    -1754.0537109375000     
   7.6000000000000234E-003    -2077.4409179687500     
   8.7000000000000133E-003    -2450.6459960937500     
   9.8000000000000032E-003    -2881.4482421875000     
   1.0900000000000021E-002    -3379.8015136718750     
   1.2000000000000011E-002    -3953.8715820312500     
   1.3100000000000001E-002    -4608.9174804687500     
   1.4200000000000018E-002    -5350.5654296875000     
   1.5300000000000008E-002    -6188.5590820312500     
   1.6400000000000026E-002    -7136.0073242187500     
   1.7500000000000016E-002    -8205.0712890625000     
   1.8600000000000005E-002    -9404.9814453125000     
   1.9700000000000023E-002    -10742.708984375000     
   2.0800000000000013E-002    -12226.214843750000     
   2.1900000000000003E-002    -13862.883789062500     
   2.3000000000000020E-002    -15659.352539062500     
   2.4100000000000010E-002    -17621.787109375000     
   2.5200000000000000E-002    -19757.333984375000     
   2.6300000000000018E-002    -22069.066406250000     
   2.7400000000000008E-002    -24554.011718750000     
   2.8500000000000025E-002    -27204.273437500000     
   2.9600000000000015E-002    -30013.757812500000     
   3.0700000000000005E-002    -32979.617187500000     
   3.1800000000000023E-002    -36093.234375000000     
   3.2900000000000013E-002    -39329.687500000000     
   3.4000000000000002E-002    -42651.218750000000     
   3.5100000000000020E-002    -46021.984375000000     
   3.6200000000000010E-002    -49408.402343750000     
   3.7300000000000028E-002    -52777.800781250000     
   3.8400000000000017E-002    -56079.386718750000     
   3.9500000000000007E-002    -59242.656250000000     
   4.0600000000000025E-002    -62190.628906250000     
   4.1700000000000015E-002    -64856.703125000000     
   4.2800000000000005E-002    -67174.539062500000     
   4.3900000000000022E-002    -69059.617187500000     
   4.5000000000000012E-002    -70420.343750000000     
   4.6100000000000002E-002    -71159.054687500000     
   4.7200000000000020E-002    -71184.437500000000     
   4.8300000000000010E-002    -70377.742187500000     
   4.9400000000000027E-002    -68642.609375000000     
   5.0500000000000017E-002    -65890.382812500000     
   5.1600000000000007E-002    -62056.355468750000     
   5.2700000000000025E-002    -57060.335937500000     
   5.3800000000000014E-002    -50788.851562500000     
   5.4900000000000004E-002    -43147.164062500000     
   5.6000000000000022E-002    -34105.687500000000     
   5.7100000000000012E-002    -23687.103515625000     
   5.8200000000000002E-002    -11879.620117187500     
   5.9300000000000019E-002     1326.5240478515625     
   6.0400000000000009E-002     15952.744140625000     
   6.1500000000000027E-002     31922.121093750000     
   6.2600000000000017E-002     49137.542968750000     
   6.3700000000000007E-002     67465.226562500000     
   6.4800000000000024E-002     86733.796875000000     
   6.5900000000000014E-002     106793.69531250000     
   6.7000000000000004E-002     127460.02343750000     
   6.8100000000000022E-002     148513.65625000000     
   6.9200000000000012E-002     169709.25000000000     
   7.0300000000000029E-002     190757.84375000000     
   7.1400000000000019E-002     211277.93750000000     
   7.2500000000000009E-002     230951.18750000000     
   7.3600000000000027E-002     249500.96875000000     
   7.4700000000000016E-002     266667.90625000000     
   7.5800000000000006E-002     282107.12500000000     
   7.6900000000000024E-002     295413.15625000000     
   7.8000000000000014E-002     306210.68750000000     
   7.9100000000000004E-002     314233.50000000000     
   8.0200000000000021E-002     319264.37500000000     
   8.1300000000000011E-002     321096.65625000000     
   8.2400000000000029E-002     319509.53125000000     
   8.3500000000000019E-002     314316.15625000000     
   8.4600000000000009E-002     305359.37500000000     
   8.5700000000000026E-002     292590.03125000000     
   8.6800000000000016E-002     276027.43750000000     
   8.7900000000000006E-002     255774.93750000000     
   8.9000000000000024E-002     231984.92187500000     
   9.0100000000000013E-002     204830.00000000000     
   9.1200000000000003E-002     174497.65625000000     
   9.2300000000000021E-002     141243.40625000000     
   9.3400000000000011E-002     105437.21875000000     
   9.4500000000000028E-002     67562.085937500000     
   9.5600000000000018E-002     28131.632812500000     
   9.6700000000000008E-002    -12400.051757812500     
   9.7800000000000026E-002    -53618.367187500000     
   9.8900000000000016E-002    -95016.937500000000     
  0.10000000000000001         -136017.98437500000     
  0.10110000000000002         -176010.71875000000     
  0.10220000000000001         -214374.21875000000     
  0.10330000000000003         -250659.96875000000     
  0.10440000000000002         -284452.00000000000     
  0.10550000000000001         -315339.31250000000     
  0.10660000000000003         -342870.12500000000     
  0.10770000000000002         -366627.84375000000     
  0.10880000000000001         -386269.25000000000     
  0.10990000000000003         -401620.21875000000     
  0.11100000000000002         -412530.06250000000     
  0.11210000000000001         -418945.87500000000     
  0.11320000000000002         -420861.31250000000     
  0.11430000000000001         -418301.37500000000     
  0.11540000000000003         -411311.43750000000     
  0.11650000000000002         -400032.00000000000     
  0.11760000000000001         -384724.31250000000     
  0.11870000000000003         -365790.03125000000     
  0.11980000000000002         -343636.56250000000     
  0.12090000000000001         -318627.40625000000     
  0.12200000000000003         -291015.75000000000     
  0.12310000000000001         -261162.14062500000     
  0.12420000000000003         -229633.43750000000     
  0.12530000000000002         -197072.15625000000     
  0.12640000000000001         -163956.01562500000     
  0.12750000000000003         -130575.20312500000     
  0.12860000000000002         -97289.726562500000     
  0.12970000000000001         -64552.937500000000     
  0.13080000000000003         -32879.078125000000     
  0.13190000000000002         -2574.4614257812500     
  0.13300000000000001          26087.814453125000     
  0.13410000000000000          52814.621093750000     
  0.13520000000000004          77292.625000000000     
  0.13630000000000003          99410.710937500000     
  0.13740000000000002          119193.26562500000     
  0.13850000000000001          136560.57812500000     
  0.13960000000000000          151276.18750000000     
  0.14070000000000005          163183.84375000000     
  0.14180000000000004          172436.51562500000     
  0.14290000000000003          179347.67187500000     
  0.14400000000000002          184068.92187500000     
  0.14510000000000001          186528.03125000000     
  0.14620000000000000          186718.96875000000     
  0.14730000000000004          184902.48437500000     
  0.14840000000000003          181439.92187500000     
  0.14950000000000002          176515.32812500000     
  0.15060000000000001          170185.12500000000     
  0.15170000000000000          162636.18750000000     
  0.15280000000000005          154221.23437500000     
  0.15390000000000004          145191.42187500000     
  0.15500000000000003          135559.17187500000     
  0.15610000000000002          125342.81250000000     
  0.15720000000000001          114828.11718750000     
  0.15830000000000000          104424.32812500000     
  0.15940000000000004          94298.703125000000     
  0.16050000000000003          84308.671875000000     
  0.16160000000000002          74372.796875000000     
  0.16270000000000001          64713.886718750000     
  0.16380000000000000          55664.972656250000     
  0.16490000000000005          47274.308593750000     
  0.16600000000000004          39372.925781250000     
  0.16710000000000003          31902.128906250000     
  0.16820000000000002          25046.394531250000     
  0.16930000000000001          18940.626953125000     
  0.17040000000000000          13441.402343750000     
  0.17150000000000004          8351.9072265625000     
  0.17260000000000003          3749.4345703125000     
  0.17370000000000002         -129.54910278320312     
  0.17480000000000001         -3289.0395507812500     
  0.17590000000000000         -6037.1381835937500     
  0.17700000000000005         -8601.2314453125000     
  0.17810000000000004         -10825.631835937500     
  0.17920000000000003         -12451.622070312500     
  0.18030000000000002         -13540.887695312500     
  0.18140000000000001         -14426.189453125000     
  0.18250000000000000         -15266.398437500000     
  0.18360000000000004         -15870.543945312500     
  0.18470000000000003         -16062.129882812500     
  0.18580000000000002         -15993.862304687500     
  0.18690000000000001         -15946.612304687500     
  0.18800000000000000         -15919.985351562500     
  0.18910000000000005         -15668.999023437500     
  0.19020000000000004         -15117.987304687500     
  0.19130000000000003         -14522.244140625000     
  0.19240000000000002         -14106.701171875000     
  0.19350000000000001         -13738.945312500000     
  0.19460000000000005         -13143.477539062500     
  0.19570000000000004         -12343.499023437500     
  0.19680000000000003         -11637.991210937500     
  0.19790000000000002         -11150.261718750000     
  0.19900000000000001         -10646.173828125000     
  0.20010000000000000         -9909.8486328125000     
  0.20120000000000005         -9086.8496093750000     
  0.20230000000000004         -8469.0800781250000     
  0.20340000000000003         -8046.1430664062500     
  0.20450000000000002         -7512.6845703125000     
  0.20560000000000000         -6730.4150390625000     
  0.20670000000000005         -5939.2729492187500     
  0.20780000000000004         -5400.7651367187500     
  0.20890000000000003         -5017.6162109375000     
