 -0.12000000000000000          0.0000000000000000
 -0.11889999999999999          0.0000000000000000
 -0.11780000000000000          0.0000000000000000
 -0.11670000000000000          0.0000000000000000
 -0.11559999999999999          0.0000000000000000
 -0.11449999999999999          0.0000000000000000
 -0.11340000000000000          0.0000000000000000
 -0.11230000000000000          0.0000000000000000
 -0.11119999999999999          0.0000000000000000
 -0.11009999999999999          0.0000000000000000
 -0.10900000000000000          0.0000000000000000
 -0.10790000000000000          0.0000000000000000
 -0.10679999999999999          0.0000000000000000
 -0.10569999999999999          0.0000000000000000
 -0.10460000000000000          0.0000000000000000
 -0.10349999999999999          0.0000000000000000
 -0.10239999999999999          0.0000000000000000
 -0.10130000000000000          1.9314135970145955E-038
 -0.10020000000000000         -7.6049801695045860E-038
  -9.9099999999999994E-002    -2.3071022758194647E-037
  -9.7999999999999990E-002     2.3189492341900490E-036
  -9.6899999999999986E-002    -1.1955139733068947E-037
  -9.5799999999999996E-002    -3.4851019778980717E-035
  -9.4699999999999993E-002     3.1062693637952637E-035
  -9.3599999999999989E-002     3.9044526998917109E-034
  -9.2499999999999999E-002    -4.4235918720106234E-034
  -9.1399999999999995E-002    -3.7066378473059478E-033
  -9.0299999999999991E-002     3.6973999310764231E-033
  -8.9200000000000002E-002     3.1138439807731362E-032
  -8.8099999999999984E-002    -1.8877015456673504E-032
  -8.6999999999999994E-002    -2.3176225295953545E-031
  -8.5899999999999990E-002     1.5813453834503966E-032
  -8.4799999999999986E-002     1.4998312037678372E-030
  -8.3699999999999997E-002     8.3818201507416915E-031
  -8.2599999999999993E-002    -8.1725558252218659E-030
  -8.1499999999999989E-002    -1.0656450243989620E-029
  -8.0399999999999999E-002     3.5342764483574470E-029
  -7.9299999999999995E-002     8.3639947663267262E-029
  -7.8199999999999992E-002    -1.0256867326924770E-028
  -7.7100000000000002E-002    -4.8925014674851156E-028
  -7.5999999999999984E-002     1.8458425550623231E-029
  -7.4899999999999994E-002     2.1878812613201825E-027
  -7.3799999999999991E-002     2.0646993598561582E-027
  -7.2699999999999987E-002    -7.0269942174099340E-027
  -7.1599999999999997E-002    -1.5547784381261318E-026
  -7.0499999999999993E-002     1.1227678537711822E-026
  -6.9399999999999989E-002     7.1161268715337575E-026
  -6.8300000000000000E-002     3.5715760684054907E-026
  -6.7199999999999996E-002    -2.1690041203033150E-025
  -6.6099999999999992E-002    -3.6787561960372990E-025
  -6.5000000000000002E-002     3.2414891171590948E-025
  -6.3899999999999985E-002     1.5971676261861742E-024
  -6.2799999999999995E-002     8.0029968416955593E-025
  -6.1699999999999991E-002    -4.1233266477836524E-024
  -6.0599999999999994E-002    -7.3580709055954944E-024
  -5.9499999999999990E-002     3.6587424004413893E-024
  -5.8399999999999994E-002     2.6110455037090525E-023
  -5.7299999999999990E-002     2.1189876765067478E-023
  -5.6199999999999986E-002    -4.7535918800615016E-023
  -5.5099999999999996E-002    -1.1690394811734328E-022
  -5.3999999999999992E-002    -1.7467259508269438E-023
  -5.2899999999999989E-002     2.8513136343320836E-022
  -5.1799999999999985E-002     4.0361440913441237E-022
  -5.0699999999999995E-002    -2.0385945461113124E-022
  -4.9599999999999991E-002    -1.2484835298583532E-021
  -4.8499999999999988E-002    -1.1123667797310436E-021
  -4.7399999999999998E-002     1.4838041962519895E-021
  -4.6299999999999994E-002     4.4647247238166562E-021
  -4.5199999999999990E-002     2.5258491128576967E-021
  -4.4099999999999986E-002    -6.3875201940835906E-021
  -4.2999999999999997E-002    -1.3827063877731180E-020
  -4.1899999999999993E-002    -5.2616110581252797E-021
  -4.0799999999999989E-002     2.0818925943196421E-020
  -3.9699999999999985E-002     3.8786747723030087E-020
  -3.8599999999999995E-002     1.3625483839861129E-020
  -3.7499999999999992E-002    -5.3746580519690087E-020
  -3.6399999999999988E-002    -1.0212778970537421E-019
  -3.5299999999999984E-002    -5.2514326976230427E-020
  -3.4199999999999994E-002     1.0379753778234345E-019
  -3.3099999999999991E-002     2.5564663065804877E-019
  -3.1999999999999987E-002     2.2517911300527725E-019
  -3.0899999999999997E-002    -9.4255233934720012E-020
  -2.9799999999999993E-002    -5.8873241099845175E-019
  -2.8699999999999989E-002    -8.5428721782881382E-019
  -2.7599999999999986E-002    -3.4697727060185952E-019
  -2.6499999999999996E-002     1.1131522531539416E-018
  -2.5399999999999992E-002     2.6784958162546434E-018
  -2.4299999999999988E-002     2.4453154627323232E-018
  -2.3199999999999985E-002    -1.0944751353079536E-018
  -2.2099999999999995E-002    -6.6298935550528382E-018
  -2.0999999999999991E-002    -9.1416767023165536E-018
  -1.9899999999999987E-002    -3.0897431334461008E-018
  -1.8799999999999983E-002     1.1339916624801738E-017
  -1.7699999999999994E-002     2.4515176629652458E-017
  -1.6599999999999990E-002     2.1833023641114564E-017
  -1.5499999999999986E-002    -4.4463737251583416E-018
  -1.4399999999999996E-002    -4.4554796602135703E-017
  -1.3299999999999992E-002    -7.1257248875253955E-017
  -1.2199999999999989E-002    -5.3101107577025377E-017
  -1.1099999999999985E-002     2.4462847529741128E-017
  -9.9999999999999950E-003     1.3876204914994275E-016
  -8.8999999999999913E-003     2.2124483376925584E-016
  -7.7999999999999875E-003     1.7593284596055644E-016
  -6.6999999999999837E-003    -6.2254043034659390E-017
  -5.5999999999999939E-003    -4.4271389304151765E-016
  -4.4999999999999901E-003    -7.4575941167953044E-016
  -3.3999999999999864E-003    -6.4074299632952141E-016
  -2.2999999999999826E-003     1.0890734722000537E-016
  -1.1999999999999927E-003     1.3684626179357850E-015
  -9.9999999999988987E-005     2.4684835542277371E-015
   1.0000000000000148E-003     2.3659118877217408E-015
   2.1000000000000185E-003     2.2081151024228626E-016
   3.2000000000000084E-003    -3.7787452678082582E-015
   4.3000000000000121E-003    -7.8174593466889646E-015
   5.4000000000000159E-003    -8.7108919117609082E-015
   6.5000000000000058E-003    -3.4190307039000910E-015
   7.6000000000000234E-003     8.5064579688422411E-015
   8.7000000000000133E-003     2.2798511803466884E-014
   9.8000000000000032E-003     3.0460910757732634E-014
   1.0900000000000021E-002     2.1164009265809205E-014
   1.2000000000000011E-002    -1.0285383012138567E-014
   1.3100000000000001E-002    -5.6970595775640565E-014
   1.4200000000000018E-002    -9.6729637917136041E-014
   1.5300000000000008E-002    -9.7258674367200343E-014
   1.6400000000000026E-002    -3.1205201996616777E-014
   1.7500000000000016E-002     1.0240783508740428E-013
   1.8600000000000005E-002     2.6050255702569913E-013
   1.9700000000000023E-002     3.5581105661645906E-013
   2.0800000000000013E-002     2.8496470591207745E-013
   2.1900000000000003E-002    -1.6266452906323579E-014
   2.3000000000000020E-002    -5.0909911052457457E-013
   2.4100000000000010E-002    -1.0130902193539182E-012
   2.5200000000000000E-002    -1.2298691795878391E-012
   2.6300000000000018E-002    -8.4987415325740723E-013
   2.7400000000000008E-002     2.7420337593390964E-013
   2.8500000000000025E-002     1.9502158134926395E-012
   2.9600000000000015E-002     3.5632473534275011E-012
   3.0700000000000005E-002     4.1808501105577989E-012
   3.1800000000000023E-002     2.8850708714417417E-012
   3.2900000000000013E-002    -7.3310406139767692E-013
   3.4000000000000002E-002    -6.0951005527443147E-012
   3.5100000000000020E-002    -1.1422337901911828E-011
   3.6200000000000010E-002    -1.4019354253880234E-011
   3.7300000000000028E-002    -1.1140582380220199E-011
   3.8400000000000017E-002    -1.2862252495721149E-012
   3.9500000000000007E-002     1.4497681700975651E-011
   4.0600000000000025E-002     3.1919768911370383E-011
   4.1700000000000015E-002     4.3917331576937002E-011
   4.2800000000000005E-002     4.2567931818338067E-011
   4.3900000000000022E-002     2.2160804441506698E-011
   4.5000000000000012E-002    -1.7460257198398388E-011
   4.6100000000000002E-002    -6.8601450908811756E-011
   4.7200000000000020E-002    -1.1579950193185695E-010
   4.8300000000000010E-002    -1.3905938900382608E-010
   4.9400000000000027E-002    -1.1998917137656662E-010
   5.0500000000000017E-002    -4.9327389395337207E-011
   5.1600000000000007E-002     6.6642226459467935E-011
   5.2700000000000025E-002     2.0359350316745406E-010
   5.3800000000000014E-002     3.2269117933303448E-010
   5.4900000000000004E-002     3.8061187535021190E-010
   5.6000000000000022E-002     3.4424416095468757E-010
   5.7100000000000012E-002     2.0606122363986401E-010
   5.8200000000000002E-002    -5.1669059655812255E-012
   5.9300000000000019E-002    -2.2340737593218307E-010
   6.0400000000000009E-002    -3.5714711743572991E-010
   6.1500000000000027E-002    -3.1334912442559926E-010
   6.2600000000000017E-002    -2.8923662076518752E-011
   6.3700000000000007E-002     4.9823511982793889E-010
   6.4800000000000024E-002     1.1879395245273372E-009
   6.5900000000000014E-002     1.8741073137817921E-009
   6.7000000000000004E-002     2.3228410306330716E-009
   6.8100000000000022E-002     2.2705515245746710E-009
   6.9200000000000012E-002     1.4743152254581560E-009
   7.0300000000000029E-002    -2.3802837478825722E-010
   7.1400000000000019E-002    -2.9322344552440427E-009
   7.2500000000000009E-002    -6.5584710995381101E-009
   7.3600000000000027E-002    -1.0974788189344054E-008
   7.4700000000000016E-002    -1.6001054703451700E-008
   7.5800000000000006E-002    -2.1492475354989438E-008
   7.6900000000000024E-002    -2.7415703485189624E-008
   7.8000000000000014E-002    -3.3909802965581548E-008
   7.9100000000000004E-002    -4.1316866372653749E-008
   8.0200000000000021E-002    -5.0177256127881265E-008
   8.1300000000000011E-002    -6.1191975930796616E-008
   8.2400000000000029E-002    -7.5165907276186772E-008
   8.3500000000000019E-002    -9.2951943031494011E-008
   8.4600000000000009E-002    -1.1541646927071270E-007
   8.5700000000000026E-002    -1.4344074372729665E-007
   8.6800000000000016E-002    -1.7796395468394621E-007
   8.7900000000000006E-002    -2.2005986011208734E-007
   8.9000000000000024E-002    -2.7102919375465717E-007
   9.0100000000000013E-002    -3.3248647923755925E-007
   9.1200000000000003E-002    -4.0642740373186825E-007
   9.2300000000000021E-002    -4.9525715439813212E-007
   9.3400000000000011E-002    -6.0180019545441610E-007
   9.4500000000000028E-002    -7.2929617545014480E-007
   9.5600000000000018E-002    -8.8139739773396286E-007
   9.6700000000000008E-002    -1.0621931778587168E-006
   9.7800000000000026E-002    -1.2762543519784231E-006
   9.8900000000000016E-002    -1.5287381529560662E-006
  0.10000000000000001         -1.8254804672324099E-006
  0.10110000000000002         -2.1730957087129354E-006
  0.10220000000000001         -2.5790457129915012E-006
  0.10330000000000003         -3.0516882816300495E-006
  0.10440000000000002         -3.6002722936245846E-006
  0.10550000000000001         -4.2349765863036737E-006
  0.10660000000000003         -4.9668137762637343E-006
  0.10770000000000002         -5.8076097957382444E-006
  0.10880000000000001         -6.7700148065341637E-006
  0.10990000000000003         -7.8675338954781182E-006
  0.11100000000000002         -9.1144947873544879E-006
  0.11210000000000001         -1.0525966899876948E-005
  0.11320000000000002         -1.2117753612983506E-005
  0.11430000000000001         -1.3906176718592178E-005
  0.11540000000000003         -1.5907959095784463E-005
  0.11650000000000002         -1.8139920939574949E-005
  0.11760000000000001         -2.0618615963030607E-005
  0.11870000000000003         -2.3360240447800606E-005
  0.11980000000000002         -2.6380048439023085E-005
  0.12090000000000001         -2.9691958843613975E-005
  0.12200000000000003         -3.3308082493022084E-005
  0.12310000000000001         -3.7238238292047754E-005
  0.12420000000000003         -4.1489765862934291E-005
  0.12530000000000002         -4.6066368668107316E-005
  0.12640000000000001         -5.0967752031283453E-005
  0.12750000000000003         -5.6188942835433409E-005
  0.12860000000000002         -6.1719765653833747E-005
  0.12970000000000001         -6.7544351622927934E-005
  0.13080000000000003         -7.3639792390167713E-005
  0.13190000000000002         -7.9976343840826303E-005
  0.13300000000000001         -8.6516280134674162E-005
  0.13410000000000000         -9.3213675427250564E-005
  0.13520000000000004         -1.0001417831517756E-004
  0.13630000000000003         -1.0685450251912698E-004
  0.13740000000000002         -1.1366095714038238E-004
  0.13850000000000001         -1.2035101099172607E-004
  0.13960000000000000         -1.2683331442531198E-004
  0.14070000000000005         -1.3300823047757149E-004
  0.14180000000000004         -1.3876668526791036E-004
  0.14290000000000003         -1.4399262727238238E-004
  0.14400000000000002         -1.4856341294944286E-004
  0.14510000000000001         -1.5235113096423447E-004
  0.14620000000000000         -1.5522394096478820E-004
  0.14730000000000004         -1.5704894030932337E-004
  0.14840000000000003         -1.5769235324114561E-004
  0.14950000000000002         -1.5702247037552297E-004
  0.15060000000000001         -1.5491215162910521E-004
  0.15170000000000000         -1.5123953926376998E-004
  0.15280000000000005         -1.4589345664717257E-004
  0.15390000000000004         -1.3877540186513215E-004
  0.15500000000000003         -1.2980209430679679E-004
  0.15610000000000002         -1.1890900350408629E-004
  0.15720000000000001         -1.0604949784465134E-004
  0.15830000000000000         -9.1201567556709051E-005
  0.15940000000000004         -7.4366915214341134E-005
  0.16050000000000003         -5.5575681471964344E-005
  0.16160000000000002         -3.4887070796685293E-005
  0.16270000000000001         -1.2391197742545046E-005
  0.16380000000000000          1.1791877113864757E-005
  0.16490000000000005          3.7511235859710723E-005
  0.16600000000000004          6.4585867221467197E-005
  0.16710000000000003          9.2801936261821538E-005
  0.16820000000000002          1.2191808491479605E-004
  0.16930000000000001          1.5166454249992967E-004
  0.17040000000000000          1.8175001605413854E-004
  0.17150000000000004          2.1186262893024832E-004
  0.17260000000000003          2.4167343508452177E-004
  0.17370000000000002          2.7084231260232627E-004
  0.17480000000000001          2.9901938978582621E-004
  0.17590000000000000          3.2585221924819052E-004
  0.17700000000000005          3.5099202068522573E-004
  0.17810000000000004          3.7410008371807635E-004
  0.17920000000000003          3.9485128945671022E-004
  0.18030000000000002          4.1293940739706159E-004
  0.18140000000000001          4.2808338184840977E-004
  0.18250000000000000          4.4003367656841874E-004
  0.18360000000000004          4.4857664033770561E-004
  0.18470000000000003          4.5353977475315332E-004
  0.18580000000000002          4.5479298569262028E-004
  0.18690000000000001          4.5225073699839413E-004
  0.18800000000000000          4.4587699812836945E-004
  0.18910000000000005          4.3568512774072587E-004
  0.19020000000000004          4.2174078407697380E-004
  0.19130000000000003          4.0415904368273914E-004
  0.19240000000000002          3.8310495438054204E-004
  0.19350000000000001          3.5878643393516541E-004
  0.19460000000000005          3.3145589986816049E-004
  0.19570000000000004          3.0140683520585299E-004
  0.19680000000000003          2.6896779309026897E-004
  0.19790000000000002          2.3449637228623033E-004
  0.19900000000000001          1.9837751460727304E-004
  0.20010000000000000          1.6101075743790716E-004
  0.20120000000000005          1.2280828377697617E-004
  0.20230000000000004          8.4185761807020754E-005
  0.20340000000000003          4.5560769649455324E-005
  0.20450000000000002          7.3455275924061425E-006
  0.20560000000000000         -3.0063241865718737E-005
  0.20670000000000005         -6.6290995164308697E-005
  0.20780000000000004         -1.0098607890540734E-004
  0.20890000000000003         -1.3382821634877473E-004
