 -0.12000000000000000          0.0000000000000000     
 -0.11889999999999999          0.0000000000000000     
 -0.11780000000000000          0.0000000000000000     
 -0.11670000000000000          0.0000000000000000     
 -0.11559999999999999          0.0000000000000000     
 -0.11449999999999999          0.0000000000000000     
 -0.11340000000000000          0.0000000000000000     
 -0.11230000000000000          0.0000000000000000     
 -0.11119999999999999         -2.6777132282871687E-014
 -0.11009999999999999          1.9617274926893302E-013
 -0.10900000000000000         -3.7010345688755913E-014
 -0.10790000000000000         -2.7932790629126014E-012
 -0.10679999999999999          2.5752000358536531E-012
 -0.10569999999999999          2.5121286995055669E-011
 -0.10460000000000000         -2.0350054974471732E-011
 -0.10349999999999999         -1.7970859522709048E-010
 -0.10239999999999999          5.5531235859662686E-011
 -0.10130000000000000          1.0452201326671684E-009
 -0.10020000000000000          3.7640329741961409E-010
  -9.9099999999999994E-002    -4.7305745987102910E-009
  -9.7999999999999990E-002    -5.4335287380524733E-009
  -9.6899999999999986E-002     1.5033752021054170E-008
  -9.5799999999999996E-002     3.4846205920757711E-008
  -9.4699999999999993E-002    -2.2175248304279194E-008
  -9.3599999999999989E-002    -1.4292480443600653E-007
  -9.2499999999999999E-002    -7.2909678294763580E-008
  -9.1399999999999995E-002     3.6878481068924884E-007
  -9.0299999999999991E-002     6.1070051060596597E-007
  -8.9200000000000002E-002    -3.6724532037624158E-007
  -8.8099999999999984E-002    -2.0336215129646007E-006
  -8.6999999999999994E-002    -1.3627968655782752E-006
  -8.5899999999999990E-002     3.3085934774135239E-006
  -8.4799999999999986E-002     6.8887170527887065E-006
  -8.3699999999999997E-002     9.8712598628480919E-007
  -8.2599999999999993E-002    -1.2522345059551299E-005
  -8.1499999999999989E-002    -1.6696900274837390E-005
  -8.0399999999999999E-002     9.5407210665143793E-007
  -7.9299999999999995E-002     2.6504234483581968E-005
  -7.8199999999999992E-002     3.3414933568565175E-005
  -7.7100000000000002E-002     1.7693582776701078E-005
  -7.5999999999999984E-002    -9.5661025625304319E-006
  -7.4899999999999994E-002    -6.6803309891838580E-005
  -7.3799999999999991E-002    -1.6743669402785599E-004
  -7.2699999999999987E-002    -1.8568121595308185E-004
  -7.1599999999999997E-002     1.2195155431982130E-004
  -7.0499999999999993E-002     7.2555179940536618E-004
  -6.9399999999999989E-002     9.5996697200462222E-004
  -6.8300000000000000E-002    -6.9760808401042596E-006
  -6.7199999999999996E-002    -1.9248619209975004E-003
  -6.6099999999999992E-002    -2.9522858094424009E-003
  -6.5000000000000002E-002    -1.2258923379704356E-003
  -6.3899999999999985E-002     2.7227990794926882E-003
  -6.2799999999999995E-002     5.7906331494450569E-003
  -6.1699999999999991E-002     5.2134348079562187E-003
  -6.0599999999999994E-002     1.1773199075832963E-003
  -5.9499999999999990E-002    -4.2292764410376549E-003
  -5.8399999999999994E-002    -9.6834534779191017E-003
  -5.7299999999999990E-002    -1.3988072983920574E-002
  -5.6199999999999986E-002    -1.2867411598563194E-002
  -5.5099999999999996E-002    -5.7605496840551496E-004
  -5.3999999999999992E-002     2.1435396745800972E-002
  -5.2899999999999989E-002     3.9648983627557755E-002
  -5.1799999999999985E-002     3.8514278829097748E-002
  -5.0699999999999995E-002     1.6838803887367249E-002
  -4.9599999999999991E-002    -1.1875559575855732E-002
  -4.8499999999999988E-002    -3.8985576480627060E-002
  -4.7399999999999998E-002    -7.2033114731311798E-002
  -4.6299999999999994E-002   -0.11400333791971207     
  -4.5199999999999990E-002   -0.13360431790351868     
  -4.4099999999999986E-002    -7.6241932809352875E-002
  -4.2999999999999997E-002     7.9044967889785767E-002
  -4.1899999999999993E-002    0.27841067314147949     
  -4.0799999999999989E-002    0.42238005995750427     
  -3.9699999999999985E-002    0.43517261743545532     
  -3.8599999999999995E-002    0.29540410637855530     
  -3.7499999999999992E-002     1.0496465489268303E-002
  -3.6399999999999988E-002   -0.39940139651298523     
  -3.5299999999999984E-002   -0.86624002456665039     
  -3.4199999999999994E-002    -1.2450444698333740     
  -3.3099999999999991E-002    -1.3610733747482300     
  -3.1999999999999987E-002    -1.0934369564056396     
  -3.0899999999999997E-002   -0.39614716172218323     
  -2.9799999999999993E-002    0.73438000679016113     
  -2.8699999999999989E-002     2.2233581542968750     
  -2.7599999999999986E-002     3.7906866073608398     
  -2.6499999999999996E-002     4.9136719703674316     
  -2.5399999999999992E-002     5.0254130363464355     
  -2.4299999999999988E-002     3.7887942790985107     
  -2.3199999999999985E-002     1.1366785764694214     
  -2.2099999999999995E-002    -2.9356937408447266     
  -2.0999999999999991E-002    -8.4750690460205078     
  -1.9899999999999987E-002    -15.363304138183594     
  -1.8799999999999983E-002    -23.105773925781250     
  -1.7699999999999994E-002    -31.038085937500000     
  -1.6599999999999990E-002    -38.810111999511719     
  -1.5499999999999986E-002    -46.547988891601562     
  -1.4399999999999996E-002    -54.508789062500000     
  -1.3299999999999992E-002    -62.811332702636719     
  -1.2199999999999989E-002    -71.779441833496094     
  -1.1099999999999985E-002    -82.496963500976562     
  -9.9999999999999950E-003    -96.710983276367188     
  -8.8999999999999913E-003    -116.06009674072266     
  -7.7999999999999875E-003    -141.59068298339844     
  -6.6999999999999837E-003    -174.18084716796875     
  -5.5999999999999939E-003    -215.20567321777344     
  -4.4999999999999901E-003    -266.44284057617188     
  -3.3999999999999864E-003    -329.40905761718750     
  -2.2999999999999826E-003    -405.20684814453125     
  -1.1999999999999927E-003    -495.13919067382812     
  -9.9999999999988987E-005    -601.13500976562500     
   1.0000000000000148E-003    -725.44812011718750     
   2.1000000000000185E-003    -870.55853271484375     
   3.2000000000000084E-003    -1040.1501464843750     
   4.3000000000000121E-003    -1239.8171386718750     
   5.4000000000000159E-003    -1476.0487060546875     
   6.5000000000000058E-003    -1754.0758056640625     
   7.6000000000000234E-003    -2077.4516601562500     
   8.7000000000000133E-003    -2450.6142578125000     
   9.8000000000000032E-003    -2881.4458007812500     
   1.0900000000000021E-002    -3379.8312988281250     
   1.2000000000000011E-002    -3953.8520507812500     
   1.3100000000000001E-002    -4608.8959960937500     
   1.4200000000000018E-002    -5350.6298828125000     
   1.5300000000000008E-002    -6188.5195312500000     
   1.6400000000000026E-002    -7135.9135742187500     
   1.7500000000000016E-002    -8205.2011718750000     
   1.8600000000000005E-002    -9405.0400390625000     
   1.9700000000000023E-002    -10742.760742187500     
   2.0800000000000013E-002    -12226.139648437500     
   2.1900000000000003E-002    -13862.673828125000     
   2.3000000000000020E-002    -15659.451171875000     
   2.4100000000000010E-002    -17621.949218750000     
   2.5200000000000000E-002    -19757.150390625000     
   2.6300000000000018E-002    -22068.628906250000     
   2.7400000000000008E-002    -24554.089843750000     
   2.8500000000000025E-002    -27204.775390625000     
   2.9600000000000015E-002    -30014.416015625000     
   3.0700000000000005E-002    -32979.257812500000     
   3.1800000000000023E-002    -36091.855468750000     
   3.2900000000000013E-002    -39329.644531250000     
   3.4000000000000002E-002    -42652.589843750000     
   3.5100000000000020E-002    -46021.601562500000     
   3.6200000000000010E-002    -49408.410156250000     
   3.7300000000000028E-002    -52778.847656250000     
   3.8400000000000017E-002    -56078.695312500000     
   3.9500000000000007E-002    -59241.269531250000     
   4.0600000000000025E-002    -62191.011718750000     
   4.1700000000000015E-002    -64858.515625000000     
   4.2800000000000005E-002    -67175.039062500000     
   4.3900000000000022E-002    -69058.460937500000     
   4.5000000000000012E-002    -70418.882812500000     
   4.6100000000000002E-002    -71161.148437500000     
   4.7200000000000020E-002    -71182.250000000000     
   4.8300000000000010E-002    -70373.664062500000     
   4.9400000000000027E-002    -68641.335937500000     
   5.0500000000000017E-002    -65895.640625000000     
   5.1600000000000007E-002    -62066.285156250000     
   5.2700000000000025E-002    -57059.656250000000     
   5.3800000000000014E-002    -50778.414062500000     
   5.4900000000000004E-002    -43139.921875000000     
   5.6000000000000022E-002    -34110.328125000000     
   5.7100000000000012E-002    -23694.658203125000     
   5.8200000000000002E-002    -11887.569335937500     
   5.9300000000000019E-002     1331.7291259765625     
   6.0400000000000009E-002     15956.760742187500     
   6.1500000000000027E-002     31930.353515625000     
   6.2600000000000017E-002     49146.539062500000     
   6.3700000000000007E-002     67456.851562500000     
   6.4800000000000024E-002     86718.750000000000     
   6.5900000000000014E-002     106787.02343750000     
   6.7000000000000004E-002     127469.98437500000     
   6.8100000000000022E-002     148533.65625000000     
   6.9200000000000012E-002     169712.26562500000     
   7.0300000000000029E-002     190727.82812500000     
   7.1400000000000019E-002     211257.64062500000     
   7.2500000000000009E-002     230969.25000000000     
   7.3600000000000027E-002     249533.87500000000     
   7.4700000000000016E-002     266672.43750000000     
   7.5800000000000006E-002     282085.65625000000     
   7.6900000000000024E-002     295397.78125000000     
   7.8000000000000014E-002     306221.37500000000     
   7.9100000000000004E-002     314241.96875000000     
   8.0200000000000021E-002     319251.62500000000     
   8.1300000000000011E-002     321085.00000000000     
   8.2400000000000029E-002     319522.53125000000     
   8.3500000000000019E-002     314338.53125000000     
   8.4600000000000009E-002     305362.40625000000     
   8.5700000000000026E-002     292562.03125000000     
   8.6800000000000016E-002     276012.09375000000     
   8.7900000000000006E-002     255795.42187500000     
   8.9000000000000024E-002     232012.14062500000     
   9.0100000000000013E-002     204825.64062500000     
   9.1200000000000003E-002     174471.79687500000     
   9.2300000000000021E-002     141236.00000000000     
   9.3400000000000011E-002     105459.28125000000     
   9.4500000000000028E-002     67576.687500000000     
   9.5600000000000018E-002     28109.228515625000     
   9.6700000000000008E-002    -12432.188476562500     
   9.7800000000000026E-002    -53603.203125000000     
   9.8900000000000016E-002    -94981.968750000000     
  0.10000000000000001         -136013.57812500000     
  0.10110000000000002         -176029.26562500000     
  0.10220000000000001         -214395.71875000000     
  0.10330000000000003         -250642.09375000000     
  0.10440000000000002         -284434.00000000000     
  0.10550000000000001         -315351.96875000000     
  0.10660000000000003         -342887.50000000000     
  0.10770000000000002         -366632.78125000000     
  0.10880000000000001         -386260.40625000000     
  0.10990000000000003         -401588.15625000000     
  0.11100000000000002         -412540.46875000000     
  0.11210000000000001         -418982.25000000000     
  0.11320000000000002         -420867.37500000000     
  0.11430000000000001         -418257.65625000000     
  0.11540000000000003         -411297.62500000000     
  0.11650000000000002         -400065.06250000000     
  0.11760000000000001         -384751.78125000000     
  0.11870000000000003         -365772.09375000000     
  0.11980000000000002         -343607.40625000000     
  0.12090000000000001         -318624.50000000000     
  0.12200000000000003         -291035.00000000000     
  0.12310000000000001         -261162.28125000000     
  0.12420000000000003         -229623.70312500000     
  0.12530000000000002         -197072.09375000000     
  0.12640000000000001         -163978.64062500000     
  0.12750000000000003         -130576.67187500000     
  0.12860000000000002         -97258.210937500000     
  0.12970000000000001         -64545.808593750000     
  0.13080000000000003         -32898.882812500000     
  0.13190000000000002         -2606.6542968750000     
  0.13300000000000001          26085.779296875000     
  0.13410000000000000          52850.265625000000     
  0.13520000000000004          77328.781250000000     
  0.13630000000000003          99412.242187500000     
  0.13740000000000002          119155.19531250000     
  0.13850000000000001          136530.64062500000     
  0.13960000000000000          151280.37500000000     
  0.14070000000000005          163204.37500000000     
  0.14180000000000004          172447.78125000000     
  0.14290000000000003          179345.18750000000     
  0.14400000000000002          184058.51562500000     
  0.14510000000000001          186517.90625000000     
  0.14620000000000000          186715.18750000000     
  0.14730000000000004          184910.78125000000     
  0.14840000000000003          181456.39062500000     
  0.14950000000000002          176525.12500000000     
  0.15060000000000001          170181.87500000000     
  0.15170000000000000          162624.34375000000     
  0.15280000000000005          154210.42187500000     
  0.15390000000000004          145189.73437500000     
  0.15500000000000003          135566.42187500000     
  0.15610000000000002          125352.63281250000     
  0.15720000000000001          114835.16406250000     
  0.15830000000000000          104423.75781250000     
  0.15940000000000004          94283.101562500000     
  0.16050000000000003          84295.851562500000     
  0.16160000000000002          74375.554687500000     
  0.16270000000000001          64734.863281250000     
  0.16380000000000000          55672.644531250000     
  0.16490000000000005          47264.589843750000     
  0.16600000000000004          39356.972656250000     
  0.16710000000000003          31901.683593750000     
  0.16820000000000002          25061.359375000000     
  0.16930000000000001          18950.103515625000     
  0.17040000000000000          13436.734375000000     
  0.17150000000000004          8344.5527343750000     
  0.17260000000000003          3747.4897460937500     
  0.17370000000000002         -134.06826782226562     
  0.17480000000000001         -3302.8444824218750     
  0.17590000000000000         -6049.1328125000000     
  0.17700000000000005         -8585.0361328125000     
  0.17810000000000004         -10793.254882812500     
  0.17920000000000003         -12443.701171875000     
  0.18030000000000002         -13570.902343750000     
  0.18140000000000001         -14455.213867187500     
  0.18250000000000000         -15246.128906250000     
  0.18360000000000004         -15822.452148437500     
  0.18470000000000003         -16044.103515625000     
  0.18580000000000002         -16031.422851562500     
  0.18690000000000001         -15994.414062500000     
  0.18800000000000000         -15924.618164062500     
  0.18910000000000005         -15635.073242187500     
  0.19020000000000004         -15096.198242187500     
  0.19130000000000003         -14532.272460937500     
  0.19240000000000002         -14119.410156250000     
  0.19350000000000001         -13731.837890625000     
  0.19460000000000005         -13139.127929687500     
  0.19570000000000004         -12362.671875000000     
  0.19680000000000003         -11652.531250000000     
  0.19790000000000002         -11125.773437500000     
  0.19900000000000001         -10608.630859375000     
  0.20010000000000000         -9918.0810546875000     
  0.20120000000000005         -9143.0634765625000     
  0.20230000000000004         -8502.7509765625000     
  0.20340000000000003         -8006.6059570312500     
  0.20450000000000002         -7446.0253906250000     
  0.20560000000000000         -6720.5136718750000     
  0.20670000000000005         -5993.5307617187500     
  0.20780000000000004         -5444.3085937500000     
  0.20890000000000003         -4996.9262695312500     
