 -0.12000000000000000          0.0000000000000000
 -0.11889999999999999          0.0000000000000000
 -0.11780000000000000          0.0000000000000000
 -0.11670000000000000          0.0000000000000000
 -0.11559999999999999          0.0000000000000000
 -0.11449999999999999          1.4284269390081139E-015
 -0.11340000000000000         -2.4924135055370920E-015
 -0.11230000000000000         -1.3384944228553384E-014
 -0.11119999999999999          2.1669276277307657E-014
 -0.11009999999999999          9.6478489260143352E-014
 -0.10900000000000000         -6.4763021063573428E-014
 -0.10790000000000000         -5.1346741528762729E-013
 -0.10679999999999999         -1.4715504747901675E-013
 -0.10569999999999999          1.8767461543167663E-012
 -0.10460000000000000          2.3827207568105635E-012
 -0.10349999999999999         -3.7394440842442034E-012
 -0.10239999999999999         -1.1419126061396057E-011
 -0.10130000000000000         -2.0969777563689673E-012
 -0.10020000000000000          2.8348462466354363E-011
  -9.9099999999999994E-002     3.8769612520361818E-011
  -9.7999999999999990E-002    -2.0811798465136810E-011
  -9.6899999999999986E-002    -1.1168244801185168E-010
  -9.5799999999999996E-002    -9.2685935315639512E-011
  -9.4699999999999993E-002     1.0614288614707590E-010
  -9.3599999999999989E-002     3.0103769477207720E-010
  -9.2499999999999999E-002     1.8590774752968997E-010
  -9.1399999999999995E-002    -2.5472471354426318E-010
  -9.0299999999999991E-002    -5.8175569916940617E-010
  -8.9200000000000002E-002    -3.5416380939068404E-010
  -8.8099999999999984E-002     2.7511043443340100E-010
  -8.6999999999999994E-002     6.7017624783005658E-010
  -8.5899999999999990E-002     5.1441328974277667E-010
  -8.4799999999999986E-002     2.1862095467284348E-010
  -8.3699999999999997E-002     2.5128957248377048E-010
  -8.2599999999999993E-002     2.7846566719169630E-010
  -8.1499999999999989E-002    -5.3183085713115474E-010
  -8.0399999999999999E-002    -2.2713622094272523E-009
  -7.9299999999999995E-002    -3.7994598578450223E-009
  -7.8199999999999992E-002    -3.6941296688297598E-009
  -7.7100000000000002E-002    -1.2695856588251786E-009
  -7.5999999999999984E-002     3.6348366538874188E-009
  -7.4899999999999994E-002     1.1205786520918082E-008
  -7.3799999999999991E-002     2.1071230094094062E-008
  -7.2699999999999987E-002     3.1462871419307703E-008
  -7.1599999999999997E-002     4.0369382503513407E-008
  -7.0499999999999993E-002     4.8108010020087022E-008
  -6.9399999999999989E-002     5.7568197320279069E-008
  -6.8300000000000000E-002     7.0786569494885043E-008
  -6.7199999999999996E-002     8.6315466774067318E-008
  -6.6099999999999992E-002     1.0202892042343592E-007
  -6.5000000000000002E-002     1.2042848140936258E-007
  -6.3899999999999985E-002     1.4856065888579906E-007
  -6.2799999999999995E-002     1.9108976800907840E-007
  -6.1699999999999991E-002     2.4523856723135395E-007
  -6.0599999999999994E-002     3.0510219062307442E-007
  -5.9499999999999990E-002     3.7036284084024373E-007
  -5.8399999999999994E-002     4.4808209054281178E-007
  -5.7299999999999990E-002     5.4581482800131198E-007
  -5.6199999999999986E-002     6.6625699446376530E-007
  -5.5099999999999996E-002     8.1032459320340422E-007
  -5.3999999999999992E-002     9.8234670531383017E-007
  -5.2899999999999989E-002     1.1887349273820291E-006
  -5.1799999999999985E-002     1.4335662399389548E-006
  -5.0699999999999995E-002     1.7206415350301540E-006
  -4.9599999999999991E-002     2.0601532924047206E-006
  -4.8499999999999988E-002     2.4675271106389118E-006
  -4.7399999999999998E-002     2.9524971978389658E-006
  -4.6299999999999994E-002     3.5145023957738886E-006
  -4.5199999999999990E-002     4.1555604184395634E-006
  -4.4099999999999986E-002     4.8957117542158812E-006
  -4.2999999999999997E-002     5.7676670621731319E-006
  -4.1899999999999993E-002     6.7942796704301145E-006
  -4.0799999999999989E-002     7.9788815128267743E-006
  -3.9699999999999985E-002     9.3232574727153406E-006
  -3.8599999999999995E-002     1.0849554200831335E-005
  -3.7499999999999992E-002     1.2595943189808168E-005
  -3.6399999999999988E-002     1.4593531886930577E-005
  -3.5299999999999984E-002     1.6858357412274927E-005
  -3.4199999999999994E-002     1.9407851141295396E-005
  -3.3099999999999991E-002     2.2273752620094456E-005
  -3.1999999999999987E-002     2.5490713596809655E-005
  -3.0899999999999997E-002     2.9080756576149724E-005
  -2.9799999999999993E-002     3.3061653084587306E-005
  -2.8699999999999989E-002     3.7467547372216359E-005
  -2.7599999999999986E-002     4.2344574467279017E-005
  -2.6499999999999996E-002     4.7720895963720977E-005
  -2.5399999999999992E-002     5.3594674682244658E-005
  -2.4299999999999988E-002     5.9963662351947278E-005
  -2.3199999999999985E-002     6.6855427576228976E-005
  -2.2099999999999995E-002     7.4312178185209632E-005
  -2.0999999999999991E-002     8.2345664850436151E-005
  -1.9899999999999987E-002     9.0926878328900784E-005
  -1.8799999999999983E-002     1.0002400085795671E-004
  -1.7699999999999994E-002     1.0963040404021740E-004
  -1.6599999999999990E-002     1.1974052904406562E-004
  -1.5499999999999986E-002     1.3030829722993076E-004
  -1.4399999999999996E-002     1.4125515008345246E-004
  -1.3299999999999992E-002     1.5251178410835564E-004
  -1.2199999999999989E-002     1.6402642359025776E-004
  -1.1099999999999985E-002     1.7571833450347185E-004
  -9.9999999999999950E-003     1.8744864792097360E-004
  -8.8999999999999913E-003     1.9905639055650681E-004
  -7.7999999999999875E-003     2.1041416039224714E-004
  -6.6999999999999837E-003     2.2141567023936659E-004
  -5.5999999999999939E-003     2.3190668434835970E-004
  -4.4999999999999901E-003     2.4166422372218221E-004
  -3.3999999999999864E-003     2.5045376969501376E-004
  -2.2999999999999826E-003     2.5808732607401907E-004
  -1.1999999999999927E-003     2.6439604698680341E-004
  -9.9999999999988987E-005     2.6916674687527120E-004
   1.0000000000000148E-003     2.7214243891648948E-004
   2.1000000000000185E-003     2.7309148572385311E-004
   3.2000000000000084E-003     2.7183428755961359E-004
   4.3000000000000121E-003     2.6818795595318079E-004
   5.4000000000000159E-003     2.6192303630523384E-004
   6.5000000000000058E-003     2.5281557464040816E-004
   7.6000000000000234E-003     2.4073114036582410E-004
   8.7000000000000133E-003     2.2561488731298596E-004
   9.8000000000000032E-003     2.0738576131407171E-004
   1.0900000000000021E-002     1.8590973922982812E-004
   1.2000000000000011E-002     1.6109700663946569E-004
   1.3100000000000001E-002     1.3299859710969031E-004
   1.4200000000000018E-002     1.0175830539083108E-004
   1.5300000000000008E-002     6.7495537223294377E-005
   1.6400000000000026E-002     3.0297589546535164E-005
   1.7500000000000016E-002    -9.6688745543360710E-006
   1.8600000000000005E-002    -5.2101459004916251E-005
   1.9700000000000023E-002    -9.6635638328734785E-005
   2.0800000000000013E-002    -1.4294710126705468E-004
   2.1900000000000003E-002    -1.9070232519879937E-004
   2.3000000000000020E-002    -2.3944755957927555E-004
   2.4100000000000010E-002    -2.8862693579867482E-004
   2.5200000000000000E-002    -3.3770513255149126E-004
   2.6300000000000018E-002    -3.8622610736638308E-004
   2.7400000000000008E-002    -4.3371482752263546E-004
   2.8500000000000025E-002    -4.7956395428627729E-004
   2.9600000000000015E-002    -5.2310834871605039E-004
   3.0700000000000005E-002    -5.6378473527729511E-004
   3.1800000000000023E-002    -6.0115358792245388E-004
   3.2900000000000013E-002    -6.3476176001131535E-004
   3.4000000000000002E-002    -6.6406634869053960E-004
   3.5100000000000020E-002    -6.8854959681630135E-004
   3.6200000000000010E-002    -7.0785725256428123E-004
   3.7300000000000028E-002    -7.2175991954281926E-004
   3.8400000000000017E-002    -7.3000398697331548E-004
   3.9500000000000007E-002    -7.3229911504313350E-004
   4.0600000000000025E-002    -7.2847964474931359E-004
   4.1700000000000015E-002    -7.1859528543427587E-004
   4.2800000000000005E-002    -7.0278724888339639E-004
   4.3900000000000022E-002    -6.8112998269498348E-004
   4.5000000000000012E-002    -6.5369310323148966E-004
   4.6100000000000002E-002    -6.2072579748928547E-004
   4.7200000000000020E-002    -5.8269262081012130E-004
   4.8300000000000010E-002    -5.4008734878152609E-004
   4.9400000000000027E-002    -4.9330428009852767E-004
   5.0500000000000017E-002    -4.4275668915361166E-004
   5.1600000000000007E-002    -3.8903343374840915E-004
   5.2700000000000025E-002    -3.3285829704254866E-004
   5.3800000000000014E-002    -2.7488646446727216E-004
   5.4900000000000004E-002    -2.1564943017438054E-004
   5.6000000000000022E-002    -1.5572182019241154E-004
   5.7100000000000012E-002    -9.5832561783026904E-005
   5.8200000000000002E-002    -3.6740886571351439E-005
   5.9300000000000019E-002     2.0979014152544551E-005
   6.0400000000000009E-002     7.6905926107428968E-005
   6.1500000000000027E-002     1.3054878218099475E-004
   6.2600000000000017E-002     1.8128649389836937E-004
   6.3700000000000007E-002     2.2857139992993325E-004
   6.4800000000000024E-002     2.7210550615563989E-004
   6.5900000000000014E-002     3.1171838054433465E-004
   6.7000000000000004E-002     3.4715048968791962E-004
   6.8100000000000022E-002     3.7807502667419612E-004
   6.9200000000000012E-002     4.0431981324218214E-004
   7.0300000000000029E-002     4.2595085687935352E-004
   7.1400000000000019E-002     4.4307715143077075E-004
   7.2500000000000009E-002     4.5567922643385828E-004
   7.3600000000000027E-002     4.6372832730412483E-004
   7.4700000000000016E-002     4.6741307596676052E-004
   7.5800000000000006E-002     4.6711211325600743E-004
   7.6900000000000024E-002     4.6314456267282367E-004
   7.8000000000000014E-002     4.5566109474748373E-004
   7.9100000000000004E-002     4.4483484816737473E-004
   8.0200000000000021E-002     4.3106300290673971E-004
   8.1300000000000011E-002     4.1485534165985882E-004
   8.2400000000000029E-002     3.9658063906244934E-004
   8.3500000000000019E-002     3.7644445546902716E-004
   8.4600000000000009E-002     3.5472062882035971E-004
   8.5700000000000026E-002     3.3186422660946846E-004
   8.6800000000000016E-002     3.0832443735562265E-004
   8.7900000000000006E-002     2.8434584964998066E-004
   8.9000000000000024E-002     2.6006498956121504E-004
   9.0100000000000013E-002     2.3575554951094091E-004
   9.1200000000000003E-002     2.1183275384828448E-004
   9.2300000000000021E-002     1.8859391275327653E-004
   9.3400000000000011E-002     1.6608950681984425E-004
   9.4500000000000028E-002     1.4432791795115918E-004
   9.5600000000000018E-002     1.2350699398666620E-004
   9.6700000000000008E-002     1.0392411059001461E-004
   9.7800000000000026E-002     8.5699677583761513E-005
   9.8900000000000016E-002     6.8733337684534490E-005
  0.10000000000000001          5.2952596888644621E-005
  0.10110000000000002          3.8477159250760451E-005
  0.10220000000000001          2.5452667614445090E-005
  0.10330000000000003          1.3821934771840461E-005
  0.10440000000000002          3.3936919408006361E-006
  0.10550000000000001         -5.9003505157306790E-006
  0.10660000000000003         -1.3960745491203852E-005
  0.10770000000000002         -2.0758207028848119E-005
  0.10880000000000001         -2.6481564418645576E-005
  0.10990000000000003         -3.1359257263829932E-005
  0.11100000000000002         -3.5421649954514578E-005
  0.11210000000000001         -3.8565194699913263E-005
  0.11320000000000002         -4.0825074393069372E-005
  0.11430000000000001         -4.2435629438841715E-005
  0.11540000000000003         -4.3591098801698536E-005
  0.11650000000000002         -4.4266733311815187E-005
  0.11760000000000001         -4.4371412514010444E-005
  0.11870000000000003         -4.3990934500470757E-005
  0.11980000000000002         -4.3350388295948505E-005
  0.12090000000000001         -4.2554263927740976E-005
  0.12200000000000003         -4.1512048483127728E-005
  0.12310000000000001         -4.0157687180908397E-005
  0.12420000000000003         -3.8627094909315929E-005
  0.12530000000000002         -3.7113288271939382E-005
  0.12640000000000001         -3.5627654142444953E-005
  0.12750000000000003         -3.4028751542791724E-005
  0.12860000000000002         -3.2278949220199138E-005
  0.12970000000000001         -3.0536179110640660E-005
  0.13080000000000003         -2.8942115022800863E-005
  0.13190000000000002         -2.7435975425760262E-005
  0.13300000000000001         -2.5874509447021410E-005
  0.13410000000000000         -2.4269840650958940E-005
  0.13520000000000004         -2.2779451683163643E-005
  0.13630000000000003         -2.1470688807312399E-005
  0.13740000000000002         -2.0224917534505948E-005
  0.13850000000000001         -1.8928571080323309E-005
  0.13960000000000000         -1.7652791939326562E-005
  0.14070000000000005         -1.6545205653528683E-005
  0.14180000000000004         -1.5601719496771693E-005
  0.14290000000000003         -1.4670364180346951E-005
  0.14400000000000002         -1.3680242773261853E-005
  0.14510000000000001         -1.2743796105496585E-005
  0.14620000000000000         -1.1980190720350947E-005
  0.14730000000000004         -1.1332765097904485E-005
  0.14840000000000003         -1.0655885489541106E-005
  0.14950000000000002         -9.9335638878983445E-006
  0.15060000000000001         -9.2935124484938569E-006
  0.15170000000000000         -8.8023016360239126E-006
  0.15280000000000005         -8.3601826190715656E-006
  0.15390000000000004         -7.8535567809012718E-006
  0.15500000000000003         -7.3260785029560793E-006
  0.15610000000000002         -6.9063148657733109E-006
  0.15720000000000001         -6.6060069912055042E-006
  0.15830000000000000         -6.2999779402161948E-006
  0.15940000000000004         -5.9137150856258813E-006
  0.16050000000000003         -5.5309874369413592E-006
  0.16160000000000002         -5.2605264500016347E-006
  0.16270000000000001         -5.0702005864877719E-006
  0.16380000000000000         -4.8393721954198554E-006
  0.16490000000000005         -4.5414690248435363E-006
  0.16600000000000004         -4.2768406274262816E-006
  0.16710000000000003         -4.1124676499748603E-006
  0.16820000000000002         -3.9794845179130789E-006
  0.16930000000000001         -3.7826159768883372E-006
  0.17040000000000000         -3.5463740459817927E-006
  0.17150000000000004         -3.3735609576979186E-006
  0.17260000000000003         -3.2843843200680567E-006
  0.17370000000000002         -3.1849453989707399E-006
  0.17480000000000001         -3.0102660275588278E-006
  0.17590000000000000         -2.8211516109877266E-006
  0.17700000000000005         -2.7095179575553630E-006
  0.17810000000000004         -2.6600393994158367E-006
  0.17920000000000003         -2.5767226361494977E-006
  0.18030000000000002         -2.4280172965518432E-006
  0.18140000000000001         -2.2889814772497630E-006
  0.18250000000000000         -2.2227518456929829E-006
  0.18360000000000004         -2.1871776425541611E-006
  0.18470000000000003         -2.1040038973296760E-006
  0.18580000000000002         -1.9776714452746091E-006
  0.18690000000000001         -1.8834151660485077E-006
  0.18800000000000000         -1.8495745734981028E-006
  0.18910000000000005         -1.8167246480516042E-006
  0.19020000000000004         -1.7314155229541939E-006
  0.19130000000000003         -1.6263531961158151E-006
  0.19240000000000002         -1.5671449773435597E-006
  0.19350000000000001         -1.5519800626861979E-006
  0.19460000000000005         -1.5175048702076310E-006
  0.19570000000000004         -1.4362890397023875E-006
  0.19680000000000003         -1.3553691360357334E-006
  0.19790000000000002         -1.3215952776590711E-006
  0.19900000000000001         -1.3117969501763582E-006
  0.20010000000000000         -1.2711982435575919E-006
  0.20120000000000005         -1.1968387525485014E-006
  0.20230000000000004         -1.1387917311367346E-006
  0.20340000000000003         -1.1226035212530405E-006
  0.20450000000000002         -1.1127250445497339E-006
  0.20560000000000000         -1.0689668670238461E-006
  0.20670000000000005         -1.0061488637802540E-006
  0.20780000000000004         -9.6862618192972150E-007
  0.20890000000000003         -9.6282769845856819E-007
