 -0.12000000000000000          0.0000000000000000
 -0.11889999999999999          0.0000000000000000
 -0.11780000000000000          0.0000000000000000
 -0.11670000000000000          0.0000000000000000
 -0.11559999999999999          0.0000000000000000
 -0.11449999999999999          0.0000000000000000
 -0.11340000000000000          0.0000000000000000
 -0.11230000000000000          4.5173334915543855E-021
 -0.11119999999999999         -2.1335217507987356E-021
 -0.11009999999999999         -5.0255093159369238E-020
 -0.10900000000000000          6.3247356507830386E-021
 -0.10790000000000000          3.2296866351523760E-019
 -0.10679999999999999          1.0674545438911759E-019
 -0.10569999999999999         -1.4623046727246917E-018
 -0.10460000000000000         -1.2596291892296786E-018
 -0.10349999999999999          4.7662452952132099E-018
 -0.10239999999999999          7.2483702952041428E-018
 -0.10130000000000000         -1.0592413357572268E-017
 -0.10020000000000000         -2.7792534045397783E-017
  -9.9099999999999994E-002     1.2570429676855009E-017
  -9.7999999999999990E-002     7.9820454186974412E-017
  -9.6899999999999986E-002     1.2145893289532581E-017
  -9.5799999999999996E-002    -1.8955652388419461E-016
  -9.4699999999999993E-002    -1.2844021153382026E-016
  -9.3599999999999989E-002     3.9215269647489555E-016
  -9.2499999999999999E-002     5.3948957778724880E-016
  -9.1399999999999995E-002    -6.0574322437205929E-016
  -9.0299999999999991E-002    -1.6980234441964096E-015
  -8.9200000000000002E-002     1.2997053537171276E-016
  -8.8099999999999984E-002     3.8443733805615214E-015
  -8.6999999999999994E-002     2.7951615038523817E-015
  -8.5899999999999990E-002    -5.4412934898660000E-015
  -8.4799999999999986E-002    -9.5917477316320200E-015
  -8.3699999999999997E-002     2.5227923421903675E-015
  -8.2599999999999993E-002     1.8417181367751286E-014
  -8.1499999999999989E-002     8.2132532789854287E-015
  -8.0399999999999999E-002    -2.5318133277819205E-014
  -7.9299999999999995E-002    -2.8646847399652411E-014
  -7.8199999999999992E-002     2.6885403422321520E-014
  -7.7100000000000002E-002     6.7104504732854592E-014
  -7.5999999999999984E-002    -4.8577093885479421E-015
  -7.4899999999999994E-002    -1.2584730349832207E-013
  -7.3799999999999991E-002    -8.8558866728587204E-014
  -7.2699999999999987E-002     1.4607451804139054E-013
  -7.1599999999999997E-002     2.6607240174135460E-013
  -7.0499999999999993E-002    -1.4646061937567158E-014
  -6.9399999999999989E-002    -4.1285182737771375E-013
  -6.8300000000000000E-002    -2.8991471224572296E-013
  -6.7199999999999996E-002     3.7689420811712337E-013
  -6.6099999999999992E-002     6.6022832817189125E-013
  -6.5000000000000002E-002    -1.0487629238361065E-013
  -6.3899999999999985E-002    -1.0222468488016445E-012
  -6.2799999999999995E-002    -5.2546741914280548E-013
  -6.1699999999999991E-002     1.1612622755757807E-012
  -6.0599999999999994E-002     1.6429044539731374E-012
  -5.9499999999999990E-002    -4.3080418247500030E-013
  -5.8399999999999994E-002    -2.6582672695008025E-012
  -5.7299999999999990E-002    -1.4798652754610675E-012
  -5.6199999999999986E-002     2.3741798457765917E-012
  -5.5099999999999996E-002     3.6569909427075498E-012
  -5.3999999999999992E-002    -3.4669578948161306E-013
  -5.2899999999999989E-002    -4.7691733374988221E-012
  -5.1799999999999985E-002    -2.8353883910897659E-012
  -5.0699999999999995E-002     3.9462586844118963E-012
  -4.9599999999999991E-002     6.1617841905226012E-012
  -4.8499999999999988E-002    -6.3211735108412159E-013
  -4.7399999999999998E-002    -7.9608515959894710E-012
  -4.6299999999999994E-002    -4.8449391200355851E-012
  -4.5199999999999990E-002     5.9952849976174782E-012
  -4.4099999999999986E-002     1.0003430375715716E-011
  -4.2999999999999997E-002     7.0884736882298460E-013
  -4.1899999999999993E-002    -9.9523488408803651E-012
  -4.0799999999999989E-002    -7.5309827818337283E-012
  -3.9699999999999985E-002     4.1719969492981512E-012
  -3.8599999999999995E-002     8.2179263394266400E-012
  -3.7499999999999992E-002    -6.3618684972843731E-013
  -3.6399999999999988E-002    -8.0510433389524572E-012
  -3.5299999999999984E-002    -1.8640540500047820E-012
  -3.4199999999999994E-002     9.1509144012347221E-012
  -3.3099999999999991E-002     8.9054917953856894E-012
  -3.1999999999999987E-002    -8.5697226225034395E-013
  -3.0899999999999997E-002    -4.3739066188375197E-012
  -2.9799999999999993E-002     6.2586822660234964E-013
  -2.8699999999999989E-002    -1.9755590392744882E-012
  -2.7599999999999986E-002    -1.6762572233042228E-011
  -2.6499999999999996E-002    -2.0915059614767806E-011
  -2.5399999999999992E-002     2.9936372391431432E-012
  -2.4299999999999988E-002     3.0773061182598482E-011
  -2.3199999999999985E-002     2.1650204198864209E-011
  -2.2099999999999995E-002    -1.9671904730178547E-011
  -2.0999999999999991E-002    -3.8418952047480914E-011
  -1.9899999999999987E-002    -5.0696547654327517E-012
  -1.8799999999999983E-002     3.2673162786434062E-011
  -1.7699999999999994E-002     9.1698966128705983E-012
  -1.6599999999999990E-002    -5.9848806466256121E-011
  -1.5499999999999986E-002    -8.4297735458704892E-011
  -1.4399999999999996E-002    -1.9526772560007899E-011
  -1.3299999999999992E-002     6.4592393933526893E-011
  -1.2199999999999989E-002     6.8628172589235703E-011
  -1.1099999999999985E-002    -7.4422343288027548E-012
  -9.9999999999999950E-003    -7.1732703110782836E-011
  -8.8999999999999913E-003    -6.8137578912441654E-011
  -7.7999999999999875E-003    -4.2644988235140957E-011
  -6.6999999999999837E-003    -6.0994896633470574E-011
  -5.5999999999999939E-003    -1.1023234408602534E-010
  -4.4999999999999901E-003    -1.3042837643251204E-010
  -3.3999999999999864E-003    -1.1116352283124797E-010
  -2.2999999999999826E-003    -9.0995086465817110E-011
  -1.1999999999999927E-003    -8.0088921605714347E-011
  -9.9999999999988987E-005    -4.8979976324803332E-011
   1.0000000000000148E-003    -2.2864174095693635E-011
   2.1000000000000185E-003    -9.6922747605532322E-011
   3.2000000000000084E-003    -3.0069874368265914E-010
   4.3000000000000121E-003    -4.9913817523616899E-010
   5.4000000000000159E-003    -5.2096799096901236E-010
   6.5000000000000058E-003    -3.9101186177781244E-010
   7.6000000000000234E-003    -3.2923383463945299E-010
   8.7000000000000133E-003    -4.5424913830416358E-010
   9.8000000000000032E-003    -6.1712129850732822E-010
   1.0900000000000021E-002    -6.1388122363226216E-010
   1.2000000000000011E-002    -4.7004539149853031E-010
   1.3100000000000001E-002    -4.5185696850857937E-010
   1.4200000000000018E-002    -7.3125266952800416E-010
   1.5300000000000008E-002    -1.1557523826866145E-009
   1.6400000000000026E-002    -1.4735812570165763E-009
   1.7500000000000016E-002    -1.5715493351109444E-009
   1.8600000000000005E-002    -1.5522777507825936E-009
   1.9700000000000023E-002    -1.5510187578726686E-009
   2.0800000000000013E-002    -1.5894043858821760E-009
   2.1900000000000003E-002    -1.6428373106336380E-009
   2.3000000000000020E-002    -1.7289935039244142E-009
   2.4100000000000010E-002    -1.9261818806626252E-009
   2.5200000000000000E-002    -2.1301411745611176E-009
   2.6300000000000018E-002    -2.2640154195840978E-009
   2.7400000000000008E-002    -2.4569710710409254E-009
   2.8500000000000025E-002    -2.9182773975122700E-009
   2.9600000000000015E-002    -3.3865370507868420E-009
   3.0700000000000005E-002    -3.4767280165937109E-009
   3.1800000000000023E-002    -3.2039426667296311E-009
   3.2900000000000013E-002    -2.9863282957620640E-009
   3.4000000000000002E-002    -2.9575768500933464E-009
   3.5100000000000020E-002    -2.9180156069230634E-009
   3.6200000000000010E-002    -2.9770765852532577E-009
   3.7300000000000028E-002    -2.7616247066930555E-009
   3.8400000000000017E-002    -2.7404205571457396E-009
   3.9500000000000007E-002    -2.9260944778286557E-009
   4.0600000000000025E-002    -2.5946618187333570E-009
   4.1700000000000015E-002    -2.2890416229159882E-009
   4.2800000000000005E-002    -2.2025936630143406E-009
   4.3900000000000022E-002    -1.7753709613543833E-009
   4.5000000000000012E-002    -1.4230575606788420E-009
   4.6100000000000002E-002    -7.4717398934609491E-010
   4.7200000000000020E-002     6.4914476571864554E-011
   4.8300000000000010E-002     1.1456756654482092E-009
   4.9400000000000027E-002     2.3885995403816196E-009
   5.0500000000000017E-002     2.8160223042306143E-009
   5.1600000000000007E-002     3.6236371681042101E-009
   5.2700000000000025E-002     4.4823971201424229E-009
   5.3800000000000014E-002     5.6624682720496367E-009
   5.4900000000000004E-002     5.7940101605424843E-009
   5.6000000000000022E-002     6.5147194305836820E-009
   5.7100000000000012E-002     8.5047640041580053E-009
   5.8200000000000002E-002     9.8039851792464106E-009
   5.9300000000000019E-002     9.6475698541098609E-009
   6.0400000000000009E-002     9.9513117746141688E-009
   6.1500000000000027E-002     1.1094706486858286E-008
   6.2600000000000017E-002     1.2981683283896928E-008
   6.3700000000000007E-002     1.5123912788794769E-008
   6.4800000000000024E-002     1.5811863818271377E-008
   6.5900000000000014E-002     1.4909307566313146E-008
   6.7000000000000004E-002     1.3875757431947022E-008
   6.8100000000000022E-002     1.3076918214949274E-008
   6.9200000000000012E-002     1.2827309880947269E-008
   7.0300000000000029E-002     1.4722700392155730E-008
   7.1400000000000019E-002     1.6450222517505608E-008
   7.2500000000000009E-002     1.3717807334501231E-008
   7.3600000000000027E-002     8.3284712459885668E-009
   7.4700000000000016E-002     6.2943796841352651E-009
   7.5800000000000006E-002     8.7206508680992556E-009
   7.6900000000000024E-002     1.3626964445734302E-008
   7.8000000000000014E-002     1.2555318562590401E-008
   7.9100000000000004E-002     5.6455822239342979E-009
   8.0200000000000021E-002    -2.1874846378722168E-009
   8.1300000000000011E-002    -4.4095651574593830E-009
   8.2400000000000029E-002    -1.2778538227564695E-009
   8.3500000000000019E-002     5.4989823805584592E-010
   8.4600000000000009E-002    -2.8688533770804270E-009
   8.5700000000000026E-002    -9.1942968794000990E-009
   8.6800000000000016E-002    -1.3870945281269087E-008
   8.7900000000000006E-002    -1.4991394792218671E-008
   8.9000000000000024E-002    -1.3933133757859650E-008
   9.0100000000000013E-002    -1.2703644358680322E-008
   9.1200000000000003E-002    -1.2358379208876613E-008
   9.2300000000000021E-002    -1.4808417603262569E-008
   9.3400000000000011E-002    -2.0522195498529072E-008
   9.4500000000000028E-002    -2.6628365290548572E-008
   9.5600000000000018E-002    -2.6879773074028890E-008
   9.6700000000000008E-002    -1.8856612271633821E-008
   9.7800000000000026E-002    -1.1339693628542591E-008
   9.8900000000000016E-002    -1.4064371001154541E-008
  0.10000000000000001         -2.4603108883525238E-008
  0.10110000000000002         -3.0561714936538920E-008
  0.10220000000000001         -2.5373603662615096E-008
  0.10330000000000003         -1.2867416465667247E-008
  0.10440000000000002         -5.2353934520965595E-009
  0.10550000000000001         -9.7142223154378371E-009
  0.10660000000000003         -1.7177296030013167E-008
  0.10770000000000002         -1.9602088840997567E-008
  0.10880000000000001         -1.2821977257715389E-008
  0.10990000000000003         -5.2396931238263278E-009
  0.11100000000000002          5.3533122379434417E-010
  0.11210000000000001          4.1685259688506449E-009
  0.11320000000000002          4.1556331709102778E-009
  0.11430000000000001         -4.0481382690416012E-009
  0.11540000000000003         -8.5540179384224757E-009
  0.11650000000000002         -3.9072323154698552E-010
  0.11760000000000001          1.5398347485984232E-008
  0.11870000000000003          2.3161986106856602E-008
  0.11980000000000002          1.2905596591394897E-008
  0.12090000000000001         -1.5540437825478648E-009
  0.12200000000000003         -2.4672974774375689E-009
  0.12310000000000001          1.1230130603223643E-008
  0.12420000000000003          2.3315847030858095E-008
  0.12530000000000002          2.1380142101179445E-008
  0.12640000000000001          1.3139039189979940E-008
  0.12750000000000003          9.0634424410040992E-009
  0.12860000000000002          1.0095421387745773E-008
  0.12970000000000001          8.7901135259471630E-009
  0.13080000000000003          5.8240643419082971E-009
  0.13190000000000002          9.4022052365971831E-009
  0.13300000000000001          1.8365996723446187E-008
  0.13410000000000000          2.0021715840812249E-008
  0.13520000000000004          7.0283170394702665E-009
  0.13630000000000003         -7.3680919143725987E-009
  0.13740000000000002         -4.7843107253697781E-009
  0.13850000000000001          1.2318498221475238E-008
  0.13960000000000000          2.2127514043290830E-008
  0.14070000000000005          1.2206455402008487E-008
  0.14180000000000004         -4.7279202775030171E-009
  0.14290000000000003         -9.5554018031407395E-009
  0.14400000000000002         -1.9179864363394472E-009
  0.14510000000000001          3.7896890070499012E-009
  0.14620000000000000          1.7714641975530299E-009
  0.14730000000000004          3.1530730804085749E-010
  0.14840000000000003          3.9497844994684783E-009
  0.14950000000000002          3.0304667664182716E-009
  0.15060000000000001         -7.8194117847374400E-009
  0.15170000000000000         -1.6805481450887783E-008
  0.15280000000000005         -7.8864523800348252E-009
  0.15390000000000004          1.1759799356525491E-008
  0.15500000000000003          1.6748229469953912E-008
  0.15610000000000002         -2.0669042033460983E-009
  0.15720000000000001         -2.2953432932126816E-008
  0.15830000000000000         -1.9906432058292012E-008
  0.15940000000000004          1.9970756159892744E-009
  0.16050000000000003          1.4853141827586569E-008
  0.16160000000000002          5.9195812696088979E-009
  0.16270000000000001         -9.0557366050347810E-009
  0.16380000000000000         -1.0361309144002462E-008
  0.16490000000000005         -2.4794504227543257E-009
  0.16600000000000004         -4.4427986289896637E-010
  0.16710000000000003         -4.4875649862774480E-009
  0.16820000000000002         -1.8102622734161855E-009
  0.16930000000000001          7.6394002235247171E-009
  0.17040000000000000          7.3378498832710193E-009
  0.17150000000000004         -8.3499305247869415E-009
  0.17260000000000003         -2.0231496478118061E-008
  0.17370000000000002         -8.5108791125776406E-009
  0.17480000000000001          1.5024188115830839E-008
  0.17590000000000000          2.0226927688327123E-008
  0.17700000000000005         -5.0616555391513884E-010
  0.17810000000000004         -1.9895443514883482E-008
  0.17920000000000003         -1.3319220393270825E-008
  0.18030000000000002          7.9022663967975859E-009
  0.18140000000000001          1.4665862302365440E-008
  0.18250000000000000          1.4084610144848853E-009
  0.18360000000000004         -9.7430703505096972E-009
  0.18470000000000003         -4.0302654547019756E-009
  0.18580000000000002          5.4771964741462398E-009
  0.18690000000000001          2.1974184694073529E-009
  0.18800000000000000         -6.5821765815599065E-009
  0.18910000000000005         -2.8283491104730274E-009
  0.19020000000000004          1.0251030246877235E-008
  0.19130000000000003          1.0951985096596673E-008
  0.19240000000000002         -6.4682219580447509E-009
  0.19350000000000001         -1.8441383531353495E-008
  0.19460000000000005         -5.5623670114357537E-009
  0.19570000000000004          1.6664236213159711E-008
  0.19680000000000003          1.7657619366673316E-008
  0.19790000000000002         -4.0574681392513412E-009
  0.19900000000000001         -1.8524964673360955E-008
  0.20010000000000000         -7.3283072943297611E-009
  0.20120000000000005          1.1200619098872266E-008
  0.20230000000000004          1.0664879646071768E-008
  0.20340000000000003         -5.2551656359867138E-009
  0.20450000000000002         -1.0898074442877714E-008
  0.20560000000000000          1.0047328524720456E-009
  0.20670000000000005          1.0022932706021948E-008
  0.20780000000000004          1.7836309096352920E-009
  0.20890000000000003         -9.1414982250626053E-009
