 -0.12000000000000000          0.0000000000000000     
 -0.11889999999999999          0.0000000000000000     
 -0.11780000000000000          0.0000000000000000     
 -0.11670000000000000          0.0000000000000000     
 -0.11559999999999999          0.0000000000000000     
 -0.11449999999999999          0.0000000000000000     
 -0.11340000000000000         -5.0400000145556234E-011
 -0.11230000000000000          6.1748765822766671E-011
 -0.11119999999999999          4.5327178122001044E-010
 -0.11009999999999999         -3.4988067998398265E-010
 -0.10900000000000000         -1.9119215100005249E-009
 -0.10790000000000000          1.7202703705976319E-009
 -0.10679999999999999          4.5018295757870419E-009
 -0.10569999999999999         -1.5300400946216541E-008
 -0.10460000000000000         -2.0413283507991764E-008
 -0.10349999999999999          8.7564551165542071E-008
 -0.10239999999999999          1.8019838421423628E-007
 -0.10130000000000000         -1.8741263829724630E-007
 -0.10020000000000000         -8.7553286221009330E-007
  -9.9099999999999994E-002    -4.2462787064323493E-007
  -9.7999999999999990E-002     1.9266888102720259E-006
  -9.6899999999999986E-002     3.2367904623242794E-006
  -9.5799999999999996E-002    -3.3880962746479781E-007
  -9.4699999999999993E-002    -5.8439941312826704E-006
  -9.3599999999999989E-002    -5.2812611102126539E-006
  -9.2499999999999999E-002    -1.9170417431269016E-007
  -9.1399999999999995E-002    -1.8451642063155305E-006
  -9.0299999999999991E-002    -2.6707359666033881E-006
  -8.9200000000000002E-002     2.8631571694859304E-005
  -8.8099999999999984E-002     7.8958313679322600E-005
  -8.6999999999999994E-002     4.2796666093636304E-005
  -8.5899999999999990E-002    -1.4914682833477855E-004
  -8.4799999999999986E-002    -3.2458419445902109E-004
  -8.3699999999999997E-002    -1.6476195014547557E-004
  -8.2599999999999993E-002     3.3557298593223095E-004
  -8.1499999999999989E-002     6.7431607749313116E-004
  -8.0399999999999999E-002     4.2978383135050535E-004
  -7.9299999999999995E-002    -8.2553611719049513E-005
  -7.8199999999999992E-002    -2.9874176834709942E-004
  -7.7100000000000002E-002    -5.4656731663271785E-004
  -7.5999999999999984E-002    -1.6551482258364558E-003
  -7.4899999999999994E-002    -2.7830672916024923E-003
  -7.3799999999999991E-002    -1.0521264048293233E-003
  -7.2699999999999987E-002     4.4935699552297592E-003
  -7.1599999999999997E-002     9.1465106233954430E-003
  -7.0499999999999993E-002     6.3053169287741184E-003
  -6.9399999999999989E-002    -3.4620398655533791E-003
  -6.8300000000000000E-002    -1.0884701274335384E-002
  -6.7199999999999996E-002    -9.4780465587973595E-003
  -6.6099999999999992E-002    -5.2102906629443169E-003
  -6.5000000000000002E-002    -7.1801873855292797E-003
  -6.3899999999999985E-002    -9.6179470419883728E-003
  -6.2799999999999995E-002     4.5374939218163490E-003
  -6.1699999999999991E-002     3.5034619271755219E-002
  -6.0599999999999994E-002     5.1643345504999161E-002
  -5.9499999999999990E-002     2.7876798063516617E-002
  -5.8399999999999994E-002    -1.7235627397894859E-002
  -5.7299999999999990E-002    -3.6459442228078842E-002
  -5.6199999999999986E-002    -2.1838970482349396E-002
  -5.5099999999999996E-002    -2.5898678228259087E-002
  -5.3999999999999992E-002    -8.5925057530403137E-002
  -5.2899999999999989E-002   -0.14581078290939331     
  -5.1799999999999985E-002   -0.10320636630058289     
  -5.0699999999999995E-002     5.5662270635366440E-002
  -4.9599999999999991E-002    0.21879266202449799     
  -4.8499999999999988E-002    0.28160521388053894     
  -4.7399999999999998E-002    0.27288818359375000     
  -4.6299999999999994E-002    0.27942329645156860     
  -4.5199999999999990E-002    0.26516076922416687     
  -4.4099999999999986E-002     6.9871291518211365E-002
  -4.2999999999999997E-002   -0.36275354027748108     
  -4.1899999999999993E-002   -0.83789956569671631     
  -4.0799999999999989E-002    -1.0859022140502930     
  -3.9699999999999985E-002    -1.0451526641845703     
  -3.8599999999999995E-002   -0.84874755144119263     
  -3.7499999999999992E-002   -0.52858877182006836     
  -3.6399999999999988E-002    0.10935884714126587     
  -3.5299999999999984E-002     1.2088271379470825     
  -3.4199999999999994E-002     2.5600702762603760     
  -3.3099999999999991E-002     3.7126266956329346     
  -3.1999999999999987E-002     4.3308019638061523     
  -3.0899999999999997E-002     4.2512321472167969     
  -2.9799999999999993E-002     3.1980473995208740     
  -2.8699999999999989E-002    0.71903389692306519     
  -2.7599999999999986E-002    -3.4011368751525879     
  -2.6499999999999996E-002    -8.8299398422241211     
  -2.5399999999999992E-002    -15.053041458129883     
  -2.4299999999999988E-002    -21.975696563720703     
  -2.3199999999999985E-002    -29.821853637695312     
  -2.2099999999999995E-002    -38.386592864990234     
  -2.0999999999999991E-002    -46.829204559326172     
  -1.9899999999999987E-002    -54.606662750244141     
  -1.8799999999999983E-002    -62.441410064697266     
  -1.7699999999999994E-002    -71.946060180664062     
  -1.6599999999999990E-002    -84.317092895507812     
  -1.5499999999999986E-002    -99.914695739746094     
  -1.4399999999999996E-002    -119.32995605468750     
  -1.3299999999999992E-002    -144.33215332031250     
  -1.2199999999999989E-002    -177.18052673339844     
  -1.1099999999999985E-002    -219.21078491210938     
  -9.9999999999999950E-003    -270.78393554687500     
  -8.8999999999999913E-003    -332.75006103515625     
  -7.7999999999999875E-003    -407.32730102539062     
  -6.6999999999999837E-003    -497.22460937500000     
  -5.5999999999999939E-003    -604.44805908203125     
  -4.4999999999999901E-003    -730.77838134765625     
  -3.3999999999999864E-003    -879.16857910156250     
  -2.2999999999999826E-003    -1053.8858642578125     
  -1.1999999999999927E-003    -1259.2760009765625     
  -9.9999999999988987E-005    -1499.2552490234375     
   1.0000000000000148E-003    -1778.5831298828125     
   2.1000000000000185E-003    -2103.9887695312500     
   3.2000000000000084E-003    -2482.9201660156250     
   4.3000000000000121E-003    -2921.6318359375000     
   5.4000000000000159E-003    -3425.7934570312500     
   6.5000000000000058E-003    -4003.3515625000000     
   7.6000000000000234E-003    -4665.0424804687500     
   8.7000000000000133E-003    -5421.6933593750000     
   9.8000000000000032E-003    -6281.0332031250000     
   1.0900000000000021E-002    -7249.2841796875000     
   1.2000000000000011E-002    -8334.8916015625000     
   1.3100000000000001E-002    -9549.9433593750000     
   1.4200000000000018E-002    -10906.492187500000     
   1.5300000000000008E-002    -12413.626953125000     
   1.6400000000000026E-002    -14078.063476562500     
   1.7500000000000016E-002    -15906.929687500000     
   1.8600000000000005E-002    -17907.607421875000     
   1.9700000000000023E-002    -20085.507812500000     
   2.0800000000000013E-002    -22442.480468750000     
   2.1900000000000003E-002    -24976.632812500000     
   2.3000000000000020E-002    -27685.701171875000     
   2.4100000000000010E-002    -30563.037109375000     
   2.5200000000000000E-002    -33598.113281250000     
   2.6300000000000018E-002    -36772.398437500000     
   2.7400000000000008E-002    -40066.210937500000     
   2.8500000000000025E-002    -43456.304687500000     
   2.9600000000000015E-002    -46913.382812500000     
   3.0700000000000005E-002    -50396.144531250000     
   3.1800000000000023E-002    -53858.312500000000     
   3.2900000000000013E-002    -57245.003906250000     
   3.4000000000000002E-002    -60495.148437500000     
   3.5100000000000020E-002    -63544.722656250000     
   3.6200000000000010E-002    -66318.054687500000     
   3.7300000000000028E-002    -68731.437500000000     
   3.8400000000000017E-002    -70698.421875000000     
   3.9500000000000007E-002    -72131.312500000000     
   4.0600000000000025E-002    -72933.898437500000     
   4.1700000000000015E-002    -73005.890625000000     
   4.2800000000000005E-002    -72244.414062500000     
   4.3900000000000022E-002    -70549.789062500000     
   4.5000000000000012E-002    -67831.570312500000     
   4.6100000000000002E-002    -63994.175781250000     
   4.7200000000000020E-002    -58938.265625000000     
   4.8300000000000010E-002    -52584.007812500000     
   4.9400000000000027E-002    -44876.976562500000     
   5.0500000000000017E-002    -35763.871093750000     
   5.1600000000000007E-002    -25198.976562500000     
   5.2700000000000025E-002    -13170.302734375000     
   5.3800000000000014E-002     304.95455932617188     
   5.4900000000000004E-002     15201.447265625000     
   5.6000000000000022E-002     31454.902343750000     
   5.7100000000000012E-002     49007.269531250000     
   5.8200000000000002E-002     67716.203125000000     
   5.9300000000000019E-002     87403.820312500000     
   6.0400000000000009E-002     107938.97656250000     
   6.1500000000000027E-002     129131.78906250000     
   6.2600000000000017E-002     150741.71875000000     
   6.3700000000000007E-002     172448.01562500000     
   6.4800000000000024E-002     193982.09375000000     
   6.5900000000000014E-002     215074.06250000000     
   6.7000000000000004E-002     235408.14062500000     
   6.8100000000000022E-002     254627.89062500000     
   6.9200000000000012E-002     272365.50000000000     
   7.0300000000000029E-002     288280.25000000000     
   7.1400000000000019E-002     302065.56250000000     
   7.2500000000000009E-002     313364.12500000000     
   7.3600000000000027E-002     321879.87500000000     
   7.4700000000000016E-002     327331.03125000000     
   7.5800000000000006E-002     329489.53125000000     
   7.6900000000000024E-002     328123.75000000000     
   7.8000000000000014E-002     323052.43750000000     
   7.9100000000000004E-002     314135.71875000000     
   8.0200000000000021E-002     301340.12500000000     
   8.1300000000000011E-002     284696.53125000000     
   8.2400000000000029E-002     264276.65625000000     
   8.3500000000000019E-002     240162.75000000000     
   8.4600000000000009E-002     212493.46875000000     
   8.5700000000000026E-002     181521.84375000000     
   8.6800000000000016E-002     147597.32812500000     
   8.7900000000000006E-002     111117.28906250000     
   8.9000000000000024E-002     72485.945312500000     
   9.0100000000000013E-002     32126.480468750000     
   9.1200000000000003E-002    -9492.4033203125000     
   9.2300000000000021E-002    -51831.410156250000     
   9.3400000000000011E-002    -94331.554687500000     
   9.4500000000000028E-002    -136412.10937500000     
   9.5600000000000018E-002    -177493.50000000000     
   9.6700000000000008E-002    -217023.53125000000     
   9.7800000000000026E-002    -254504.76562500000     
   9.8900000000000016E-002    -289472.81250000000     
  0.10000000000000001         -321468.71875000000     
  0.10110000000000002         -349986.65625000000     
  0.10220000000000001         -374642.84375000000     
  0.10330000000000003         -395097.09375000000     
  0.10440000000000002         -411197.84375000000     
  0.10550000000000001         -422841.43750000000     
  0.10660000000000003         -429876.90625000000     
  0.10770000000000002         -432216.53125000000     
  0.10880000000000001         -429865.25000000000     
  0.10990000000000003         -422954.25000000000     
  0.11100000000000002         -411711.15625000000     
  0.11210000000000001         -396394.87500000000     
  0.11320000000000002         -377304.81250000000     
  0.11430000000000001         -354801.28125000000     
  0.11540000000000003         -329260.25000000000     
  0.11650000000000002         -301032.90625000000     
  0.11760000000000001         -270549.90625000000     
  0.11870000000000003         -238329.95312500000     
  0.11980000000000002         -204987.39062500000     
  0.12090000000000001         -171042.04687500000     
  0.12200000000000003         -136756.10937500000     
  0.12310000000000001         -102486.90625000000     
  0.12420000000000003         -68756.328125000000     
  0.12530000000000002         -36127.441406250000     
  0.12640000000000001         -4960.5185546875000     
  0.12750000000000003          24535.544921875000     
  0.12860000000000002          52169.746093750000     
  0.12970000000000001          77613.929687500000     
  0.13080000000000003          100612.36718750000     
  0.13190000000000002          121085.62500000000     
  0.13300000000000001          139011.75000000000     
  0.13410000000000000          154276.17187500000     
  0.13520000000000004          166767.20312500000     
  0.13630000000000003          176561.78125000000     
  0.13740000000000002          183893.81250000000     
  0.13850000000000001          188912.04687500000     
  0.13960000000000000          191581.39062500000     
  0.14070000000000005          191906.82812500000     
  0.14180000000000004          190148.95312500000     
  0.14290000000000003          186711.39062500000     
  0.14400000000000002          181830.20312500000     
  0.14510000000000001          175533.31250000000     
  0.14620000000000000          167900.03125000000     
  0.14730000000000004          159226.32812500000     
  0.14840000000000003          149868.71875000000     
  0.14950000000000002          139985.01562500000     
  0.15060000000000001          129630.25000000000     
  0.15170000000000000          118965.37500000000     
  0.15280000000000005          108300.46093750000     
  0.15390000000000004          97817.375000000000     
  0.15500000000000003          87462.187500000000     
  0.15610000000000002          77202.171875000000     
  0.15720000000000001          67268.515625000000     
  0.15830000000000000          57992.250000000000     
  0.15940000000000004          49427.500000000000     
  0.16050000000000003          41351.160156250000     
  0.16160000000000002          33626.996093750000     
  0.16270000000000001          26433.775390625000     
  0.16380000000000000          20025.203125000000     
  0.16490000000000005          14402.298828125000     
  0.16600000000000004          9339.0703125000000     
  0.16710000000000003          4729.6528320312500     
  0.16820000000000002          699.55670166015625     
  0.16930000000000001         -2681.1955566406250     
  0.17040000000000000         -5577.9243164062500     
  0.17150000000000004         -8159.7407226562500     
  0.17260000000000003         -10337.860351562500     
  0.17370000000000002         -11910.618164062500     
  0.17480000000000001         -12951.218750000000     
  0.17590000000000000         -13812.185546875000     
  0.17700000000000005         -14691.779296875000     
  0.17810000000000004         -15375.791992187500     
  0.17920000000000003         -15573.559570312500     
  0.18030000000000002         -15359.808593750000     
  0.18140000000000001         -15100.201171875000     
  0.18250000000000000         -14970.340820312500     
  0.18360000000000004         -14777.848632812500     
  0.18470000000000003         -14324.730468750000     
  0.18580000000000002         -13721.794921875000     
  0.18690000000000001         -13194.050781250000     
  0.18800000000000000         -12721.965820312500     
  0.18910000000000005         -12096.147460937500     
  0.19020000000000004         -11307.250976562500     
  0.19130000000000003         -10625.562500000000     
  0.19240000000000002         -10205.581054687500     
  0.19350000000000001         -9818.8085937500000     
  0.19460000000000005         -9169.5488281250000     
  0.19570000000000004         -8342.3955078125000     
  0.19680000000000003         -7704.5932617187500     
  0.19790000000000002         -7384.5185546875000     
  0.19900000000000001         -7096.5229492187500     
  0.20010000000000000         -6572.9726562500000     
  0.20120000000000005         -5950.0668945312500     
  0.20230000000000004         -5533.2084960937500     
  0.20340000000000003         -5322.6572265625000     
  0.20450000000000002         -5027.3725585937500     
  0.20560000000000000         -4537.6630859375000     
  0.20670000000000005         -4103.2158203125000     
  0.20780000000000004         -3941.3112792968750     
  0.20890000000000003         -3885.3769531250000     
