 -0.12000000000000000          0.0000000000000000     
 -0.11889999999999999          0.0000000000000000     
 -0.11780000000000000          0.0000000000000000     
 -0.11670000000000000          0.0000000000000000     
 -0.11559999999999999          0.0000000000000000     
 -0.11449999999999999         -8.5705659962683617E-014
 -0.11340000000000000          1.3305605532296094E-013
 -0.11230000000000000          6.7464821706594846E-013
 -0.11119999999999999         -7.3736063912685501E-013
 -0.11009999999999999         -2.7093988944765224E-012
 -0.10900000000000000          2.6490970875259201E-012
 -0.10790000000000000          5.8820296723605114E-012
 -0.10679999999999999         -1.6333125824052885E-011
 -0.10569999999999999         -1.7093271242885066E-011
 -0.10460000000000000          9.0847600275889562E-011
 -0.10349999999999999          1.4495259159641449E-010
 -0.10239999999999999         -2.3322366260458693E-010
 -0.10130000000000000         -7.5218836714796566E-010
 -0.10020000000000000         -1.2709799879218053E-010
  -9.9099999999999994E-002     1.8372029453317396E-009
  -9.7999999999999990E-002     2.3119615111255598E-009
  -9.6899999999999986E-002    -1.1700904689604386E-009
  -9.5799999999999996E-002    -5.0252855210430880E-009
  -9.4699999999999993E-002    -3.0710538556633082E-009
  -9.3599999999999989E-002     2.0245687348818819E-009
  -9.2499999999999999E-002     8.9698320993036873E-010
  -9.1399999999999995E-002    -1.5437997546996485E-009
  -9.0299999999999991E-002     1.4648225743485455E-008
  -8.9200000000000002E-002     4.0671771728284511E-008
  -8.8099999999999984E-002     1.7324870427160022E-008
  -8.6999999999999994E-002    -8.3621024771218799E-008
  -8.5899999999999990E-002    -1.5872319636400789E-007
  -8.4799999999999986E-002    -5.4668763738163761E-008
  -8.3699999999999997E-002     1.8970767712289671E-007
  -8.2599999999999993E-002     3.0076938628553762E-007
  -8.1499999999999989E-002     1.1704637614684543E-007
  -8.0399999999999999E-002    -1.2511672764503601E-007
  -7.9299999999999995E-002    -1.2124142756420042E-007
  -7.8199999999999992E-002    -6.8302782096907322E-008
  -7.7100000000000002E-002    -4.3635415636344987E-007
  -7.5999999999999984E-002    -9.6957251116691623E-007
  -7.4899999999999994E-002    -5.4321066045304178E-007
  -7.3799999999999991E-002     1.2404979088387336E-006
  -7.2699999999999987E-002     2.7264065920462599E-006
  -7.1599999999999997E-002     1.7777095990823000E-006
  -7.0499999999999993E-002    -1.0722415026975796E-006
  -6.9399999999999989E-002    -2.5981842100009089E-006
  -6.8300000000000000E-002    -1.1921728173547308E-006
  -6.7199999999999996E-002     2.7667041990753205E-007
  -6.6099999999999992E-002    -1.6512542515556561E-006
  -6.5000000000000002E-002    -4.8865595090319403E-006
  -6.3899999999999985E-002    -3.2365051083615981E-006
  -6.2799999999999995E-002     4.4964572225580923E-006
  -6.1699999999999991E-002     1.0658513019734528E-005
  -6.0599999999999994E-002     8.1065090853371657E-006
  -5.9499999999999990E-002     1.0339150549043552E-006
  -5.8399999999999994E-002    -6.1061342648827122E-008
  -5.7299999999999990E-002     5.1251563490950502E-006
  -5.6199999999999986E-002     3.1513563953922130E-006
  -5.5099999999999996E-002    -1.4437118807109073E-005
  -5.3999999999999992E-002    -3.4609773138072342E-005
  -5.2899999999999989E-002    -3.5105174902128056E-005
  -5.1799999999999985E-002    -1.2448014786059503E-005
  -5.0699999999999995E-002     1.3307172594068106E-005
  -4.9599999999999991E-002     2.5746272513060831E-005
  -4.8499999999999988E-002     3.2649684726493433E-005
  -4.7399999999999998E-002     4.8958499974105507E-005
  -4.6299999999999994E-002     6.7354936618357897E-005
  -4.5199999999999990E-002     6.2841427279636264E-005
  -4.4099999999999986E-002     2.7295644031255506E-005
  -4.2999999999999997E-002    -1.7906020730151795E-005
  -4.1899999999999993E-002    -5.1405939302640036E-005
  -4.0799999999999989E-002    -7.7285054430831224E-005
  -3.9699999999999985E-002    -1.0477822070242837E-004
  -3.8599999999999995E-002    -1.1544857989065349E-004
  -3.7499999999999992E-002    -7.7487718954216689E-005
  -3.6399999999999988E-002     6.4853393269004300E-006
  -3.5299999999999984E-002     9.3498449132312089E-005
  -3.4199999999999994E-002     1.5324814012274146E-004
  -3.3099999999999991E-002     1.9918647012673318E-004
  -3.1999999999999987E-002     2.4084672622848302E-004
  -3.0899999999999997E-002     2.2890484251547605E-004
  -2.9799999999999993E-002     9.5431241788901389E-005
  -2.8699999999999989E-002    -1.4830038708169013E-004
  -2.7599999999999986E-002    -4.0305906441062689E-004
  -2.6499999999999996E-002    -5.9682258870452642E-004
  -2.5399999999999992E-002    -7.6693441951647401E-004
  -2.4299999999999988E-002    -9.7832048777490854E-004
  -2.3199999999999985E-002    -1.1842210078611970E-003
  -2.2099999999999995E-002    -1.2440159916877747E-003
  -2.0999999999999991E-002    -1.1020490201190114E-003
  -1.9899999999999987E-002    -8.8953378144651651E-004
  -1.8799999999999983E-002    -8.0197054194286466E-004
  -1.7699999999999994E-002    -9.1457786038517952E-004
  -1.6599999999999990E-002    -1.1780867353081703E-003
  -1.5499999999999986E-002    -1.5718508511781693E-003
  -1.4399999999999996E-002    -2.1662341896444559E-003
  -1.3299999999999992E-002    -3.0189601238816977E-003
  -1.2199999999999989E-002    -4.0832459926605225E-003
  -1.1099999999999985E-002    -5.2816104143857956E-003
  -9.9999999999999950E-003    -6.6105918958783150E-003
  -8.8999999999999913E-003    -8.0984141677618027E-003
  -7.7999999999999875E-003    -9.6960999071598053E-003
  -6.6999999999999837E-003    -1.1337361298501492E-002
  -5.5999999999999939E-003    -1.3132329098880291E-002
  -4.4999999999999901E-003    -1.5377241186797619E-002
  -3.3999999999999864E-003    -1.8275443464517593E-002
  -2.2999999999999826E-003    -2.1735941991209984E-002
  -1.1999999999999927E-003    -2.5582045316696167E-002
  -9.9999999999988987E-005    -2.9899343848228455E-002
   1.0000000000000148E-003    -3.5020954906940460E-002
   2.1000000000000185E-003    -4.1145343333482742E-002
   3.2000000000000084E-003    -4.8093643039464951E-002
   4.3000000000000121E-003    -5.5603951215744019E-002
   5.4000000000000159E-003    -6.3763201236724854E-002
   6.5000000000000058E-003    -7.2938986122608185E-002
   7.6000000000000234E-003    -8.3351373672485352E-002
   8.7000000000000133E-003    -9.4903782010078430E-002
   9.8000000000000032E-003   -0.10738296061754227     
   1.0900000000000021E-002   -0.12084595113992691     
   1.2000000000000011E-002   -0.13553413748741150     
   1.3100000000000001E-002   -0.15153057873249054     
   1.4200000000000018E-002   -0.16878847777843475     
   1.5300000000000008E-002   -0.18721848726272583     
   1.6400000000000026E-002   -0.20679298043251038     
   1.7500000000000016E-002   -0.22724312543869019     
   1.8600000000000005E-002   -0.24817018210887909     
   1.9700000000000023E-002   -0.26923814415931702     
   2.0800000000000013E-002   -0.29034221172332764     
   2.1900000000000003E-002   -0.31157410144805908     
   2.3000000000000020E-002   -0.33254668116569519     
   2.4100000000000010E-002   -0.35211828351020813     
   2.5200000000000000E-002   -0.36965295672416687     
   2.6300000000000018E-002   -0.38519847393035889     
   2.7400000000000008E-002   -0.39895176887512207     
   2.8500000000000025E-002   -0.41003412008285522     
   2.9600000000000015E-002   -0.41706210374832153     
   3.0700000000000005E-002   -0.41880410909652710     
   3.1800000000000023E-002   -0.41466802358627319     
   3.2900000000000013E-002   -0.40410724282264709     
   3.4000000000000002E-002   -0.38640868663787842     
   3.5100000000000020E-002   -0.36010584235191345     
   3.6200000000000010E-002   -0.32478287816047668     
   3.7300000000000028E-002   -0.28047567605972290     
   3.8400000000000017E-002   -0.22586297988891602     
   3.9500000000000007E-002   -0.16043823957443237     
   4.0600000000000025E-002    -8.3343684673309326E-002
   4.1700000000000015E-002     4.4968798756599426E-003
   4.2800000000000005E-002    0.10417497158050537     
   4.3900000000000022E-002    0.21533063054084778     
   4.5000000000000012E-002    0.33758118748664856     
   4.6100000000000002E-002    0.47047847509384155     
   4.7200000000000020E-002    0.61300599575042725     
   4.8300000000000010E-002    0.76584655046463013     
   4.9400000000000027E-002    0.92595160007476807     
   5.0500000000000017E-002     1.0906444787979126     
   5.1600000000000007E-002     1.2578516006469727     
   5.2700000000000025E-002     1.4253679513931274     
   5.3800000000000014E-002     1.5927315950393677     
   5.4900000000000004E-002     1.7575796842575073     
   5.6000000000000022E-002     1.9151757955551147     
   5.7100000000000012E-002     2.0595653057098389     
   5.8200000000000002E-002     2.1894223690032959     
   5.9300000000000019E-002     2.3020579814910889     
   6.0400000000000009E-002     2.3946108818054199     
   6.1500000000000027E-002     2.4646837711334229     
   6.2600000000000017E-002     2.5068316459655762     
   6.3700000000000007E-002     2.5186941623687744     
   6.4800000000000024E-002     2.4963393211364746     
   6.5900000000000014E-002     2.4367885589599609     
   6.7000000000000004E-002     2.3397855758666992     
   6.8100000000000022E-002     2.2074103355407715     
   6.9200000000000012E-002     2.0391683578491211     
   7.0300000000000029E-002     1.8305925130844116     
   7.1400000000000019E-002     1.5779207944869995     
   7.2500000000000009E-002     1.2880554199218750     
   7.3600000000000027E-002    0.96538573503494263     
   7.4700000000000016E-002    0.61754792928695679     
   7.5800000000000006E-002    0.24146021902561188     
   7.6900000000000024E-002   -0.16159966588020325     
   7.8000000000000014E-002   -0.58533424139022827     
   7.9100000000000004E-002    -1.0210571289062500     
   8.0200000000000021E-002    -1.4606448411941528     
   8.1300000000000011E-002    -1.8976112604141235     
   8.2400000000000029E-002    -2.3271651268005371     
   8.3500000000000019E-002    -2.7432594299316406     
   8.4600000000000009E-002    -3.1396884918212891     
   8.5700000000000026E-002    -3.5087926387786865     
   8.6800000000000016E-002    -3.8427126407623291     
   8.7900000000000006E-002    -4.1319799423217773     
   8.9000000000000024E-002    -4.3695635795593262     
   9.0100000000000013E-002    -4.5569076538085938     
   9.1200000000000003E-002    -4.6951284408569336     
   9.2300000000000021E-002    -4.7786235809326172     
   9.3400000000000011E-002    -4.7960410118103027     
   9.4500000000000028E-002    -4.7412514686584473     
   9.5600000000000018E-002    -4.6218142509460449     
   9.6700000000000008E-002    -4.4470562934875488     
   9.7800000000000026E-002    -4.2218809127807617     
   9.8900000000000016E-002    -3.9432234764099121     
  0.10000000000000001         -3.6027898788452148     
  0.10110000000000002         -3.2071988582611084     
  0.10220000000000001         -2.7729580402374268     
  0.10330000000000003         -2.3125221729278564     
  0.10440000000000002         -1.8318117856979370     
  0.10550000000000001         -1.3292157649993896     
  0.10660000000000003        -0.81088471412658691     
  0.10770000000000002        -0.28814321756362915     
  0.10880000000000001         0.22908769547939301     
  0.10990000000000003         0.73584216833114624     
  0.11100000000000002          1.2167199850082397     
  0.11210000000000001          1.6638709306716919     
  0.11320000000000002          2.0765330791473389     
  0.11430000000000001          2.4563989639282227     
  0.11540000000000003          2.8059453964233398     
  0.11650000000000002          3.1062395572662354     
  0.11760000000000001          3.3421397209167480     
  0.11870000000000003          3.5146536827087402     
  0.11980000000000002          3.6439297199249268     
  0.12090000000000001          3.7352285385131836     
  0.12200000000000003          3.7757425308227539     
  0.12310000000000001          3.7553930282592773     
  0.12420000000000003          3.6809806823730469     
  0.12530000000000002          3.5693030357360840     
  0.12640000000000001          3.4241266250610352     
  0.12750000000000003          3.2412371635437012     
  0.12860000000000002          3.0223801136016846     
  0.12970000000000001          2.7814764976501465     
  0.13080000000000003          2.5263557434082031     
  0.13190000000000002          2.2538132667541504     
  0.13300000000000001          1.9627579450607300     
  0.13410000000000000          1.6635262966156006     
  0.13520000000000004          1.3734246492385864     
  0.13630000000000003          1.0965602397918701     
  0.13740000000000002         0.82270377874374390     
  0.13850000000000001         0.54798507690429688     
  0.13960000000000000         0.28749254345893860     
  0.14070000000000005          5.6982878595590591E-002
  0.14180000000000004        -0.14615888893604279     
  0.14290000000000003        -0.33907905220985413     
  0.14400000000000002        -0.52497875690460205     
  0.14510000000000001        -0.68603914976119995     
  0.14620000000000000        -0.80741989612579346     
  0.14730000000000004        -0.89841800928115845     
  0.14840000000000003        -0.98029452562332153     
  0.14950000000000002         -1.0559959411621094     
  0.15060000000000001         -1.1088402271270752     
  0.15170000000000000         -1.1266660690307617     
  0.15280000000000005         -1.1225459575653076     
  0.15390000000000004         -1.1166539192199707     
  0.15500000000000003         -1.1064623594284058     
  0.15610000000000002         -1.0785923004150391     
  0.15720000000000001         -1.0303286314010620     
  0.15830000000000000        -0.97816151380538940     
  0.15940000000000004        -0.93009883165359497     
  0.16050000000000003        -0.87642300128936768     
  0.16160000000000002        -0.80579251050949097     
  0.16270000000000001        -0.72844767570495605     
  0.16380000000000000        -0.66420125961303711     
  0.16490000000000005        -0.61282831430435181     
  0.16600000000000004        -0.55451536178588867     
  0.16710000000000003        -0.47937381267547607     
  0.16820000000000002        -0.40628814697265625     
  0.16930000000000001        -0.35512658953666687     
  0.17040000000000000        -0.31849142909049988     
  0.17150000000000004        -0.27220886945724487     
  0.17260000000000003        -0.21163593232631683     
  0.17370000000000002        -0.15889322757720947     
  0.17480000000000001        -0.13084965944290161     
  0.17590000000000000        -0.11347760260105133     
  0.17700000000000005         -8.2745037972927094E-002
  0.17810000000000004         -4.0366861969232559E-002
  0.17920000000000003         -1.0294766165316105E-002
  0.18030000000000002         -2.8134163003414869E-003
  0.18140000000000001          3.4493044950067997E-004
  0.18250000000000000          1.8199967220425606E-002
  0.18360000000000004          4.2436718940734863E-002
  0.18470000000000003          5.1636714488267899E-002
  0.18580000000000002          4.6391591429710388E-002
  0.18690000000000001          4.7548364847898483E-002
  0.18800000000000000          6.2374353408813477E-002
  0.18910000000000005          7.2528228163719177E-002
  0.19020000000000004          6.3010029494762421E-002
  0.19130000000000003          4.7973547130823135E-002
  0.19240000000000002          5.1387093961238861E-002
  0.19350000000000001          7.0087969303131104E-002
  0.19460000000000005          7.5876623392105103E-002
  0.19570000000000004          5.7262137532234192E-002
  0.19680000000000003          3.7142511457204819E-002
  0.19790000000000002          4.0309093892574310E-002
  0.19900000000000001          5.7425495237112045E-002
  0.20010000000000000          5.9322293847799301E-002
  0.20120000000000005          4.0935888886451721E-002
  0.20230000000000004          2.7113279327750206E-002
  0.20340000000000003          3.4408092498779297E-002
  0.20450000000000002          4.6222582459449768E-002
  0.20560000000000000          3.9218276739120483E-002
  0.20670000000000005          2.0554380491375923E-002
  0.20780000000000004          1.6265209764242172E-002
  0.20890000000000003          3.0701372772455215E-002
