 -0.12000000000000000          0.0000000000000000     
 -0.11889999999999999         -2.3804462398402393E-004
 -0.11780000000000000          1.6688910545781255E-004
 -0.11670000000000000          6.6972925560548902E-004
 -0.11559999999999999         -1.1048441228922457E-004
 -0.11449999999999999         -1.1875820346176624E-003
 -0.11340000000000000         -2.8042777557857335E-004
 -0.11230000000000000          1.4356314204633236E-003
 -0.11119999999999999          3.2772289705462754E-004
 -0.11009999999999999         -2.5303368456661701E-003
 -0.10900000000000000         -1.1085484875366092E-003
 -0.10790000000000000          5.0206370651721954E-003
 -0.10679999999999999          6.4050019718706608E-003
 -0.10569999999999999         -2.7467785403132439E-003
 -0.10460000000000000         -1.1950997635722160E-002
 -0.10349999999999999         -6.5400376915931702E-003
 -0.10239999999999999          8.9880032464861870E-003
 -0.10130000000000000          1.3437523506581783E-002
 -0.10020000000000000         -8.5764285176992416E-004
  -9.9099999999999994E-002    -1.4127869158983231E-002
  -9.7999999999999990E-002    -6.5306206233799458E-003
  -9.6899999999999986E-002     1.1461493559181690E-002
  -9.5799999999999996E-002     1.3229986652731895E-002
  -9.4699999999999993E-002    -4.0341722778975964E-003
  -9.3599999999999989E-002    -1.4630985446274281E-002
  -9.2499999999999999E-002    -3.7689185701310635E-003
  -9.1399999999999995E-002     9.6112033352255821E-003
  -9.0299999999999991E-002     3.2291060779243708E-003
  -8.9200000000000002E-002    -1.2479706667363644E-002
  -8.8099999999999984E-002    -1.1040925048291683E-002
  -8.6999999999999994E-002     6.2281135469675064E-003
  -8.5899999999999990E-002     1.0888762772083282E-002
  -8.4799999999999986E-002    -5.9591084718704224E-003
  -8.3699999999999997E-002    -1.6754372045397758E-002
  -8.2599999999999993E-002    -1.7528380267322063E-003
  -8.1499999999999989E-002     1.5200036577880383E-002
  -8.0399999999999999E-002     1.9370912341400981E-003
  -7.9299999999999995E-002    -2.7117675170302391E-002
  -7.8199999999999992E-002    -2.7601929381489754E-002
  -7.7100000000000002E-002     4.4783772900700569E-003
  -7.5999999999999984E-002     1.9041901454329491E-002
  -7.4899999999999994E-002    -1.4635790139436722E-002
  -7.3799999999999991E-002    -5.5818233639001846E-002
  -7.2699999999999987E-002    -4.7620527446269989E-002
  -7.1599999999999997E-002    -2.9558916576206684E-003
  -7.0499999999999993E-002     1.0165199637413025E-002
  -6.9399999999999989E-002    -3.2849583774805069E-002
  -6.8300000000000000E-002    -7.7496580779552460E-002
  -6.7199999999999996E-002    -7.1868881583213806E-002
  -6.6099999999999992E-002    -4.1780907660722733E-002
  -6.5000000000000002E-002    -4.6496812254190445E-002
  -6.3899999999999985E-002    -8.6982712149620056E-002
  -6.2799999999999995E-002   -0.11066606640815735     
  -6.1699999999999991E-002   -0.10122201591730118     
  -6.0599999999999994E-002   -0.10589033365249634     
  -5.9499999999999990E-002   -0.15352836251258850     
  -5.8399999999999994E-002   -0.19859778881072998     
  -5.7299999999999990E-002   -0.19038029015064240     
  -5.6199999999999986E-002   -0.16325196623802185     
  -5.5099999999999996E-002   -0.19620978832244873     
  -5.3999999999999992E-002   -0.29089808464050293     
  -5.2899999999999989E-002   -0.35706952214241028     
  -5.1799999999999985E-002   -0.34129312634468079     
  -5.0699999999999995E-002   -0.31031629443168640     
  -4.9599999999999991E-002   -0.35728669166564941     
  -4.8499999999999988E-002   -0.46501436829566956     
  -4.7399999999999998E-002   -0.53221678733825684     
  -4.6299999999999994E-002   -0.52335518598556519     
  -4.5199999999999990E-002   -0.51712399721145630     
  -4.4099999999999986E-002   -0.58173578977584839     
  -4.2999999999999997E-002   -0.67124694585800171     
  -4.1899999999999993E-002   -0.70262640714645386     
  -4.0799999999999989E-002   -0.68632030487060547     
  -3.9699999999999985E-002   -0.70699548721313477     
  -3.8599999999999995E-002   -0.78349447250366211     
  -3.7499999999999992E-002   -0.83300244808197021     
  -3.6399999999999988E-002   -0.80095577239990234     
  -3.5299999999999984E-002   -0.74962925910949707     
  -3.4199999999999994E-002   -0.76348429918289185     
  -3.3099999999999991E-002   -0.80994588136672974     
  -3.1999999999999987E-002   -0.78323268890380859     
  -3.0899999999999997E-002   -0.66528141498565674     
  -2.9799999999999993E-002   -0.55728346109390259     
  -2.8699999999999989E-002   -0.52389693260192871     
  -2.7599999999999986E-002   -0.48889812827110291     
  -2.6499999999999996E-002   -0.34466835856437683     
  -2.5399999999999992E-002   -0.11795916408300400     
  -2.4299999999999988E-002     7.0528209209442139E-002
  -2.3199999999999985E-002    0.18761260807514191     
  -2.2099999999999995E-002    0.33870002627372742     
  -2.0999999999999991E-002    0.60783118009567261     
  -1.9899999999999987E-002    0.93083393573760986     
  -1.8799999999999983E-002     1.1964055299758911     
  -1.7699999999999994E-002     1.4137290716171265     
  -1.6599999999999990E-002     1.6832479238510132     
  -1.5499999999999986E-002     2.0383417606353760     
  -1.4399999999999996E-002     2.3920950889587402     
  -1.3299999999999992E-002     2.6676831245422363     
  -1.2199999999999989E-002     2.9206535816192627     
  -1.1099999999999985E-002     3.2401592731475830     
  -9.9999999999999950E-003     3.5952625274658203     
  -8.8999999999999913E-003     3.8723220825195312     
  -7.7999999999999875E-003     4.0419569015502930     
  -6.6999999999999837E-003     4.1991052627563477     
  -5.5999999999999939E-003     4.4139623641967773     
  -4.4999999999999901E-003     4.6105866432189941     
  -3.3999999999999864E-003     4.6778311729431152     
  -2.2999999999999826E-003     4.6194796562194824     
  -1.1999999999999927E-003     4.5421504974365234     
  -9.9999999999988987E-005     4.4887509346008301     
   1.0000000000000148E-003     4.3654952049255371     
   2.1000000000000185E-003     4.0906682014465332     
   3.2000000000000084E-003     3.7099535465240479     
   4.3000000000000121E-003     3.3269562721252441     
   5.4000000000000159E-003     2.9401555061340332     
   6.5000000000000058E-003     2.4455504417419434     
   7.6000000000000234E-003     1.8054889440536499     
   8.7000000000000133E-003     1.1105763912200928     
   9.8000000000000032E-003    0.45191851258277893     
   1.0900000000000021E-002   -0.20669427514076233     
   1.2000000000000011E-002   -0.95999866724014282     
   1.3100000000000001E-002    -1.7984057664871216     
   1.4200000000000018E-002    -2.6197423934936523     
   1.5300000000000008E-002    -3.3688068389892578     
   1.6400000000000026E-002    -4.1002502441406250     
   1.7500000000000016E-002    -4.8680701255798340     
   1.8600000000000005E-002    -5.6194696426391602     
   1.9700000000000023E-002    -6.2651381492614746     
   2.0800000000000013E-002    -6.8025870323181152     
   2.1900000000000003E-002    -7.3035774230957031     
   2.3000000000000020E-002    -7.7878570556640625     
   2.4100000000000010E-002    -8.1714906692504883     
   2.5200000000000000E-002    -8.3793144226074219     
   2.6300000000000018E-002    -8.4523811340332031     
   2.7400000000000008E-002    -8.4704694747924805     
   2.8500000000000025E-002    -8.4357891082763672     
   2.9600000000000015E-002    -8.2737503051757812     
   3.0700000000000005E-002    -7.9463171958923340     
   3.1800000000000023E-002    -7.4988770484924316     
   3.2900000000000013E-002    -6.9976792335510254     
   3.4000000000000002E-002    -6.4331502914428711     
   3.5100000000000020E-002    -5.7558250427246094     
   3.6200000000000010E-002    -4.9750475883483887     
   3.7300000000000028E-002    -4.1607170104980469     
   3.8400000000000017E-002    -3.3411238193511963     
   3.9500000000000007E-002    -2.4873178005218506     
   4.0600000000000025E-002    -1.5651627779006958     
   4.1700000000000015E-002   -0.61801391839981079     
   4.2800000000000005E-002    0.28768560290336609     
   4.3900000000000022E-002     1.1251881122589111     
   4.5000000000000012E-002     1.9333605766296387     
   4.6100000000000002E-002     2.7295975685119629     
   4.7200000000000020E-002     3.4796104431152344     
   4.8300000000000010E-002     4.1499867439270020     
   4.9400000000000027E-002     4.7329144477844238     
   5.0500000000000017E-002     5.2329082489013672     
   5.1600000000000007E-002     5.6443500518798828     
   5.2700000000000025E-002     5.9667501449584961     
   5.3800000000000014E-002     6.1985759735107422     
   5.4900000000000004E-002     6.3490519523620605     
   5.6000000000000022E-002     6.4171004295349121     
   5.7100000000000012E-002     6.3940920829772949     
   5.8200000000000002E-002     6.2846021652221680     
   5.9300000000000019E-002     6.0995149612426758     
   6.0400000000000009E-002     5.8445143699645996     
   6.1500000000000027E-002     5.5261950492858887     
   6.2600000000000017E-002     5.1638684272766113     
   6.3700000000000007E-002     4.7765631675720215     
   6.4800000000000024E-002     4.3592200279235840     
   6.5900000000000014E-002     3.8939881324768066     
   6.7000000000000004E-002     3.3865339756011963     
   6.8100000000000022E-002     2.8797614574432373     
   6.9200000000000012E-002     2.4084341526031494     
   7.0300000000000029E-002     1.9567626714706421     
   7.1400000000000019E-002     1.4894888401031494     
   7.2500000000000009E-002     1.0154219865798950     
   7.3600000000000027E-002    0.58294308185577393     
   7.4700000000000016E-002    0.21205237507820129     
   7.5800000000000006E-002   -0.13316507637500763     
   7.6900000000000024E-002   -0.48285561800003052     
   7.8000000000000014E-002   -0.80424141883850098     
   7.9100000000000004E-002    -1.0424746274948120     
   8.0200000000000021E-002    -1.2126603126525879     
   8.1300000000000011E-002    -1.3809804916381836     
   8.2400000000000029E-002    -1.5706785917282104     
   8.3500000000000019E-002    -1.7159231901168823     
   8.4600000000000009E-002    -1.7634372711181641     
   8.5700000000000026E-002    -1.7548259496688843     
   8.6800000000000016E-002    -1.7750346660614014     
   8.7900000000000006E-002    -1.8206359148025513     
   8.9000000000000024E-002    -1.8107689619064331     
   9.0100000000000013E-002    -1.7171590328216553     
   9.1200000000000003E-002    -1.6158353090286255     
   9.2300000000000021E-002    -1.5739988088607788     
   9.3400000000000011E-002    -1.5428763628005981     
   9.4500000000000028E-002    -1.4329897165298462     
   9.5600000000000018E-002    -1.2601552009582520     
   9.6700000000000008E-002    -1.1338156461715698     
   9.7800000000000026E-002    -1.0959615707397461     
   9.8900000000000016E-002    -1.0511558055877686     
  0.10000000000000001        -0.91170108318328857     
  0.10110000000000002        -0.73218005895614624     
  0.10220000000000001        -0.63190239667892456     
  0.10330000000000003        -0.61539644002914429     
  0.10440000000000002        -0.56783819198608398     
  0.10550000000000001        -0.43170270323753357     
  0.10660000000000003        -0.30033066868782043     
  0.10770000000000002        -0.26905384659767151     
  0.10880000000000001        -0.28453832864761353     
  0.10990000000000003        -0.22440649569034576     
  0.11100000000000002         -9.2213124036788940E-002
  0.11210000000000001         -1.8088322132825851E-002
  0.11320000000000002         -5.9396829456090927E-002
  0.11430000000000001        -0.10301105678081512     
  0.11540000000000003         -3.4388594329357147E-002
  0.11650000000000002          8.5850059986114502E-002
  0.11760000000000001         0.11049408465623856     
  0.11870000000000003          3.0436011031270027E-002
  0.11980000000000002         -1.0457511059939861E-002
  0.12090000000000001          6.5625950694084167E-002
  0.12200000000000003         0.15095427632331848     
  0.12310000000000001         0.12121637910604477     
  0.12420000000000003          2.9437698423862457E-002
  0.12530000000000002          2.4177908897399902E-002
  0.12640000000000001         0.11811926215887070     
  0.12750000000000003         0.16541264951229095     
  0.12860000000000002          8.6992003023624420E-002
  0.12970000000000001         -2.9822904616594315E-003
  0.13080000000000003          2.9410351067781448E-002
  0.13190000000000002         0.13128611445426941     
  0.13300000000000001         0.14208050072193146     
  0.13410000000000000          4.0082521736621857E-002
  0.13520000000000004         -2.3619502782821655E-002
  0.13630000000000003          4.1592605412006378E-002
  0.13740000000000002         0.12728354334831238     
  0.13850000000000001          9.4654679298400879E-002
  0.13960000000000000         -1.0174054652452469E-002
  0.14070000000000005         -2.8534024953842163E-002
  0.14180000000000004          6.4219057559967041E-002
  0.14290000000000003         0.11906252056360245     
  0.14400000000000002          4.4195123016834259E-002
  0.14510000000000001         -5.1034025847911835E-002
  0.14620000000000000         -2.3759538307785988E-002
  0.14730000000000004          8.2152992486953735E-002
  0.14840000000000003         0.10240295529365540     
  0.14950000000000002          3.9723888039588928E-003
  0.15060000000000001         -6.5181598067283630E-002
  0.15170000000000000         -3.8274624384939671E-003
  0.15280000000000005          8.8695809245109558E-002
  0.15390000000000004          6.7644879221916199E-002
  0.15500000000000003         -3.4179162234067917E-002
  0.15610000000000002         -5.9880640357732773E-002
  0.15720000000000001          2.8241680935025215E-002
  0.15830000000000000          9.1509908437728882E-002
  0.15940000000000004          3.0734002590179443E-002
  0.16050000000000003         -6.1475306749343872E-002
  0.16160000000000002         -4.4440027326345444E-002
  0.16270000000000001          5.3535975515842438E-002
  0.16380000000000000          8.0750726163387299E-002
  0.16490000000000005         -3.9626741781830788E-003
  0.16600000000000004         -6.9979466497898102E-002
  0.16710000000000003         -1.7882566899061203E-002
  0.16820000000000002          6.9178134202957153E-002
  0.16930000000000001          5.6672714650630951E-002
  0.17040000000000000         -3.4087263047695160E-002
  0.17150000000000004         -6.2070485204458237E-002
  0.17260000000000003          1.4311676844954491E-002
  0.17370000000000002          7.4890814721584320E-002
  0.17480000000000001          2.5445282459259033E-002
  0.17590000000000000         -5.7490725070238113E-002
  0.17700000000000005         -4.6348627656698227E-002
  0.17810000000000004          4.0854837745428085E-002
  0.17920000000000003          7.0265293121337891E-002
  0.18030000000000002         -1.9463831558823586E-003
  0.18140000000000001         -6.4916357398033142E-002
  0.18250000000000000         -2.4645073339343071E-002
  0.18360000000000004          5.4562877863645554E-002
  0.18470000000000003          5.2546441555023193E-002
  0.18580000000000002         -2.3845994845032692E-002
  0.18690000000000001         -5.6686878204345703E-002
  0.18800000000000000          2.9501711833290756E-004
  0.18910000000000005          5.5583517998456955E-002
  0.19020000000000004          2.5603676214814186E-002
  0.19130000000000003         -3.8863915950059891E-002
  0.19240000000000002         -3.6890204995870590E-002
  0.19350000000000001          2.5260496884584427E-002
  0.19460000000000005          4.8120539635419846E-002
  0.19570000000000004         -3.9090560749173164E-003
  0.19680000000000003         -4.8611428588628769E-002
  0.19790000000000002         -1.5718108043074608E-002
  0.19900000000000001          4.4496018439531326E-002
  0.20010000000000000          3.9755083620548248E-002
  0.20120000000000005         -2.2627387195825577E-002
  0.20230000000000004         -4.8834200948476791E-002
  0.20340000000000003         -1.5601939521729946E-003
  0.20450000000000002          4.6490237116813660E-002
  0.20560000000000000          2.5536591187119484E-002
  0.20670000000000005         -2.8750361874699593E-002
  0.20780000000000004         -3.4889694303274155E-002
  0.20890000000000003          1.1074563488364220E-002
