  -1.2000000000000000E-009     0.0000000000000000
  -1.1960000000000000E-009     0.0000000000000000
  -1.1920000000000000E-009     0.0000000000000000
  -1.1880000000000000E-009     0.0000000000000000
  -1.1840000000000000E-009     0.0000000000000000
  -1.1800000000000001E-009     0.0000000000000000
  -1.1760000000000001E-009     0.0000000000000000
  -1.1720000000000001E-009    -3.0175571813821687E-032
  -1.1679999999999999E-009    -4.2789475492813301E-031
  -1.1639999999999999E-009    -3.2096070151462079E-030
  -1.1599999999999999E-009    -1.6910337482567697E-029
  -1.1559999999999999E-009    -7.0142838020007074E-029
  -1.1520000000000000E-009    -2.4350731178278204E-028
  -1.1480000000000000E-009    -7.3471901817965200E-028
  -1.1440000000000000E-009    -1.9760262711356644E-027
  -1.1400000000000000E-009    -4.8227982109378528E-027
  -1.1360000000000000E-009    -1.0823016774864753E-026
  -1.1320000000000000E-009    -2.2554605638061762E-026
  -1.1280000000000000E-009    -4.3977775196858644E-026
  -1.1240000000000000E-009    -8.0693703656656909E-026
  -1.1200000000000001E-009    -1.3993565387265432E-025
  -1.1160000000000001E-009    -2.3005745328996344E-025
  -1.1120000000000001E-009    -3.5925223592211298E-025
  -1.1079999999999999E-009    -5.3325222255903651E-025
  -1.1039999999999999E-009    -7.5186337806995293E-025
  -1.0999999999999999E-009    -1.0043878611115470E-024
  -1.0959999999999999E-009    -1.2642887359588298E-024
  -1.0920000000000000E-009    -1.4838343465157871E-024
  -1.0880000000000000E-009    -1.5898640561027986E-024
  -1.0840000000000000E-009    -1.4821686667144129E-024
  -1.0800000000000000E-009    -1.0361652491337255E-024
  -1.0760000000000000E-009    -1.1146242207794561E-025
  -1.0720000000000000E-009     1.4325360037482356E-024
  -1.0680000000000000E-009     3.7136980009731585E-024
  -1.0640000000000000E-009     6.7978321458992997E-024
  -1.0600000000000001E-009     1.0665388394535407E-023
  -1.0560000000000001E-009     1.5178103490453845E-023
  -1.0520000000000001E-009     2.0050742685266611E-023
  -1.0480000000000001E-009     2.4833680506546697E-023
  -1.0439999999999999E-009     2.8911736399131978E-023
  -1.0399999999999999E-009     3.1523124741790440E-023
  -1.0359999999999999E-009     3.1799775105807828E-023
  -1.0320000000000000E-009     2.8826561509473455E-023
  -1.0280000000000000E-009     2.1713068250071778E-023
  -1.0240000000000000E-009     9.6679676543311584E-024
  -1.0200000000000000E-009    -7.9360251146402374E-024
  -1.0160000000000000E-009    -3.1518148607200306E-023
  -1.0120000000000000E-009    -6.1274127102543432E-023
  -1.0080000000000000E-009    -9.7189216001490129E-023
  -1.0040000000000000E-009    -1.3906849092980391E-022
  -1.0000000000000001E-009    -1.8655973495963445E-022
  -9.9600000000000008E-010    -2.3913080145698138E-022
  -9.9199999999999988E-010    -2.9595322238829436E-022
  -9.8799999999999990E-010    -3.5564139197254526E-022
  -9.8399999999999991E-010    -4.1580396357253435E-022
  -9.7999999999999992E-010    -4.7238818637579403E-022
  -9.7599999999999994E-010    -5.1883540770744439E-022
  -9.7199999999999995E-010    -5.4512323180818662E-022
  -9.6799999999999997E-010    -5.3683501737582774E-022
  -9.6399999999999998E-010    -4.7447072867847957E-022
  -9.5999999999999999E-010    -3.3327909119747659E-022
  -9.5600000000000001E-010    -8.3935084305441536E-023
  -9.5200000000000002E-010     3.0560266995515364E-022
  -9.4800000000000004E-010     8.6676310317857237E-022
  -9.4400000000000005E-010     1.6253793084853513E-021
  -9.4000000000000006E-010     2.5950445078539264E-021
  -9.3600000000000008E-010     3.7690541156528392E-021
  -9.3200000000000009E-010     5.1114818159147399E-021
  -9.2800000000000000E-010     6.5482808074287109E-021
  -9.2400000000000001E-010     7.9596359171710068E-021
  -9.1999999999999992E-010     9.1750655440118754E-021
  -9.1599999999999994E-010     9.9729499072724610E-021
  -9.1199999999999995E-010     1.0086167022441389E-020
  -9.0799999999999997E-010     9.2153098195171409E-021
  -9.0399999999999998E-010     7.0504892991735034E-021
  -8.9999999999999999E-010     3.3020242259549918E-021
  -8.9600000000000001E-010    -2.2606642173198592E-021
  -8.9200000000000002E-010    -9.7637830722216497E-021
  -8.8800000000000004E-010    -1.9180617191852723E-020
  -8.8400000000000005E-010    -3.0284012803755465E-020
  -8.8000000000000006E-010    -4.2605275155690553E-020
  -8.7599999999999997E-010    -5.5405604329264556E-020
  -8.7199999999999999E-010    -6.7666346787164026E-020
  -8.6800000000000000E-010    -7.8104009024390766E-020
  -8.6400000000000001E-010    -8.5214776687323370E-020
  -8.5999999999999993E-010    -8.7351397134244912E-020
  -8.5599999999999994E-010    -8.2832774404157680E-020
  -8.5199999999999995E-010    -7.0083349149998366E-020
  -8.4799999999999997E-010    -4.7795988595825656E-020
  -8.4399999999999998E-010    -1.5108610600233038E-020
  -8.3999999999999999E-010     2.8218403873717040E-020
  -8.3600000000000001E-010     8.1639301414259979E-020
  -8.3200000000000002E-010     1.4369123734190276E-019
  -8.2800000000000004E-010     2.1191032172401120E-019
  -8.2400000000000005E-010     2.8281023384791865E-019
  -8.2000000000000006E-010     3.5193544289229066E-019
  -8.1599999999999997E-010     4.1399570232484725E-019
  -8.1199999999999999E-010     4.6308305556618743E-019
  -8.0800000000000000E-010     4.9296588577285467E-019
  -8.0400000000000002E-010     4.9744796392197325E-019
  -7.9999999999999993E-010     4.7077381901018749E-019
  -7.9599999999999994E-010     4.0805755365308806E-019
  -7.9199999999999995E-010     3.0570873870310027E-019
  -7.8799999999999997E-010     1.6182846474183500E-019
  -7.8399999999999998E-010    -2.3450274713432832E-020
  -7.7999999999999999E-010    -2.4769856234475644E-019
  -7.7600000000000001E-010    -5.0601977811591886E-019
  -7.7200000000000002E-010    -7.9097827756282015E-019
  -7.6800000000000004E-010    -1.0926290749758884E-018
  -7.6400000000000005E-010    -1.3986425780359262E-018
  -7.6000000000000006E-010    -1.6945136060151450E-018
  -7.5600000000000008E-010    -1.9638427862817983E-018
  -7.5199999999999999E-010    -2.1886766806283053E-018
  -7.4800000000000000E-010    -2.3499034877967816E-018
  -7.4400000000000002E-010    -2.4277033399249973E-018
  -7.3999999999999993E-010    -2.4020677719710601E-018
  -7.3599999999999994E-010    -2.2534089402345613E-018
  -7.3199999999999995E-010    -1.9632953995114413E-018
  -7.2799999999999997E-010    -1.5153474227095015E-018
  -7.2399999999999998E-010    -8.9633560009945159E-019
  -7.2000000000000000E-010    -9.7505659538792741E-020
  -7.1600000000000001E-010     8.8385758055908916E-019
  -7.1200000000000002E-010     2.0426486968300315E-018
  -7.0800000000000004E-010     3.3640004490071919E-018
  -7.0400000000000005E-010     4.8212887883046323E-018
  -6.9999999999999996E-010     6.3742401518535241E-018
  -6.9599999999999997E-010     7.9673407943842085E-018
  -6.9199999999999999E-010     9.5287964018107580E-018
  -6.8800000000000000E-010     1.0970310820417119E-017
  -6.8400000000000002E-010     1.2187962868306415E-017
  -6.8000000000000003E-010     1.3064428556116578E-017
  -6.7600000000000004E-010     1.3472770401406442E-017
  -6.7199999999999995E-010     1.3281895993517994E-017
  -6.6799999999999997E-010     1.2363704006888207E-017
  -6.6399999999999998E-010     1.0601787795454331E-017
  -6.6000000000000000E-010     7.9013929928678058E-018
  -6.5600000000000001E-010     4.2001787186732651E-018
  -6.5200000000000002E-010    -5.2083349721218961E-019
  -6.4800000000000004E-010    -6.2268750305950583E-018
  -6.4400000000000005E-010    -1.2820454943166512E-017
  -6.3999999999999996E-010    -2.0134691149006415E-017
  -6.3599999999999998E-010    -2.7929816248579533E-017
  -6.3199999999999999E-010    -3.5893626636109366E-017
  -6.2800000000000000E-010    -4.3646489423825925E-017
  -6.2400000000000002E-010    -5.0751279362664338E-017
  -6.2000000000000003E-010    -5.6728297871792854E-017
  -6.1600000000000004E-010    -6.1074946702301803E-017
  -6.1199999999999995E-010    -6.3289441551004266E-017
  -6.0799999999999997E-010    -6.2897735135013455E-017
  -6.0399999999999998E-010    -5.9482226976443199E-017
  -6.0000000000000000E-010    -5.2710853690190210E-017
  -5.9600000000000001E-010    -4.2364842547846463E-017
  -5.9200000000000002E-010    -2.8363414399512480E-017
  -5.8800000000000004E-010    -1.0783894088849718E-017
  -5.8400000000000005E-010     1.0124260563730531E-017
  -5.7999999999999996E-010     3.3932550148591098E-017
  -5.7599999999999998E-010     6.0034340256820293E-017
  -5.7199999999999999E-010     8.7653854587851584E-017
  -5.6800000000000000E-010     1.1586295017228617E-016
  -5.6400000000000002E-010     1.4360501296542842E-016
  -5.6000000000000003E-010     1.6972490178546027E-016
  -5.5600000000000004E-010     1.9300357740260519E-016
  -5.5199999999999995E-010     2.1219595432395855E-016
  -5.4799999999999997E-010     2.2607028782553498E-016
  -5.4399999999999998E-010     2.3344810361479755E-016
  -5.4000000000000000E-010     2.3324301576244360E-016
  -5.3600000000000001E-010     2.2449830055454941E-016
  -5.3200000000000002E-010     2.0642253805080383E-016
  -5.2800000000000004E-010     1.7842313606037389E-016
  -5.2400000000000005E-010     1.4013876885680661E-016
  -5.1999999999999996E-010     9.1470551960954959E-017
  -5.1599999999999998E-010     3.2612962152275054E-017
  -5.1199999999999999E-010    -3.5915530378729770E-017
  -5.0800000000000000E-010    -1.1324208464969356E-016
  -5.0400000000000002E-010    -1.9811019345781356E-016
  -5.0000000000000003E-010    -2.8885326984853018E-016
  -4.9600000000000004E-010    -3.8337322644638433E-016
  -4.9199999999999996E-010    -4.7912805120221683E-016
  -4.8799999999999997E-010    -5.7313187356761749E-016
  -4.8399999999999998E-010    -6.6197239484479275E-016
  -4.8000000000000000E-010    -7.4185072520486627E-016
  -4.7600000000000001E-010    -8.0864726696930757E-016
  -4.7200000000000002E-010    -8.5801801166812295E-016
  -4.6800000000000004E-010    -8.8552286553136459E-016
  -4.6400000000000005E-010    -8.8678616223263518E-016
  -4.5999999999999996E-010    -8.5768735118133856E-016
  -4.5599999999999998E-010    -7.9457699092422957E-016
  -4.5199999999999999E-010    -6.9451026554106024E-016
  -4.4800000000000000E-010    -5.5548812433675121E-016
  -4.4400000000000002E-010    -3.7669283641006727E-016
  -4.4000000000000003E-010    -1.5870443404142039E-016
  -4.3600000000000005E-010     9.6317525948050282E-017
  -4.3199999999999996E-010     3.8450173902992307E-016
  -4.2799999999999997E-010     7.0019629183685995E-016
  -4.2399999999999998E-010     1.0359745516885679E-015
  -4.2000000000000000E-010     1.3827238999104688E-015
  -4.1600000000000001E-010     1.7298212727945728E-015
  -4.1200000000000002E-010     2.0653934918818612E-015
  -4.0800000000000004E-010     2.3766571359323720E-015
  -4.0400000000000005E-010     2.6503262814101848E-015
  -3.9999999999999996E-010     2.8730692650002273E-015
  -3.9599999999999998E-010     3.0319993274429725E-015
  -3.9199999999999999E-010     3.1151709748415300E-015
  -3.8800000000000000E-010     3.1120627874415803E-015
  -3.8400000000000002E-010     3.0140219001704473E-015
  -3.8000000000000003E-010     2.8146470732874932E-015
  -3.7600000000000005E-010     2.5100970123769200E-015
  -3.7200000000000006E-010     2.0993099616393443E-015
  -3.6799999999999997E-010     1.5841281118559257E-015
  -3.6399999999999998E-010     9.6932851709094188E-016
  -3.6000000000000000E-010     2.6256610525630540E-016
  -3.5600000000000001E-010    -5.2575875019578297E-016
  -3.5200000000000003E-010    -1.3826920302958284E-015
  -3.4800000000000004E-010    -2.2929584222823856E-015
  -3.4400000000000005E-010    -3.2392147148021860E-015
  -3.3999999999999996E-010    -4.2023083282475074E-015
  -3.3599999999999998E-010    -5.1615248601350090E-015
  -3.3199999999999999E-010    -6.0948179486717928E-015
  -3.2800000000000000E-010    -6.9790203957175063E-015
  -3.2400000000000002E-010    -7.7900408901863429E-015
  -3.2000000000000003E-010    -8.5030605196908041E-015
  -3.1600000000000005E-010    -9.0927487639432501E-015
  -3.1200000000000006E-010    -9.5335218398048122E-015
  -3.0799999999999997E-010    -9.7998713500689269E-015
  -3.0399999999999998E-010    -9.8667818707043331E-015
  -3.0000000000000000E-010    -9.7102713578754198E-015
  -2.9600000000000001E-010    -9.3080475984763482E-015
  -2.9200000000000003E-010    -8.6403061151673656E-015
  -2.8800000000000004E-010    -7.6906415738260507E-015
  -2.8400000000000005E-010    -6.4470595644028090E-015
  -2.7999999999999996E-010    -4.9030502151815175E-015
  -2.7599999999999998E-010    -3.0586679480290374E-015
  -2.7199999999999999E-010    -9.2156602326116640E-016
  -2.6800000000000011E-010     1.4920895118072735E-015
  -2.6399999999999992E-010     4.1568904216157318E-015
  -2.5999999999999993E-010     7.0377108851162832E-015
  -2.5599999999999994E-010     1.0089542218469794E-014
  -2.5199999999999996E-010     1.3257686845590845E-014
  -2.4799999999999997E-010     1.6478333115881559E-014
  -2.4399999999999998E-010     1.9679517957176158E-014
  -2.4000000000000000E-010     2.2782470693511782E-014
  -2.3600000000000001E-010     2.5703277464869841E-014
  -2.3200000000000003E-010     2.8354819238559335E-014
  -2.2800000000000004E-010     3.0648908026309832E-014
  -2.2400000000000005E-010     3.2498519663120423E-014
  -2.2000000000000007E-010     3.3820029974240481E-014
  -2.1600000000000008E-010     3.4535356074460316E-014
  -2.1200000000000010E-010     3.4573933343010066E-014
  -2.0800000000000011E-010     3.3874433206376731E-014
  -2.0399999999999992E-010     3.2386196318050925E-014
  -1.9999999999999993E-010     3.0070347253885465E-014
  -1.9599999999999994E-010     2.6900616134054207E-014
  -1.9199999999999996E-010     2.2863868865677026E-014
  -1.8799999999999997E-010     1.7960444261932822E-014
  -1.8399999999999998E-010     1.2204337001176131E-014
  -1.8000000000000000E-010     5.6233488223182086E-015
  -1.7600000000000001E-010    -1.7407374099023126E-015
  -1.7200000000000003E-010    -9.8318603963549328E-015
  -1.6800000000000004E-010    -1.8579217076495139E-014
  -1.6400000000000005E-010    -2.7896593048819598E-014
  -1.6000000000000007E-010    -3.7681510879237698E-014
  -1.5600000000000008E-010    -4.7814220437798413E-014
  -1.5200000000000010E-010    -5.8156651965967504E-014
  -1.4800000000000011E-010    -6.8551419965881544E-014
  -1.4399999999999992E-010    -7.8821064258827178E-014
  -1.3999999999999993E-010    -8.8767724724589381E-014
  -1.3599999999999994E-010    -9.8173381858808473E-014
  -1.3199999999999996E-010    -1.0680087321251683E-013
  -1.2799999999999997E-010    -1.1439587883736724E-013
  -1.2399999999999999E-010    -1.2068995705171587E-013
  -1.2000000000000000E-010    -1.2540461019876908E-013
  -1.1600000000000001E-010    -1.2825665822360083E-013
  -1.1200000000000003E-010    -1.2896449316443515E-013
  -1.0800000000000004E-010    -1.2725538396478331E-013
  -1.0400000000000005E-010    -1.2287349956952021E-013
  -1.0000000000000007E-010    -1.1558833859677542E-013
  -9.6000000000000082E-011    -1.0520343683663100E-013
  -9.2000000000000096E-011    -9.1564783370485375E-014
  -8.8000000000000110E-011    -7.4568863995920498E-014
  -8.3999999999999917E-011    -5.4169823737303807E-014
  -7.9999999999999931E-011    -3.0385538377954158E-014
  -7.5999999999999944E-011    -3.3023250221197358E-015
  -7.1999999999999958E-011     2.6921832615317033E-014
  -6.7999999999999972E-011     6.0055679504920911E-014
  -6.3999999999999986E-011     9.5794689726220322E-014
  -6.0000000000000000E-011     1.3376262987876975E-013
  -5.6000000000000013E-011     1.7351450950966324E-013
  -5.2000000000000027E-011     2.1454081458420482E-013
  -4.8000000000000041E-011     2.5627273198512712E-013
  -4.4000000000000055E-011     2.9808807874322218E-013
  -4.0000000000000069E-011     3.3931795632817507E-013
  -3.6000000000000082E-011     3.7925367598994064E-013
  -3.2000000000000096E-011     4.1715391449308192E-013
  -2.8000000000000110E-011     4.5225205958648873E-013
  -2.3999999999999917E-011     4.8376390783880230E-013
  -1.9999999999999931E-011     5.1089547089405718E-013
  -1.5999999999999945E-011     5.3285105277786626E-013
  -1.1999999999999959E-011     5.4884233009061534E-013
  -7.9999999999999724E-012     5.5809783877647234E-013
  -3.9999999999999862E-012     5.5987376193500360E-013
   0.0000000000000000          5.5346596446528840E-013
   3.9999999999999862E-012     5.3822300349198882E-013
   7.9999999999999724E-012     5.1356119877554729E-013
   1.1999999999999959E-011     4.7898019101336176E-013
   1.5999999999999945E-011     4.3408074986046874E-013
   1.9999999999999931E-011     3.7858241931990055E-013
   2.3999999999999917E-011     3.1234224733521498E-013
   2.7999999999999903E-011     2.3537332564764479E-013
   3.1999999999999889E-011     1.4786248939656355E-013
   3.6000000000000082E-011     5.0186813933166333E-014
   4.0000000000000069E-011    -5.7071928021186491E-014
   4.4000000000000055E-011    -1.7311549600513426E-013
   4.8000000000000041E-011    -2.9692063694894411E-013
   5.2000000000000027E-011    -4.2723425708671159E-013
   5.6000000000000013E-011    -5.6257282903329764E-013
   6.0000000000000000E-011    -7.0122607807171500E-013
   6.3999999999999986E-011    -8.4126461222591709E-013
   6.7999999999999972E-011    -9.8055266163632471E-013
   7.1999999999999958E-011    -1.1167643415924133E-012
   7.5999999999999944E-011    -1.2474036560627955E-012
   7.9999999999999931E-011    -1.3698279706722549E-012
   8.3999999999999917E-011    -1.4812745214448642E-012
   8.7999999999999903E-011    -1.5788888209009033E-012
   9.1999999999999889E-011    -1.6597553409783417E-012
   9.6000000000000082E-011    -1.7209301475182293E-012
   1.0000000000000007E-010    -1.7594745105320442E-012
   1.0400000000000005E-010    -1.7724904660329499E-012
   1.0800000000000004E-010    -1.7571570283883564E-012
   1.1200000000000003E-010    -1.7107692215981296E-012
   1.1600000000000001E-010    -1.6307781947749733E-012
   1.2000000000000000E-010    -1.5148333976089390E-012
   1.2399999999999999E-010    -1.3608285505395390E-012
   1.2799999999999997E-010    -1.1669496749119879E-012
   1.3199999999999996E-010    -9.3172713468148149E-013
   1.3599999999999994E-010    -6.5409076809366806E-013
   1.3999999999999993E-010    -3.3342941038391749E-013
   1.4399999999999992E-010     3.0346808643473902E-014
   1.4799999999999990E-010     4.3673999963397825E-013
   1.5199999999999989E-010     8.8459686624353662E-013
   1.5600000000000008E-010     1.3720373578593459E-012
   1.6000000000000007E-010     1.8963827903839547E-012
   1.6400000000000005E-010     2.4540842448461664E-012
   1.6800000000000004E-010     3.0406521484699356E-012
   1.7200000000000003E-010     3.6505850425916364E-012
   1.7600000000000001E-010     4.2773050726307993E-012
   1.8000000000000000E-010     4.9130929359597619E-012
   1.8399999999999998E-010     5.5490299855076586E-012
   1.8799999999999997E-010     6.1749438028113612E-012
   1.9199999999999996E-010     6.7793591920772833E-012
   1.9599999999999994E-010     7.3494543784136113E-012
   1.9999999999999993E-010     7.8710172060625361E-012
   2.0399999999999992E-010     8.3284100102498648E-012
   2.0799999999999990E-010     8.7045370911198461E-012
   2.1199999999999989E-010     8.9808100192656504E-012
   2.1600000000000008E-010     9.1371129412598506E-012
   2.2000000000000007E-010     9.1517748240788066E-012
   2.2400000000000005E-010     9.0015304238244553E-012
   2.2800000000000004E-010     8.6614847238930537E-012
   2.3200000000000003E-010     8.1050643627178509E-012
   2.3600000000000001E-010     7.3039751330439273E-012
   2.4000000000000000E-010     6.2281430013300110E-012
   2.4399999999999998E-010     4.8456477545755217E-012
   2.4799999999999997E-010     3.1226514429771868E-012
   2.5199999999999996E-010     1.0233137037393703E-012
   2.5599999999999994E-010    -1.4903031066160199E-012
   2.5999999999999993E-010    -4.4583438503498218E-012
   2.6399999999999992E-010    -7.9232757507763374E-012
   2.6799999999999990E-010    -1.1930030748008580E-011
   2.7199999999999989E-010    -1.6526153709395253E-011
   2.7600000000000008E-010    -2.1761977636591823E-011
   2.8000000000000007E-010    -2.7690804510482891E-011
   2.8400000000000005E-010    -3.4369125601063644E-011
   2.8800000000000004E-010    -4.1856851318300414E-011
   2.9200000000000003E-010    -5.0217576624822513E-011
   2.9600000000000001E-010    -5.9518869000019237E-011
   3.0000000000000000E-010    -6.9832584159712496E-011
   3.0399999999999998E-010    -8.1235199123064206E-011
   3.0799999999999997E-010    -9.3808252832339178E-011
   3.1199999999999996E-010    -1.0763870350594118E-010
   3.1599999999999994E-010    -1.2281940742209230E-010
   3.1999999999999993E-010    -1.3944964627476963E-010
   3.2399999999999992E-010    -1.5763561289627859E-010
   3.2799999999999990E-010    -1.7749103575770420E-010
   3.3199999999999989E-010    -1.9913780346936250E-010
   3.3600000000000008E-010    -2.2270661703682748E-010
   3.4000000000000007E-010    -2.4833773926147273E-010
   3.4400000000000005E-010    -2.7618177189658866E-010
   3.4800000000000004E-010    -3.0640040504792410E-010
   3.5200000000000003E-010    -3.3916738861883289E-010
   3.5600000000000001E-010    -3.7466946212205698E-010
   3.6000000000000000E-010    -4.1310724285814615E-010
   3.6399999999999998E-010    -4.5469644716078506E-010
   3.6799999999999997E-010    -4.9966880633078858E-010
   3.7199999999999996E-010    -5.4827348217045824E-010
   3.7599999999999994E-010    -6.0077803842872868E-010
   3.7999999999999993E-010    -6.5747002286897782E-010
   3.8399999999999991E-010    -7.1865813300320269E-010
   3.8799999999999990E-010    -7.8467382591540513E-010
   3.9199999999999989E-010    -8.5587281706267504E-010
   3.9599999999999987E-010    -9.3263663458742485E-010
   4.0000000000000007E-010    -1.0153743401630777E-009
   4.0400000000000005E-010    -1.1045245829066630E-009
   4.0800000000000004E-010    -1.2005567651129923E-009
   4.1200000000000002E-010    -1.3039734847453133E-009
   4.1600000000000001E-010    -1.4153127558813594E-009
   4.2000000000000000E-010    -1.5351494520032816E-009
   4.2399999999999998E-010    -1.6640979705329073E-009
   4.2799999999999997E-010    -1.8028145643000926E-009
   4.3199999999999996E-010    -1.9519996730110734E-009
   4.3599999999999994E-010    -2.1124000326722125E-009
   4.3999999999999993E-010    -2.2848121172813762E-009
   4.4399999999999991E-010    -2.4700841372293780E-009
   4.4799999999999990E-010    -2.6691195920136579E-009
   4.5199999999999989E-010    -2.8828797127289363E-009
   4.5599999999999987E-010    -3.1123867927362880E-009
   4.6000000000000007E-010    -3.3587275183322163E-009
   4.6400000000000005E-010    -3.6230560773731213E-009
   4.6800000000000004E-010    -3.9065986001673991E-009
   4.7200000000000002E-010    -4.2106553799214907E-009
   4.7600000000000001E-010    -4.5366070899888200E-009
   4.8000000000000000E-010    -4.8859165602266330E-009
   4.8399999999999998E-010    -5.2601341060665163E-009
   4.8799999999999997E-010    -5.6609019694064955E-009
   4.9199999999999996E-010    -6.0899583154139236E-009
   4.9599999999999994E-010    -6.5491434497744194E-009
   4.9999999999999993E-010    -7.0404024832271261E-009
   5.0399999999999991E-010    -7.5657924369920693E-009
   5.0799999999999990E-010    -8.1274871277514649E-009
   5.1199999999999989E-010    -8.7277820526310279E-009
   5.1599999999999987E-010    -9.3690992741812806E-009
   5.2000000000000007E-010    -1.0053994081715700E-008
   5.2400000000000005E-010    -1.0785162984916496E-008
   5.2800000000000004E-010    -1.1565448154726710E-008
   5.3200000000000002E-010    -1.2397842752420729E-008
   5.3600000000000001E-010    -1.3285498923210071E-008
   5.4000000000000000E-010    -1.4231734013492314E-008
   5.4399999999999998E-010    -1.5240038564456881E-008
   5.4799999999999997E-010    -1.6314084305690812E-008
   5.5199999999999995E-010    -1.7457727707892445E-008
   5.5599999999999994E-010    -1.8675018864655613E-008
   5.5999999999999993E-010    -1.9970210374253838E-008
   5.6399999999999991E-010    -2.1347769774138214E-008
   5.6799999999999990E-010    -2.2812375988223721E-008
   5.7199999999999989E-010    -2.4368937090457621E-008
   5.7599999999999987E-010    -2.6022599186603657E-008
   5.8000000000000007E-010    -2.7778746414242050E-008
   5.8400000000000005E-010    -2.9643022259051577E-008
   5.8800000000000004E-010    -3.1621322449382205E-008
   5.9200000000000002E-010    -3.3719814496180334E-008
   5.9600000000000001E-010    -3.5944946574772985E-008
   6.0000000000000000E-010    -3.8303454630295164E-008
   6.0399999999999998E-010    -4.0802365930403539E-008
   6.0799999999999997E-010    -4.3449020381558512E-008
   6.1199999999999995E-010    -4.6251066976310540E-008
   6.1599999999999994E-010    -4.9216481556868530E-008
   6.1999999999999993E-010    -5.2353566815099839E-008
   6.2399999999999991E-010    -5.5670970056098668E-008
   6.2799999999999990E-010    -5.9177683198186060E-008
   6.3199999999999989E-010    -6.2883067641905654E-008
   6.3599999999999987E-010    -6.6796836506455293E-008
   6.4000000000000006E-010    -7.0929083051396447E-008
   6.4400000000000005E-010    -7.5290287782081577E-008
   6.4800000000000004E-010    -7.9891322002367815E-008
   6.5200000000000002E-010    -8.4743447814616957E-008
   6.5600000000000001E-010    -8.9858332330550184E-008
   6.6000000000000000E-010    -9.5248054776675417E-008
   6.6399999999999978E-010    -1.0092512781056939E-007
   6.6800000000000017E-010    -1.0690247620459559E-007
   6.7200000000000016E-010    -1.1319345105675893E-007
   6.7600000000000015E-010    -1.1981184400156053E-007
   6.8000000000000013E-010    -1.2677189431542502E-007
   6.8400000000000012E-010    -1.3408825338956376E-007
   6.8800000000000011E-010    -1.4177605578424846E-007
   6.9200000000000009E-010    -1.4985084817453753E-007
   6.9600000000000008E-010    -1.5832867461540445E-007
   7.0000000000000006E-010    -1.6722597706575471E-007
   7.0400000000000005E-010    -1.7655968065355410E-007
   7.0800000000000004E-010    -1.8634713683240989E-007
   7.1200000000000002E-010    -1.9660616601413494E-007
   7.1600000000000001E-010    -2.0735500072532886E-007
   7.2000000000000000E-010    -2.1861231402908743E-007
   7.2399999999999998E-010    -2.3039721952500258E-007
   7.2799999999999997E-010    -2.4272924292745301E-007
   7.3199999999999995E-010    -2.5562832206560415E-007
   7.3599999999999994E-010    -2.6911482109426288E-007
   7.3999999999999993E-010    -2.8320945943960396E-007
   7.4399999999999991E-010    -2.9793335443173419E-007
   7.4799999999999990E-010    -3.1330799288298294E-007
   7.5199999999999988E-010    -3.2935520266619278E-007
   7.5599999999999987E-010    -3.4609709587130055E-007
   7.5999999999999986E-010    -3.6355618249217514E-007
   7.6399999999999984E-010    -3.8175517147465143E-007
   7.6799999999999983E-010    -4.0071705598165863E-007
   7.7199999999999982E-010    -4.2046508497151081E-007
   7.7599999999999980E-010    -4.4102267793277861E-007
   7.7999999999999979E-010    -4.6241351014941756E-007
   7.8399999999999977E-010    -4.8466131374880206E-007
   7.8800000000000017E-010    -5.0778993454514421E-007
   7.9200000000000016E-010    -5.3182327519607497E-007
   7.9600000000000015E-010    -5.5678538046777248E-007
   8.0000000000000013E-010    -5.8270018143957714E-007
   8.0400000000000012E-010    -6.0959160919082933E-007
   8.0800000000000010E-010    -6.3748348111403175E-007
   8.1200000000000009E-010    -6.6639944407143048E-007
   8.1600000000000008E-010    -6.9636303123843390E-007
   8.2000000000000006E-010    -7.2739749157335609E-007
   8.2400000000000005E-010    -7.5952573297399795E-007
   8.2800000000000004E-010    -7.9277026543422835E-007
   8.3200000000000002E-010    -8.2715325788740302E-007
   8.3600000000000001E-010    -8.6269631083268905E-007
   8.3999999999999999E-010    -8.9942057002190268E-007
   8.4399999999999998E-010    -9.3734649908583378E-007
   8.4799999999999997E-010    -9.7649387953424593E-007
   8.5199999999999995E-010    -1.0168818107558764E-006
   8.5599999999999994E-010    -1.0585284826447605E-006
   8.5999999999999993E-010    -1.1014510619133944E-006
   8.6399999999999991E-010    -1.1456658057795721E-006
   8.6799999999999990E-010    -1.1911880619663862E-006
   8.7199999999999988E-010    -1.2380318139548763E-006
   8.7599999999999987E-010    -1.2862097946708673E-006
   8.7999999999999986E-010    -1.3357337138586445E-006
   8.8399999999999984E-010    -1.3866136896467651E-006
   8.8799999999999983E-010    -1.4388581348612206E-006
   8.9199999999999981E-010    -1.4924740980859497E-006
   8.9599999999999980E-010    -1.5474670362891629E-006
   8.9999999999999979E-010    -1.6038403600759921E-006
   9.0399999999999977E-010    -1.6615960021226783E-006
   9.0799999999999976E-010    -1.7207336213687086E-006
   9.1200000000000016E-010    -1.7812509440773283E-006
   9.1600000000000015E-010    -1.8431436501487042E-006
   9.2000000000000013E-010    -1.9064049183725729E-006
   9.2400000000000012E-010    -1.9710259948624298E-006
   9.2800000000000010E-010    -2.0369952835608274E-006
   9.3200000000000009E-010    -2.1042990283604013E-006
   9.3600000000000008E-010    -2.1729206309828442E-006
   9.4000000000000006E-010    -2.2428409920394188E-006
   9.4400000000000005E-010    -2.3140382836572826E-006
   9.4800000000000004E-010    -2.3864872673584614E-006
   9.5200000000000002E-010    -2.4601604309282266E-006
   9.5600000000000001E-010    -2.5350270789203933E-006
   9.5999999999999999E-010    -2.6110533326573204E-006
   9.6399999999999998E-010    -2.6882019028562354E-006
   9.6799999999999997E-010    -2.7664329991239356E-006
   9.7199999999999995E-010    -2.8457027383410605E-006
   9.7599999999999994E-010    -2.9259642815304687E-006
   9.7999999999999992E-010    -3.0071671517362120E-006