-4.000000000000000083e-02 0.000000000000000000e+00
-3.984999999999999654e-02 0.000000000000000000e+00
-3.969999999999999918e-02 0.000000000000000000e+00
-3.955000000000000182e-02 0.000000000000000000e+00
-3.939999999999999752e-02 0.000000000000000000e+00
-3.925000000000000017e-02 0.000000000000000000e+00
-3.910000000000000281e-02 0.000000000000000000e+00
-3.894999999999999851e-02 0.000000000000000000e+00
-3.880000000000000115e-02 0.000000000000000000e+00
-3.864999999999999686e-02 0.000000000000000000e+00
-3.849999999999999950e-02 0.000000000000000000e+00
-3.835000000000000214e-02 0.000000000000000000e+00
-3.819999999999999785e-02 0.000000000000000000e+00
-3.805000000000000049e-02 0.000000000000000000e+00
-3.790000000000000313e-02 0.000000000000000000e+00
-3.774999999999999883e-02 0.000000000000000000e+00
-3.760000000000000148e-02 0.000000000000000000e+00
-3.744999999999999718e-02 0.000000000000000000e+00
-3.729999999999999982e-02 0.000000000000000000e+00
-3.715000000000000246e-02 0.000000000000000000e+00
-3.699999999999999817e-02 0.000000000000000000e+00
-3.685000000000000081e-02 0.000000000000000000e+00
-3.670000000000000345e-02 0.000000000000000000e+00
-3.654999999999999916e-02 0.000000000000000000e+00
-3.640000000000000180e-02 0.000000000000000000e+00
-3.624999999999999750e-02 0.000000000000000000e+00
-3.610000000000000014e-02 0.000000000000000000e+00
-3.595000000000000279e-02 0.000000000000000000e+00
-3.579999999999999849e-02 0.000000000000000000e+00
-3.565000000000000113e-02 0.000000000000000000e+00
-3.549999999999999684e-02 0.000000000000000000e+00
-3.534999999999999948e-02 0.000000000000000000e+00
-3.520000000000000212e-02 0.000000000000000000e+00
-3.504999999999999782e-02 0.000000000000000000e+00
-3.490000000000000047e-02 0.000000000000000000e+00
-3.475000000000000311e-02 0.000000000000000000e+00
-3.459999999999999881e-02 0.000000000000000000e+00
-3.445000000000000145e-02 0.000000000000000000e+00
-3.429999999999999716e-02 0.000000000000000000e+00
-3.414999999999999980e-02 0.000000000000000000e+00
-3.400000000000000244e-02 0.000000000000000000e+00
-3.384999999999999815e-02 0.000000000000000000e+00
-3.370000000000000079e-02 0.000000000000000000e+00
-3.355000000000000343e-02 0.000000000000000000e+00
-3.339999999999999913e-02 0.000000000000000000e+00
-3.325000000000000178e-02 -0.000000000000000000e+00
-3.309999999999999748e-02 0.000000000000000000e+00
-3.295000000000000012e-02 4.203895392974451213e-45
-3.280000000000000276e-02 -5.184804318001823162e-44
-3.264999999999999847e-02 1.681558157189780485e-44
-3.250000000000000111e-02 4.352433030192881822e-42
-3.234999999999999681e-02 -2.442323093471723673e-41
-3.219999999999999946e-02 -1.921544532190048657e-40
-3.205000000000000210e-02 2.354669071931277715e-39
-3.189999999999999780e-02 3.151675790396053647e-39
-3.175000000000000044e-02 -1.376112870973568561e-37
-3.160000000000000309e-02 1.847607316849431177e-37
-3.144999999999999879e-02 5.989926830283745848e-36
-3.130000000000000143e-02 -1.766888112895717247e-35
-3.115000000000000061e-02 -2.146057562379277232e-34
-3.099999999999999978e-02 8.365614932558049270e-34
-3.084999999999999895e-02 6.800675629888491591e-33
-3.070000000000000159e-02 -2.788761311926820335e-32
-3.055000000000000077e-02 -1.991358665250614869e-31
-3.039999999999999994e-02 6.877724347508619084e-31
-3.024999999999999911e-02 5.380075143374552251e-30
-3.009999999999999828e-02 -1.154931287084031134e-29
-2.995000000000000093e-02 -1.279154400442770849e-28
-2.980000000000000010e-02 6.942800504702344673e-29
-2.964999999999999927e-02 2.469451641410613090e-27
-2.949999999999999845e-02 2.887635936176207844e-27
-2.935000000000000109e-02 -3.393664823118819893e-26
-2.920000000000000026e-02 -1.104017616130210265e-25
-2.904999999999999943e-02 2.218901791229839967e-25
-2.889999999999999861e-02 1.899081457908491327e-24
-2.875000000000000125e-02 2.124677138570428009e-24
-2.860000000000000042e-02 -1.465097874497611242e-23
-2.844999999999999959e-02 -6.107674779316989272e-23
-2.829999999999999877e-02 -4.491798291244322027e-23
-2.815000000000000141e-02 3.663112847628494750e-22
-2.800000000000000058e-02 1.494340752616649654e-21
-2.784999999999999976e-02 2.395199408617283873e-21
-2.769999999999999893e-02 -1.245235089003074460e-21
-2.755000000000000157e-02 -1.854783533235959392e-20
-2.740000000000000074e-02 -6.291056232816989162e-20
-2.724999999999999992e-02 -1.506560076267197519e-19
-2.709999999999999909e-02 -3.011059438833372308e-19
-2.695000000000000173e-02 -5.377520290758898203e-19
-2.680000000000000090e-02 -8.883901167255734785e-19
-2.665000000000000008e-02 -1.384584850320740611e-18
-2.649999999999999925e-02 -2.062317604230470516e-18
-2.634999999999999842e-02 -2.962947926070297421e-18
-2.620000000000000107e-02 -4.133106365114096588e-18
-2.605000000000000024e-02 -5.624934458069301253e-18
-2.589999999999999941e-02 -7.497205248614182278e-18
-2.574999999999999858e-02 -9.815721368067639290e-18
-2.560000000000000123e-02 -1.265352989555331133e-17
-2.545000000000000040e-02 -1.609207586136378207e-17
-2.529999999999999957e-02 -2.022196201235320972e-17
-2.514999999999999875e-02 -2.514334585863135254e-17
-2.500000000000000139e-02 -3.096719698809464940e-17
-2.485000000000000056e-02 -3.781633517809497385e-17
-2.469999999999999973e-02 -4.582610372045825228e-17
-2.454999999999999891e-02 -5.514584842041970873e-17
-2.440000000000000155e-02 -6.594020468965699740e-17
-2.425000000000000072e-02 -7.839013979386201948e-17
-2.409999999999999989e-02 -9.269475279775383852e-17
-2.394999999999999907e-02 -1.090728164297404793e-16
-2.380000000000000171e-02 -1.277643321814705274e-16
-2.365000000000000088e-02 -1.490326280378665639e-16
-2.350000000000000006e-02 -1.731664231199340977e-16
-2.334999999999999923e-02 -2.004817533612275886e-16
-2.319999999999999840e-02 -2.313247508347086260e-16
-2.305000000000000104e-02 -2.660740127980202804e-16
-2.290000000000000022e-02 -3.051433280807860785e-16
-2.274999999999999939e-02 -3.489850122768398165e-16
-2.259999999999999856e-02 -3.980928326548715483e-16
-2.245000000000000120e-02 -4.530057139275718223e-16
-2.230000000000000038e-02 -5.143115763696739281e-16
-2.214999999999999955e-02 -5.826513062848941507e-16
-2.199999999999999872e-02 -6.587232823382436608e-16
-2.185000000000000137e-02 -7.432881401163568200e-16
-2.170000000000000054e-02 -8.371736955064970967e-16
-2.154999999999999971e-02 -9.412808209876286428e-16
-2.139999999999999888e-02 -1.056589004284132650e-15
-2.125000000000000153e-02 -1.184162965810707773e-15
-2.110000000000000070e-02 -1.325159540815066574e-15
-2.094999999999999987e-02 -1.480834561520631958e-15
-2.079999999999999905e-02 -1.652551750972483351e-15
-2.065000000000000169e-02 -1.841789711059171539e-15
-2.050000000000000086e-02 -2.050152828061914574e-15
-2.035000000000000003e-02 -2.279378366555531027e-15
-2.019999999999999921e-02 -2.531350974847661715e-15
-2.004999999999999838e-02 -2.808108402451163672e-15
-1.990000000000000102e-02 -3.111860134808949740e-15
-1.975000000000000019e-02 -3.444991840216961657e-15
-1.959999999999999937e-02 -3.810088451471982732e-15
-1.944999999999999854e-02 -4.209939671585795004e-15
-1.930000000000000118e-02 -4.647562631916518291e-15
-1.915000000000000036e-02 -5.126213327113398124e-15
-1.899999999999999953e-02 -5.649408637973434358e-15
-1.884999999999999870e-02 -6.220942425067379003e-15
-1.870000000000000134e-02 -6.844904163464575822e-15
-1.855000000000000052e-02 -7.525708165369640601e-15
-1.839999999999999969e-02 -8.268101203418986439e-15
-1.824999999999999886e-02 -9.077209944525869989e-15
-1.810000000000000150e-02 -9.958539255814496949e-15
-1.795000000000000068e-02 -1.091802853231101447e-14
-1.779999999999999985e-02 -1.196205339100940568e-14
-1.764999999999999902e-02 -1.309748411614485020e-14
-1.750000000000000167e-02 -1.433167549479835712e-14
-1.735000000000000084e-02 -1.567251170964296947e-14
-1.720000000000000001e-02 -1.712839871564723893e-14
-1.704999999999999918e-02 -1.870831336798616656e-14
-1.689999999999999836e-02 -2.042191353632434592e-14
-1.675000000000000100e-02 -2.227985489513823608e-14
-1.660000000000000017e-02 -2.429437876458155621e-14
-1.644999999999999934e-02 -2.648013203837822765e-14
-1.629999999999999852e-02 -2.885459747655957918e-14
-1.615000000000000116e-02 -3.143674692307821261e-14
-1.600000000000000033e-02 -3.424118830814247560e-14
-1.584999999999999951e-02 -3.726503155533633649e-14
-1.569999999999999868e-02 -4.046697195001988656e-14
-1.554999999999999959e-02 -4.374762881055767327e-14
-1.540000000000000049e-02 -4.695847999184633859e-14
-1.524999999999999967e-02 -4.999391403789042732e-14
-1.510000000000000057e-02 -5.304213489330626696e-14
-1.494999999999999975e-02 -5.705145015265367103e-14
-1.480000000000000066e-02 -6.434719564910734713e-14
-1.464999999999999983e-02 -7.903803344233226169e-14
-1.450000000000000074e-02 -1.063446544908620839e-13
-1.434999999999999991e-02 -1.493786919246758993e-13
-1.420000000000000082e-02 -2.015964299792102898e-13
-1.404999999999999999e-02 -2.339770358798093364e-13
-1.389999999999999916e-02 -1.791540819775366833e-13
-1.375000000000000007e-02 7.852304418666522512e-14
-1.359999999999999924e-02 6.875192147363928807e-13
-1.345000000000000015e-02 1.757080050034109941e-12
-1.329999999999999932e-02 3.192041899899300539e-12
-1.315000000000000023e-02 4.412330310149537027e-12
-1.299999999999999940e-02 3.987876435324055890e-12
-1.285000000000000031e-02 -6.717739971066893911e-13
-1.269999999999999948e-02 -1.326724494155051559e-11
-1.255000000000000039e-02 -3.769990916668852776e-11
-1.239999999999999956e-02 -7.567357157567400350e-11
-1.225000000000000047e-02 -1.222618534191255435e-10
-1.209999999999999964e-02 -1.593986886927467594e-10
-1.195000000000000055e-02 -1.483614342490113813e-10
-1.179999999999999973e-02 -2.410163561783473796e-11
-1.165000000000000063e-02 3.034754392228222741e-10
-1.149999999999999981e-02 9.341036832921645328e-10
-1.135000000000000071e-02 1.939616467439009284e-09
-1.119999999999999989e-02 3.298074258140104575e-09
-1.105000000000000079e-02 4.799044717174183461e-09
-1.089999999999999997e-02 5.929526203374280158e-09
-1.074999999999999914e-02 5.763195254360198305e-09
-1.060000000000000005e-02 2.888748129592499936e-09
-1.044999999999999922e-02 -4.579114420977248301e-09
-1.030000000000000013e-02 -1.886627032376964053e-08
-1.014999999999999930e-02 -4.226365746262672474e-08
-1.000000000000000021e-02 -7.672719704032715526e-08
-9.850001000000000589e-03 -1.234191699950315524e-07
-9.700001999999999236e-03 -1.823033386472161510e-07
-9.550001000000000670e-03 -2.519318229587952374e-07
-9.400000999999999843e-03 -3.295481576515157940e-07
-9.250002000000000224e-03 -4.115683793770585908e-07
-9.100000999999999923e-03 -4.943962039760663174e-07
-8.950001000000000831e-03 -5.754050107498187572e-07
-8.800001999999999477e-03 -6.538186312354810070e-07
-8.650000999999999177e-03 -7.311953140742843971e-07
-8.500001999999999558e-03 -8.112896807688230183e-07
-8.349999999999999784e-03 -8.992412858788156882e-07
-8.200001000000000165e-03 -1.000268412099103443e-06
-8.050002000000000546e-03 -1.118256591325916816e-06
-7.900000000000000772e-03 -1.254729227184725460e-06
-7.750001000000000285e-03 -1.408615730724704918e-06
-7.600001999999999799e-03 -1.576978661432804074e-06
-7.449998999999999684e-03 -1.756506208039354533e-06
-7.300001000000000406e-03 -1.945248413903755136e-06
-7.150001999999999920e-03 -2.143923666153568774e-06
-7.000003000000000301e-03 -2.356233835598686710e-06
-6.850000000000000186e-03 -2.587999460956780240e-06
-6.700002000000000041e-03 -2.845418521246756427e-06
-6.550003000000000422e-03 -3.133162181256921031e-06
-6.400000000000000307e-03 -3.453147428444935940e-06
-6.250000999999999821e-03 -3.804578000199398957e-06
-6.100002999999999675e-03 -4.185296347714029253e-06
-5.950000000000000427e-03 -4.593881385517306626e-06
-5.800000999999999941e-03 -5.031534328736597672e-06
-5.650002999999999796e-03 -5.502841759152943268e-06
-5.499999999999999681e-03 -6.015016424498753622e-06
-5.350001000000000062e-03 -6.575934094144031405e-06
-5.200001999999999576e-03 -7.191923486971063539e-06
-5.049999999999999802e-03 -7.866427040426060557e-06
-4.900001000000000183e-03 -8.600253750046249479e-06
-4.750001999999999697e-03 -9.393352229380980134e-06
-4.599999999999999922e-03 -1.024722223519347608e-05
-4.450001000000000304e-03 -1.116671228373888880e-05
-4.300001999999999817e-03 -1.216023611050331965e-05
-4.149998999999999702e-03 -1.323826018051477149e-05
-4.000001000000000424e-03 -1.441086078557418659e-05
-3.850001999999999938e-03 -1.568569678056519479e-05
-3.699998999999999823e-03 -1.706755574559792876e-05
-3.550000000000000204e-03 -1.855977097875438631e-05
-3.400002000000000059e-03 -2.016675898630637676e-05
-3.250003000000000006e-03 -2.189626502513419837e-05
-3.099999999999999891e-03 -2.376003067183773965e-05
-2.950002000000000180e-03 -2.577246777946129441e-05
-2.800003000000000127e-03 -2.794813190121203661e-05
-2.650000000000000012e-03 -3.029945582966320217e-05
-2.500000999999999959e-03 -3.283615296822972596e-05
-2.350002999999999814e-03 -3.556668525561690331e-05
-2.200000000000000133e-03 -3.850094071822240949e-05
-2.050001000000000080e-03 -4.165257269050925970e-05
-1.900002000000000028e-03 -4.503955278778448701e-05
-1.750000000000000036e-03 -4.868259929935447872e-05
-1.600000999999999984e-03 -5.260248872218653560e-05
-1.450001999999999932e-03 -5.681788752553984523e-05
-1.299999999999999940e-03 -6.134518480394035578e-05
-1.150001000000000105e-03 -6.620040221605449915e-05
-1.000002000000000052e-03 -7.140207890188321471e-05
-8.499994999999999990e-04 -7.697333785472437739e-05
-7.000007000000000148e-04 -8.294171857414767146e-05
-5.500019000000000305e-04 -8.933704521041363478e-05
-3.999992999999999973e-04 -9.618864714866504073e-05
-2.500005000000000131e-04 -1.035237728501670063e-04
-1.000017000000000017e-04 -1.113683465518988669e-04
5.000085000000000087e-05 -1.197495730593800545e-04
1.999996999999999886e-04 -1.286987389903515577e-04
3.499985000000000270e-04 -1.382523769279941916e-04
4.999972999999999571e-04 -1.484510867157950997e-04
6.499998000000000104e-04 -1.593366905581206083e-04
7.999985999999999946e-04 -1.709498174022883177e-04
9.499975000000000129e-04 -1.833295973483473063e-04
1.100000000000000066e-03 -1.965156116057187319e-04
1.249998999999999902e-03 -2.105509629473090172e-04
1.399997999999999954e-03 -2.254842838738113642e-04
1.549999999999999946e-03 -2.413694019196555018e-04
1.699998999999999998e-03 -2.582629094831645489e-04
1.849998000000000050e-03 -2.762212825473397970e-04
2.000000000000000042e-03 -2.952998329419642687e-04
2.149999000000000094e-03 -3.155537706334143877e-04
2.299998000000000146e-03 -3.370415070094168186e-04
2.449999999999999921e-03 -3.598269540816545486e-04
2.599998999999999973e-03 -3.839799901470541954e-04
2.749998000000000026e-03 -4.095743352081626654e-04
2.900001000000000141e-03 -4.366845241747796535e-04
3.049998999999999853e-03 -4.653841897379606962e-04
3.199997999999999905e-03 -4.957469063811004162e-04
3.350001000000000020e-03 -5.278490134514868259e-04
3.500000000000000073e-03 -5.617723800241947174e-04
3.649997999999999784e-03 -5.976050160825252533e-04
3.800000999999999900e-03 -6.354394718073308468e-04
3.950000000000000386e-03 -6.753695779480040073e-04
4.099999000000000005e-03 -7.174886413849890232e-04
4.249997000000000150e-03 -7.618896779604256153e-04
4.400000000000000265e-03 -8.086680900305509567e-04
4.549998999999999884e-03 -8.579244604334235191e-04
4.699998000000000370e-03 -9.097657748498022556e-04
4.850000000000000144e-03 -9.643033263273537159e-04
4.999998999999999763e-03 -1.021649921312928200e-03
5.149998000000000249e-03 -1.081917434930801392e-03
5.300000000000000024e-03 -1.145216869190335274e-03
5.449998999999999642e-03 -1.211661263369023800e-03
5.599998000000000128e-03 -1.281368662603199482e-03
5.749999999999999903e-03 -1.354462816379964352e-03
5.899999000000000389e-03 -1.431070966646075249e-03
6.049998000000000008e-03 -1.511320821009576321e-03
6.200001000000000123e-03 -1.595338573679327965e-03
6.349999000000000268e-03 -1.683249138295650482e-03
6.499997999999999887e-03 -1.775178243406116962e-03
6.650001000000000002e-03 -1.871255459263920784e-03
6.799999999999999621e-03 -1.971614547073841095e-03
6.949997999999999766e-03 -2.076392062008380890e-03
7.100000999999999882e-03 -2.185723045840859413e-03
7.250000000000000368e-03 -2.299739746376872063e-03
7.399998999999999987e-03 -2.418570453301072121e-03
7.550000999999999761e-03 -2.542343921959400177e-03
7.700000000000000247e-03 -2.671191003173589706e-03
7.849998999999999866e-03 -2.805245108902454376e-03
7.999997999999999485e-03 -2.944639185443520546e-03
8.149999999999999259e-03 -3.089501988142728806e-03
8.299999000000000612e-03 -3.239956451579928398e-03
8.449998000000000231e-03 -3.396121086552739143e-03
8.600000000000000006e-03 -3.558112774044275284e-03
8.749998999999999624e-03 -3.726047230884432793e-03
8.899997999999999243e-03 -3.900038776919245720e-03
9.050000000000000752e-03 -4.080197773873806000e-03
9.199999000000000371e-03 -4.266628529876470566e-03
9.349997999999999990e-03 -4.459427669644355774e-03
9.500000999999999238e-03 -4.658681806176900864e-03
9.649998999999999383e-03 -4.864472430199384689e-03
9.799998000000000736e-03 -5.076877307146787643e-03
9.950000999999999984e-03 -5.295970942825078964e-03
1.009999999999999960e-02 -5.521819926798343658e-03
1.025000000000000043e-02 -5.754478275775909424e-03
1.039999999999999952e-02 -5.993985570967197418e-03
1.055000000000000035e-02 -6.240372080355882645e-03
1.069999999999999944e-02 -6.493661087006330490e-03
1.085000000000000027e-02 -6.753868889063596725e-03
1.099999999999999936e-02 -7.020999677479267120e-03
1.115000000000000019e-02 -7.295043207705020905e-03
1.129999999999999928e-02 -7.575975265353918076e-03
1.145000000000000011e-02 -7.863756269216537476e-03
1.159999999999999920e-02 -8.158333599567413330e-03
1.175000000000000003e-02 -8.459638804197311401e-03
1.190000000000000085e-02 -8.767591789364814758e-03
1.204999999999999995e-02 -9.082099422812461853e-03
1.220000000000000077e-02 -9.403053671121597290e-03
1.234999999999999987e-02 -9.730322286486625671e-03
1.250000000000000069e-02 -1.006375346332788467e-02
1.264999999999999979e-02 -1.040317863225936890e-02
1.280000000000000061e-02 -1.074841432273387909e-02
1.294999999999999971e-02 -1.109926402568817139e-02
1.310000000000000053e-02 -1.145551074296236038e-02
1.324999999999999963e-02 -1.181691419333219528e-02
1.340000000000000045e-02 -1.218320615589618683e-02
1.354999999999999954e-02 -1.255410537123680115e-02
1.370000000000000037e-02 -1.292930915951728821e-02
1.384999999999999946e-02 -1.330849900841712952e-02
1.400000000000000029e-02 -1.369133312255144119e-02
1.414999999999999938e-02 -1.407744735479354858e-02
1.430000000000000021e-02 -1.446645800024271011e-02
1.444999999999999930e-02 -1.485795620828866959e-02
1.460000000000000013e-02 -1.525151170790195465e-02
1.474999999999999922e-02 -1.564667560160160065e-02
1.490000000000000005e-02 -1.604297757148742676e-02
1.504999999999999914e-02 -1.643993146717548370e-02
1.519999999999999997e-02 -1.683703064918518066e-02
1.535000000000000080e-02 -1.723374240100383759e-02
1.549999999999999989e-02 -1.762950792908668518e-02
1.565000000000000072e-02 -1.802375353872776031e-02
1.580000000000000154e-02 -1.841589063405990601e-02
1.594999999999999890e-02 -1.880531944334506989e-02
1.609999999999999973e-02 -1.919141411781311035e-02
1.625000000000000056e-02 -1.957353018224239349e-02
1.640000000000000138e-02 -1.995100826025009155e-02
1.654999999999999874e-02 -2.032316848635673523e-02
1.669999999999999957e-02 -2.068932540714740753e-02
1.685000000000000039e-02 -2.104877494275569916e-02
1.700000000000000122e-02 -2.140080556273460388e-02
1.714999999999999858e-02 -2.174469828605651855e-02
1.729999999999999941e-02 -2.207971177995204926e-02
1.745000000000000023e-02 -2.240509726107120514e-02
1.760000000000000106e-02 -2.272010222077369690e-02
1.774999999999999842e-02 -2.302397042512893677e-02
1.789999999999999925e-02 -2.331594377756118774e-02
1.805000000000000007e-02 -2.359525859355926514e-02
1.820000000000000090e-02 -2.386114746332168579e-02
1.835000000000000173e-02 -2.411283925175666809e-02
1.849999999999999908e-02 -2.434957027435302734e-02
1.864999999999999991e-02 -2.457057870924472809e-02
1.880000000000000074e-02 -2.477511391043663025e-02
1.895000000000000157e-02 -2.496242709457874298e-02
1.909999999999999892e-02 -2.513178251683712006e-02
1.924999999999999975e-02 -2.528245188295841217e-02
1.940000000000000058e-02 -2.541371807456016541e-02
1.955000000000000140e-02 -2.552487514913082123e-02
1.969999999999999876e-02 -2.561524510383605957e-02
1.984999999999999959e-02 -2.568416483700275421e-02
2.000000000000000042e-02 -2.573099546134471893e-02
2.015000000000000124e-02 -2.575511857867240906e-02
2.029999999999999860e-02 -2.575592882931232452e-02
2.044999999999999943e-02 -2.573285810649394989e-02
2.060000000000000026e-02 -2.568536438047885895e-02
2.075000000000000108e-02 -2.561293914914131165e-02
2.089999999999999844e-02 -2.551510930061340332e-02
2.104999999999999927e-02 -2.539143152534961700e-02
2.120000000000000009e-02 -2.524149231612682343e-02
2.135000000000000092e-02 -2.506492100656032562e-02
2.149999999999999828e-02 -2.486138418316841125e-02
2.164999999999999911e-02 -2.463059313595294952e-02
2.179999999999999993e-02 -2.437230013310909271e-02
2.195000000000000076e-02 -2.408630773425102234e-02
2.210000000000000159e-02 -2.377245202660560608e-02
2.224999999999999895e-02 -2.343061938881874084e-02
2.239999999999999977e-02 -2.306074090301990509e-02
2.255000000000000060e-02 -2.266279794275760651e-02
2.270000000000000143e-02 -2.223683148622512817e-02
2.284999999999999878e-02 -2.178292348980903625e-02
2.299999999999999961e-02 -2.130120992660522461e-02
2.315000000000000044e-02 -2.079187706112861633e-02
2.330000000000000127e-02 -2.025516144931316376e-02
2.344999999999999862e-02 -1.969135738909244537e-02
2.359999999999999945e-02 -1.910080574452877045e-02
2.375000000000000028e-02 -1.848390884697437286e-02
2.390000000000000110e-02 -1.784111931920051575e-02
2.404999999999999846e-02 -1.717293821275234222e-02
2.419999999999999929e-02 -1.647992059588432312e-02
2.435000000000000012e-02 -1.576267182826995850e-02
2.450000000000000094e-02 -1.502185314893722534e-02
2.464999999999999830e-02 -1.425818074494600296e-02
2.479999999999999913e-02 -1.347241923213005066e-02
2.494999999999999996e-02 -1.266537420451641083e-02
2.510000000000000078e-02 -1.183789875358343124e-02
2.525000000000000161e-02 -1.099089346826076508e-02
2.539999999999999897e-02 -1.012530550360679626e-02
2.554999999999999979e-02 -9.242130443453788757e-03
2.570000000000000062e-02 -8.342404849827289581e-03
2.585000000000000145e-02 -7.427204400300979614e-03
2.599999999999999881e-02 -6.497638765722513199e-03
2.614999999999999963e-02 -5.554849281907081604e-03
2.630000000000000046e-02 -4.600010812282562256e-03
2.645000000000000129e-02 -3.634333377704024315e-03
2.659999999999999865e-02 -2.659059828147292137e-03
2.674999999999999947e-02 -1.675458508543670177e-03
2.690000000000000030e-02 -6.848181365057826042e-04
2.705000000000000113e-02 3.115527797490358353e-04
2.719999999999999848e-02 1.312326407060027122e-03
2.734999999999999931e-02 2.316158497706055641e-03
2.750000000000000014e-02 3.321694443002343178e-03
2.765000000000000097e-02 4.327571485191583633e-03
2.779999999999999832e-02 5.332421511411666870e-03
2.794999999999999915e-02 6.334872450679540634e-03
2.809999999999999998e-02 7.333549205213785172e-03
2.825000000000000080e-02 8.327078074216842651e-03
2.840000000000000163e-02 9.314089082181453705e-03
2.854999999999999899e-02 1.029321923851966858e-02
2.869999999999999982e-02 1.126312743872404099e-02
2.885000000000000064e-02 1.222248934209346771e-02
2.900000000000000147e-02 1.317000109702348709e-02
2.914999999999999883e-02 1.410437561571598053e-02
2.929999999999999966e-02 1.502434164285659790e-02
2.945000000000000048e-02 1.592865586280822754e-02
2.960000000000000131e-02 1.681610010564327240e-02
2.974999999999999867e-02 1.768549717962741852e-02
2.989999999999999949e-02 1.853570900857448578e-02
3.005000000000000032e-02 1.936563663184642792e-02
3.020000000000000115e-02 2.017422020435333252e-02
3.034999999999999851e-02 2.096044085919857025e-02
3.049999999999999933e-02 2.172331698238849640e-02
3.065000000000000016e-02 2.246191352605819702e-02
3.080000000000000099e-02 2.317534759640693665e-02
3.094999999999999835e-02 2.386278659105300903e-02
3.109999999999999917e-02 2.452345378696918488e-02
3.125000000000000000e-02 2.515662461519241333e-02
3.139999999999999736e-02 2.576163038611412048e-02
3.155000000000000165e-02 2.633786574006080627e-02
3.169999999999999901e-02 2.688477933406829834e-02
3.185000000000000331e-02 2.740187570452690125e-02
3.200000000000000067e-02 2.788870967924594879e-02
3.214999999999999802e-02 2.834490314126014709e-02
3.230000000000000232e-02 2.877013757824897766e-02
3.244999999999999968e-02 2.916415780782699585e-02
3.259999999999999704e-02 2.952677384018898010e-02
3.275000000000000133e-02 2.985786274075508118e-02
3.289999999999999869e-02 3.015735745429992676e-02
3.305000000000000299e-02 3.042524494230747223e-02
3.320000000000000034e-02 3.066156990826129913e-02
3.334999999999999770e-02 3.086643479764461517e-02
3.350000000000000200e-02 3.104000352323055267e-02
3.364999999999999936e-02 3.118250519037246704e-02
3.379999999999999671e-02 3.129422664642333984e-02
3.395000000000000101e-02 3.137550875544548035e-02
3.409999999999999837e-02 3.142674267292022705e-02
3.425000000000000266e-02 3.144836798310279846e-02
3.440000000000000002e-02 3.144088387489318848e-02
3.454999999999999738e-02 3.140482679009437561e-02
3.470000000000000168e-02 3.134078904986381531e-02
3.484999999999999903e-02 3.124940767884254456e-02
3.500000000000000333e-02 3.113136254251003265e-02
3.515000000000000069e-02 3.098737262189388275e-02
3.529999999999999805e-02 3.081819415092468262e-02
3.545000000000000234e-02 3.062462806701660156e-02
3.559999999999999970e-02 3.040750510990619659e-02
3.574999999999999706e-02 3.016768582165241241e-02
3.590000000000000135e-02 2.990605868399143219e-02
3.604999999999999871e-02 2.962353453040122986e-02
3.620000000000000301e-02 2.932105585932731628e-02
3.635000000000000037e-02 2.899958565831184387e-02
3.649999999999999772e-02 2.866010554134845734e-02
3.665000000000000202e-02 2.830361202359199524e-02
3.679999999999999938e-02 2.793111465871334076e-02
3.694999999999999674e-02 2.754363045096397400e-02
3.710000000000000103e-02 2.714218571782112122e-02
3.724999999999999839e-02 2.672781981527805328e-02
3.740000000000000269e-02 2.630157209932804108e-02
3.755000000000000004e-02 2.586448192596435547e-02
3.769999999999999740e-02 2.541758120059967041e-02
3.785000000000000170e-02 2.496189437806606293e-02
3.799999999999999906e-02 2.449844032526016235e-02
3.815000000000000335e-02 2.402823418378829956e-02
3.830000000000000071e-02 2.355228550732135773e-02
3.844999999999999807e-02 2.307158522307872772e-02
3.860000000000000236e-02 2.258710749447345734e-02
3.874999999999999972e-02 2.209980785846710205e-02
3.889999999999999708e-02 2.161061577498912811e-02
3.905000000000000138e-02 2.112044207751750946e-02
3.919999999999999873e-02 2.063017152249813080e-02
3.935000000000000303e-02 2.014067023992538452e-02
3.950000000000000039e-02 1.965278014540672302e-02
3.964999999999999775e-02 1.916730962693691254e-02
3.980000000000000204e-02 1.868503727018833160e-02
3.994999999999999940e-02 1.820671558380126953e-02
4.009999999999999676e-02 1.773306168615818024e-02
4.025000000000000105e-02 1.726475916802883148e-02
4.039999999999999841e-02 1.680245436728000641e-02
4.055000000000000271e-02 1.634675823152065277e-02
4.070000000000000007e-02 1.589825190603733063e-02
4.084999999999999742e-02 1.545747835189104080e-02
4.100000000000000172e-02 1.502495072782039642e-02
4.114999999999999908e-02 1.460114214569330215e-02
4.130000000000000338e-02 1.418648753315210342e-02
4.145000000000000073e-02 1.378138177096843719e-02
4.159999999999999809e-02 1.338618155568838120e-02
4.175000000000000239e-02 1.300120446830987930e-02
4.189999999999999974e-02 1.262673828750848770e-02
4.204999999999999710e-02 1.226303540170192719e-02
4.220000000000000140e-02 1.191031187772750854e-02
4.234999999999999876e-02 1.156874373555183411e-02
4.250000000000000305e-02 1.123846881091594696e-02
4.265000000000000041e-02 1.091959327459335327e-02
4.279999999999999777e-02 1.061219163239002228e-02
4.295000000000000207e-02 1.031630579382181168e-02
4.309999999999999942e-02 1.003194600343704224e-02
4.324999999999999678e-02 9.759089909493923187e-03
4.340000000000000108e-02 9.497679769992828369e-03
4.354999999999999843e-02 9.247629903256893158e-03
4.370000000000000273e-02 9.008824825286865234e-03
4.385000000000000009e-02 8.781127631664276123e-03
4.399999999999999745e-02 8.564379066228866577e-03
4.415000000000000174e-02 8.358391933143138885e-03
4.429999999999999910e-02 8.162952959537506104e-03
4.445000000000000340e-02 7.977823726832866669e-03
4.460000000000000075e-02 7.802748121321201324e-03
4.474999999999999811e-02 7.637447677552700043e-03
4.490000000000000241e-02 7.481629494577646255e-03
4.504999999999999977e-02 7.334982976317405701e-03
4.519999999999999712e-02 7.197183091193437576e-03
4.535000000000000142e-02 7.067889906466007233e-03
4.549999999999999878e-02 6.946751847863197327e-03
4.565000000000000308e-02 6.833406630903482437e-03
4.580000000000000043e-02 6.727482657879590988e-03
4.594999999999999779e-02 6.628597155213356018e-03
4.610000000000000209e-02 6.536356639117002487e-03
4.624999999999999944e-02 6.450361572206020355e-03
4.639999999999999680e-02 6.370210554450750351e-03
4.655000000000000110e-02 6.295503582805395126e-03
4.669999999999999846e-02 6.225841119885444641e-03
4.685000000000000275e-02 6.160818971693515778e-03
4.700000000000000011e-02 6.100032012909650803e-03
4.714999999999999747e-02 6.043072789907455444e-03
4.730000000000000177e-02 5.989536643028259277e-03
4.744999999999999912e-02 5.939025897532701492e-03
4.760000000000000342e-02 5.891149397939443588e-03
4.775000000000000078e-02 5.845522973686456680e-03
4.789999999999999813e-02 5.801768042147159576e-03